 vasp.6.4.1 05Apr23 (build Jun  6 2023 14:46:38) gamma-only                      
 executed on        HPECrayEX_GCC date 2024.08.22  02:04:51
 running  512 mpi-ranks, with    1 threads/rank, on    4 nodes
 distrk:  each k-point on  512 cores,    1 groups
 distr:  one band on NCORE=   2 cores,  256 groups


--------------------------------------------------------------------------------------------------------


 INCAR:
   ALGO = Conjugate
   NCORE = 2
   PREC = Accurate
   EDIFF = 1E-7
   ENCUT = 1000
   ISMEAR = 0
   SIGMA = 0.01
   ISIF = 0
   SYMPREC = 1E-7
   GGA = B5
   ALDAX = 1.0
   AGGAX = 1.0
   AGGAC = 1.0
   ALDAC = 0.0
   IVDW = 11
   VDW_S8 = 1.682
   VDW_SR = 1.094
   LWAVE = .FALSE.
   LCHARG = .FALSE.
   LWAVE = .FALSE.
   LCHARG = .FALSE.

 POTCAR:    PAW_PBE C_h 06Feb2004                 
 POTCAR:    PAW_PBE H_h 06Feb2004                 
 POTCAR:    PAW_PBE N_h 06Feb2004                 
 POTCAR:    PAW_PBE C_h 06Feb2004                 
   VRHFIN =C: s2p2                                                                                  
   LEXCH  = PE                                                                                      
   EATOM  =   147.1560 eV,   10.8157 Ry                                                             
                                                                                                    
   TITEL  = PAW_PBE C_h 06Feb2004                                                                   
   LULTRA =        F    use ultrasoft PP ?                                                          
   IUNSCR =        1    unscreen: 0-lin 1-nonlin 2-no                                               
   RPACOR =    0.800    partial core radius                                                         
   POMASS =   12.011; ZVAL   =    4.000    mass and valenz                                          
   RCORE  =    1.100    outmost cutoff radius                                                       
   RWIGS  =    1.630; RWIGS  =    0.863    wigner-seitz radius (au A)                               
   ENMAX  =  700.000; ENMIN  =  500.000 eV                                                          
   ICORE  =        2    local potential                                                             
   LCOR   =        T    correct aug charges                                                         
   LPAW   =        T    paw PP                                                                      
   EAUG   =  946.768                                                                                
   DEXC   =    0.000                                                                                
   RMAX   =    1.128    core radius for proj-oper                                                   
   RAUG   =    1.300    factor for augmentation sphere                                              
   RDEP   =    1.162    radius for radial grids                                                     
   RDEPT  =    1.088    core radius for aug-charge                                                  
                                                                                                    
   Atomic configuration                                                                             
    4 entries                                                                                       
     n  l   j            E        occ.                                                              
     1  0  0.50      -273.3789   2.0000                                                             
     2  0  0.50       -13.7508   2.0000                                                             
     2  1  0.50        -5.2854   2.0000                                                             
     3  2  1.50        -5.4423   0.0000                                                             
   Description                                                                                      
     l       E           TYP  RCUT    TYP  RCUT                                                     
     0    -13.7508458     23  1.100                                                                 
     0     -8.2022199     23  1.100                                                                 
     1     -5.2854383     23  1.100                                                                 
     1      1.1560700     23  1.100                                                                 
     2     -5.4423304      7  1.100                                                                 
  local pseudopotential read in
  partial core-charges read in
  partial kinetic energy density read in
  atomic valenz-charges read in
  non local Contribution for L=           0  read in
    real space projection operators read in
  non local Contribution for L=           0  read in
    real space projection operators read in
  non local Contribution for L=           1  read in
    real space projection operators read in
  non local Contribution for L=           1  read in
    real space projection operators read in
    PAW grid and wavefunctions read in

   number of l-projection  operators is LMAX  =           4
   number of lm-projection operators is LMMAX =           8

 POTCAR:    PAW_PBE H_h 06Feb2004                 
   VRHFIN =H: ultrasoft test                                                                        
   LEXCH  = PE                                                                                      
   EATOM  =    12.4884 eV,    0.9179 Ry                                                             
                                                                                                    
   TITEL  = PAW_PBE H_h 06Feb2004                                                                   
   LULTRA =        F    use ultrasoft PP ?                                                          
   IUNSCR =        0    unscreen: 0-lin 1-nonlin 2-no                                               
   RPACOR =    0.000    partial core radius                                                         
   POMASS =    1.000; ZVAL   =    1.000    mass and valenz                                          
   RCORE  =    0.800    outmost cutoff radius                                                       
   RWIGS  =    0.700; RWIGS  =    0.370    wigner-seitz radius (au A)                               
   ENMAX  =  700.000; ENMIN  =  350.000 eV                                                          
   RCLOC  =    0.701    cutoff for local pot                                                        
   LCOR   =        T    correct aug charges                                                         
   LPAW   =        T    paw PP                                                                      
   EAUG   = 1000.000                                                                                
   RMAX   =    0.819    core radius for proj-oper                                                   
   RAUG   =    1.000    factor for augmentation sphere                                              
   RDEP   =    0.817    radius for radial grids                                                     
   RDEPT  =    0.817    core radius for aug-charge                                                  
                                                                                                    
   Atomic configuration                                                                             
    2 entries                                                                                       
     n  l   j            E        occ.                                                              
     1  0  0.50        -6.4927   1.0000                                                             
     2  1  0.50        -3.4015   0.0000                                                             
   Description                                                                                      
     l       E           TYP  RCUT    TYP  RCUT                                                     
     0     -6.4927493     23  0.800                                                                 
     0      6.8029130     23  0.800                                                                 
     1     -6.8029130     23  0.800                                                                 
  local pseudopotential read in
  atomic valenz-charges read in
  non local Contribution for L=           0  read in
    real space projection operators read in
  non local Contribution for L=           0  read in
    real space projection operators read in
  non local Contribution for L=           1  read in
    real space projection operators read in
    PAW grid and wavefunctions read in

   number of l-projection  operators is LMAX  =           3
   number of lm-projection operators is LMMAX =           5

 POTCAR:    PAW_PBE N_h 06Feb2004                 
   VRHFIN =N: s2p3                                                                                  
   LEXCH  = PE                                                                                      
   EATOM  =   264.5486 eV,   19.4438 Ry                                                             
                                                                                                    
   TITEL  = PAW_PBE N_h 06Feb2004                                                                   
   LULTRA =        F    use ultrasoft PP ?                                                          
   IUNSCR =        1    unscreen: 0-lin 1-nonlin 2-no                                               
   RPACOR =    0.800    partial core radius                                                         
   POMASS =   14.001; ZVAL   =    5.000    mass and valenz                                          
   RCORE  =    1.100    outmost cutoff radius                                                       
   RWIGS  =    1.480; RWIGS  =    0.783    wigner-seitz radius (au A)                               
   ENMAX  =  700.000; ENMIN  =  500.000 eV                                                          
   ICORE  =        2    local potential                                                             
   LCOR   =        T    correct aug charges                                                         
   LPAW   =        T    paw PP                                                                      
   EAUG   =  904.640                                                                                
   DEXC   =    0.000                                                                                
   RMAX   =    1.127    core radius for proj-oper                                                   
   RAUG   =    1.300    factor for augmentation sphere                                              
   RDEP   =    1.115    radius for radial grids                                                     
   RDEPT  =    1.106    core radius for aug-charge                                                  
                                                                                                    
   Atomic configuration                                                                             
    4 entries                                                                                       
     n  l   j            E        occ.                                                              
     1  0  0.50      -384.7179   2.0000                                                             
     2  0  0.50       -18.5828   2.0000                                                             
     2  1  0.50        -7.0898   3.0000                                                             
     3  2  1.50        -6.8029   0.0000                                                             
   Description                                                                                      
     l       E           TYP  RCUT    TYP  RCUT                                                     
     0    -18.5828117     23  1.100                                                                 
     0    -15.0750597     23  1.100                                                                 
     1     -7.0897851     23  1.100                                                                 
     1     -1.9663412     23  1.100                                                                 
     2     -6.8029130      7  1.100                                                                 
  local pseudopotential read in
  partial core-charges read in
  partial kinetic energy density read in
  kinetic energy density of atom read in
  atomic valenz-charges read in
  non local Contribution for L=           0  read in
    real space projection operators read in
  non local Contribution for L=           0  read in
    real space projection operators read in
  non local Contribution for L=           1  read in
    real space projection operators read in
  non local Contribution for L=           1  read in
    real space projection operators read in
    PAW grid and wavefunctions read in

   number of l-projection  operators is LMAX  =           4
   number of lm-projection operators is LMMAX =           8

 -----------------------------------------------------------------------------
|                                                                             |
|               ----> ADVICE to this user running VASP <----                  |
|                                                                             |
|     You enforced a specific xc type in the INCAR file but a different       |
|     type was found in the POTCAR file.                                      |
|     I HOPE YOU KNOW WHAT YOU ARE DOING!                                     |
|                                                                             |
 -----------------------------------------------------------------------------

  PAW_PBE C_h 06Feb2004                 :
 energy of atom  1       EATOM= -147.1560
 kinetic energy error for atom=    0.0031 (will be added to EATOM!!)
  PAW_PBE H_h 06Feb2004                 :
 energy of atom  2       EATOM=  -12.4884
 kinetic energy error for atom=    0.0006 (will be added to EATOM!!)
  PAW_PBE N_h 06Feb2004                 :
 energy of atom  3       EATOM= -264.5486
 kinetic energy error for atom=    0.0081 (will be added to EATOM!!)


 POSCAR:  C  H  N
  positions in cartesian coordinates
  No initial velocities read in
 exchange correlation table for  LEXCH =       12
   RHO(1)=    0.500       N(1)  =     2000
   RHO(2)=  100.500       N(2)  =     4000

 VTST: version 4.1, (05/19/21)

 CHAIN: initializing optimizer
 
 OPT: Using VASP Dynamics algorithm
 CHAIN: Read ICHAIN            0

 POSCAR:  C  H  N
  positions in cartesian coordinates
  No initial velocities read in



--------------------------------------------------------------------------------------------------------


 ion  position               nearest neighbor table
   1  0.532  0.452  0.520-   5 1.09   9 1.34   2 1.40
   2  0.468  0.452  0.520-   6 1.09  10 1.34   1 1.40
   3  0.468  0.548  0.480-   7 1.09  10 1.34   4 1.40
   4  0.532  0.548  0.480-   8 1.09   9 1.34   3 1.40
   5  0.557  0.413  0.536-   1 1.09
   6  0.443  0.413  0.536-   2 1.09
   7  0.443  0.587  0.464-   3 1.09
   8  0.557  0.587  0.464-   4 1.09
   9  0.564  0.500  0.500-   1 1.34   4 1.34
  10  0.436  0.500  0.500-   2 1.34   3 1.34

  LATTYP: Found a simple cubic cell.
 ALAT       =    22.0000000000
  
  Lattice vectors:
  
 A1 = (  22.0000000000,   0.0000000000,   0.0000000000)
 A2 = (   0.0000000000,  22.0000000000,   0.0000000000)
 A3 = (   0.0000000000,   0.0000000000,  22.0000000000)


Analysis of symmetry for initial positions (statically):
=====================================================================
 Subroutine PRICEL returns:
 Original cell was already a primitive cell.
 

 Routine SETGRP: Setting up the symmetry group for a 
 simple cubic supercell.


 Subroutine GETGRP returns: Found  1 space group operations
 (whereof  1 operations were pure point group operations)
 out of a pool of 48 trial point group operations.


The static configuration has the point symmetry C_1 .


Analysis of symmetry for dynamics (positions and initial velocities):
=====================================================================
 Subroutine PRICEL returns:
 Original cell was already a primitive cell.
 

 Routine SETGRP: Setting up the symmetry group for a 
 simple cubic supercell.


 Subroutine GETGRP returns: Found  1 space group operations
 (whereof  1 operations were pure point group operations)
 out of a pool of 48 trial point group operations.


The dynamic configuration has the point symmetry C_1 .


 Subroutine INISYM returns: Found  1 space group operations
 (whereof  1 operations are pure point group operations),
 and found     1 'primitive' translations


----------------------------------------------------------------------------------------

                                     Primitive cell                                     

  volume of cell :   10648.0000

  direct lattice vectors                    reciprocal lattice vectors
    22.000000000  0.000000000  0.000000000     0.045454545  0.000000000  0.000000000
     0.000000000 22.000000000  0.000000000     0.000000000  0.045454545  0.000000000
     0.000000000  0.000000000 22.000000000     0.000000000  0.000000000  0.045454545

  length of vectors
    22.000000000 22.000000000 22.000000000     0.045454545  0.045454545  0.045454545

  position of ions in fractional coordinates (direct lattice)
     0.531706591  0.452340909  0.519656818
     0.468291136  0.452340455  0.519660000
     0.468293409  0.547657727  0.480343636
     0.531711136  0.547660909  0.480346364
     0.557140682  0.413011364  0.535869091
     0.442882500  0.413004545  0.535877727
     0.442882500  0.586995455  0.464122273
     0.557139773  0.586987273  0.464126364
     0.564002955  0.500000455  0.500009545
     0.435997045  0.500001364  0.500008636

  ion indices of the primitive-cell ions
   primitive index   ion index
                 1           1
                 2           2
                 3           3
                 4           4
                 5           5
                 6           6
                 7           7
                 8           8
                 9           9
                10          10

----------------------------------------------------------------------------------------



 KPOINTS: auto                                    

Automatic generation of k-mesh.
 Grid dimensions read from file:
 generate k-points for:    1    1    1

 Generating k-lattice:

  Cartesian coordinates                     Fractional coordinates (reciprocal lattice)
     0.045454545  0.000000000  0.000000000     1.000000000  0.000000000  0.000000000
     0.000000000  0.045454545  0.000000000     0.000000000  1.000000000  0.000000000
     0.000000000  0.000000000  0.045454545     0.000000000  0.000000000  1.000000000

  Length of vectors
     0.045454545  0.045454545  0.045454545

  Shift w.r.t. Gamma in fractional coordinates (k-lattice)
     0.000000000  0.000000000  0.000000000

 
 Subroutine IBZKPT returns following result:
 ===========================================
 
 Found      1 irreducible k-points:
 
 Following reciprocal coordinates:
            Coordinates               Weight
  0.000000  0.000000  0.000000      1.000000
 
 Following cartesian coordinates:
            Coordinates               Weight
  0.000000  0.000000  0.000000      1.000000
 


--------------------------------------------------------------------------------------------------------




 Dimension of arrays:
   k-points           NKPTS =      1   k-points in BZ     NKDIM =      1   number of bands    NBANDS=    256
   number of dos      NEDOS =    301   number of ions     NIONS =     10
   non local maximal  LDIM  =      4   non local SUM 2l+1 LMDIM =      8
   total plane-waves  NPLWV = ******
   max r-space proj   IRMAX =      1   max aug-charges    IRDMAX=   9419
   dimension x,y,z NGX =   240 NGY =  240 NGZ =  240
   dimension x,y,z NGXF=   480 NGYF=  480 NGZF=  480
   support grid    NGXF=   480 NGYF=  480 NGZF=  480
   ions per type =               4   4   2
   NGX,Y,Z   is equivalent  to a cutoff of  18.14, 18.14, 18.14 a.u.
   NGXF,Y,Z  is equivalent  to a cutoff of  36.27, 36.27, 36.27 a.u.

 SYSTEM =  unknown system                          
 POSCAR =   C  H  N                                

 Startparameter for this run:
   NWRITE =      2    write-flag & timer
   PREC   = accura    normal or accurate (medium, high low for compatibility)
   ISTART =      0    job   : 0-new  1-cont  2-samecut
   ICHARG =      2    charge: 1-file 2-atom 10-const
   ISPIN  =      1    spin polarized calculation?
   LNONCOLLINEAR =      F non collinear calculations
   LSORBIT =      F    spin-orbit coupling
   INIWAV =      1    electr: 0-lowe 1-rand  2-diag
   LASPH  =      F    aspherical Exc in radial PAW
 Electronic Relaxation 1
   ENCUT  = 1000.0 eV  73.50 Ry    8.57 a.u.  56.73 56.73 56.73*2*pi/ulx,y,z
   ENINI  = 1000.0     initial cutoff
   ENAUG  = 1000.0 eV  augmentation charge cutoff
   NELM   =     60;   NELMIN=  2; NELMDL= -5     # of ELM steps 
   EDIFF  = 0.1E-06   stopping-criterion for ELM
   LREAL  =      F    real-space projection
   NLSPLINE    = F    spline interpolate recip. space projectors
   LCOMPAT=      F    compatible to vasp.4.4
   GGA_COMPAT  = T    GGA compatible to vasp.4.4-vasp.4.6
   LMAXPAW     = -100 max onsite density
   LMAXMIX     =    2 max onsite mixed and CHGCAR
   VOSKOWN=      0    Vosko Wilk Nusair interpolation
   ROPT   =    0.00000   0.00000   0.00000
 Ionic relaxation
   EDIFFG = 0.1E-05   stopping-criterion for IOM
   NSW    =      0    number of steps for IOM
   NBLOCK =      1;   KBLOCK =      1    inner block; outer block 
   IBRION =     -1    ionic relax: 0-MD 1-quasi-New 2-CG
   NFREE  =      0    steps in history (QN), initial steepest desc. (CG)
   ISIF   =      0    stress and relaxation
   IWAVPR =     10    prediction:  0-non 1-charg 2-wave 3-comb
   ISYM   =      2    0-nonsym 1-usesym 2-fastsym
   LCORR  =      T    Harris-Foulkes like correction to forces

   POTIM  = 0.5000    time-step for ionic-motion
   TEIN   =    0.0    initial temperature
   TEBEG  =    0.0;   TEEND  =   0.0 temperature during run
   SMASS  =  -3.00    Nose mass-parameter (am)
   estimated Nose-frequenzy (Omega)   =  0.10E-29 period in steps = 0.13E+47 mass=  -0.111E-25a.u.
   SCALEE = 1.0000    scale energy and forces
   NPACO  =    256;   APACO  = 10.0  distance and # of slots for P.C.
   PSTRESS=    0.0 pullay stress

  Mass of Ions in am
   POMASS =  12.01  1.00 14.00
  Ionic Valenz
   ZVAL   =   4.00  1.00  5.00
  Atomic Wigner-Seitz radii
   RWIGS  =  -1.00 -1.00 -1.00
  virtual crystal weights 
   VCA    =   1.00  1.00  1.00
   NELECT =      30.0000    total number of electrons
   NUPDOWN=      -1.0000    fix difference up-down

 DOS related values:
   EMIN   =  10.00;   EMAX   =-10.00  energy-range for DOS
   EFERMI =   0.00;   METHOD = LEGACY      
   ISMEAR =     0;   SIGMA  =   0.01  broadening in eV -4-tet -1-fermi 0-gaus

 Electronic relaxation 2 (details)
   IALGO  =     58    algorithm
   LDIAG  =      T    sub-space diagonalisation (order eigenvalues)
   LSUBROT=      F    optimize rotation matrix (better conditioning)
   TURBO    =      0    0=normal 1=particle mesh
   IRESTART =      0    0=no restart 2=restart with 2 vectors
   NREBOOT  =      0    no. of reboots
   NMIN     =      0    reboot dimension
   EREF     =   0.00    reference energy to select bands
   IMIX   =      4    mixing-type and parameters
     AMIX     =   0.40;   BMIX     =  1.00
     AMIX_MAG =   1.60;   BMIX_MAG =  1.00
     AMIN     =   0.10
     WC   =   100.;   INIMIX=   1;  MIXPRE=   1;  MAXMIX= -45

 Intra band minimization:
   WEIMIN = 0.0000     energy-eigenvalue tresh-hold
   EBREAK =  0.98E-10  absolut break condition
   DEPER  =   0.30     relativ break condition  

   TIME   =   0.40     timestep for ELM

  volume/ion in A,a.u.               =    1064.80      7185.63
  Fermi-wavevector in a.u.,A,eV,Ry     =   0.231220  0.436943  0.727406  0.053463
  Thomas-Fermi vector in A             =   1.025338

 Write flags
   LWAVE        =      F    write WAVECAR
   LDOWNSAMPLE  =      F    k-point downsampling of WAVECAR
   LCHARG       =      F    write CHGCAR
   LVTOT        =      F    write LOCPOT, total local potential
   LVHAR        =      F    write LOCPOT, Hartree potential only
   LELF         =      F    write electronic localiz. function (ELF)
   LORBIT       =      0    0 simple, 1 ext, 2 COOP (PROOUT), +10 PAW based schemes


 Dipole corrections
   LMONO  =      F    monopole corrections only (constant potential shift)
   LDIPOL =      F    correct potential (dipole corrections)
   IDIPOL =      0    1-x, 2-y, 3-z, 4-all directions 
   EPSILON=  1.0000000 bulk dielectric constant

 Exchange correlation treatment:
   GGA     =    B5    GGA type
   LEXCH   =    12    internal setting for exchange type
   LIBXC   =     F    Libxc                    
   VOSKOWN =     0    Vosko Wilk Nusair interpolation
   LHFCALC =     F    Hartree Fock is set to
   LHFONE  =     F    Hartree Fock one center treatment
   AEXX    =    0.0000 exact exchange contribution

 Linear response parameters
   LEPSILON=     F    determine dielectric tensor
   LRPA    =     F    only Hartree local field effects (RPA)
   LNABLA  =     F    use nabla operator in PAW spheres
   LVEL    =     F    velocity operator in full k-point grid
   CSHIFT  =0.1000    complex shift for real part using Kramers Kronig
   OMEGAMAX=  -1.0    maximum frequency
   DEG_THRESHOLD= 0.2000000E-02 threshold for treating states as degnerate
   RTIME   =   -0.100 relaxation time in fs
  (WPLASMAI=    0.000 imaginary part of plasma frequency in eV, 0.658/RTIME)
   DFIELD  = 0.0000000 0.0000000 0.0000000 field for delta impulse in time

  Optional k-point grid parameters
   LKPOINTS_OPT  =     F    use optional k-point grid
   KPOINTS_OPT_MODE=     1    mode for optional k-point grid

 Orbital magnetization related:
   ORBITALMAG=     F  switch on orbital magnetization
   LCHIMAG   =     F  perturbation theory with respect to B field
   DQ        =  0.001000  dq finite difference perturbation B field
   LLRAUG    =     F  two centre corrections for induced B field
   LBONE     =     F  B-component reconstruction in AE one-centre
   LVGVCALC  =     T  calculate vGv susceptibility
   LVGVAPPL  =     F  apply vGv susceptibility instead of pGv for G=0

 Random number generation:
   RANDOM_GENERATOR = DEFAULT
   PCG_SEED         = not used


--------------------------------------------------------------------------------------------------------


 Static calculation
 charge density and potential will be updated during run
 non-spin polarized calculation
 Conjugate gradient for all bands (Freysoldt, et al. PRB 79, 241103 (2009))
 preconditioned conjugated gradient                                        
 perform sub-space diagonalisation
    before iterative eigenvector-optimisation
 modified Broyden-mixing scheme, WC =      100.0
 initial mixing is a Kerker type mixing with AMIX =  0.4000 and BMIX =      1.0000
 Hartree-type preconditioning will be used
 using additional bands          241
 reciprocal scheme for non local part
 use partial core corrections
 no Harris-corrections to forces 
 use gradient corrections 
 use of overlap-Matrix (Vanderbilt PP)
 Gauss-broadening in eV      SIGMA  =   0.01


--------------------------------------------------------------------------------------------------------


  energy-cutoff  :     1000.00
  volume of cell :    10648.00
      direct lattice vectors                 reciprocal lattice vectors
    22.000000000  0.000000000  0.000000000     0.045454545  0.000000000  0.000000000
     0.000000000 22.000000000  0.000000000     0.000000000  0.045454545  0.000000000
     0.000000000  0.000000000 22.000000000     0.000000000  0.000000000  0.045454545

  length of vectors
    22.000000000 22.000000000 22.000000000     0.045454545  0.045454545  0.045454545



 k-points in units of 2pi/SCALE and weight: auto                                    
   0.00000000  0.00000000  0.00000000       1.000

 k-points in reciprocal lattice and weights: auto                                    
   0.00000000  0.00000000  0.00000000       1.000

 position of ions in fractional coordinates (direct lattice) 
   0.53170659  0.45234091  0.51965682
   0.46829114  0.45234045  0.51966000
   0.46829341  0.54765773  0.48034364
   0.53171114  0.54766091  0.48034636
   0.55714068  0.41301136  0.53586909
   0.44288250  0.41300455  0.53587773
   0.44288250  0.58699545  0.46412227
   0.55713977  0.58698727  0.46412636
   0.56400295  0.50000045  0.50000955
   0.43599705  0.50000136  0.50000864

 position of ions in cartesian coordinates  (Angst):
  11.69754500  9.95150000 11.43245000
  10.30240500  9.95149000 11.43252000
  10.30245500 12.04847000 10.56756000
  11.69764500 12.04854000 10.56762000
  12.25709500  9.08625000 11.78912000
   9.74341500  9.08610000 11.78931000
   9.74341500 12.91390000 10.21069000
  12.25707500 12.91372000 10.21078000
  12.40806500 11.00001000 11.00021000
   9.59193500 11.00003000 11.00019000



--------------------------------------------------------------------------------------------------------


 use parallel FFT for orbitals z direction half grid
 k-point   1 :   0.0000 0.0000 0.0000  plane waves:  381993

 maximum and minimum number of plane-waves per node :    191003   190990

 maximum number of plane-waves:    381993
 maximum index in each direction: 
   IXMAX=   56   IYMAX=   56   IZMAX=   56
   IXMIN=  -56   IYMIN=  -56   IZMIN=    0


 parallel 3D FFT for wavefunctions:
    minimum data exchange during FFTs selected (reduces bandwidth)
 parallel 3D FFT for charge:
    minimum data exchange during FFTs selected (reduces bandwidth)


 total amount of memory used by VASP MPI-rank0   550012. kBytes
=======================================================================

   base      :      30000. kBytes
   nonl-proj :      67313. kBytes
   fftplans  :     151777. kBytes
   grid      :     291732. kBytes
   one-center:          7. kBytes
   wavefun   :       9183. kBytes

     INWAV:  cpu time      0.0001: real time      0.0001
 Broyden mixing: mesh for mixing (old mesh)
   NGX =113   NGY =113   NGZ =113
  (NGX  =480   NGY  =480   NGZ  =480)
  gives a total of ****** points

 initial charge density was supplied:
 charge density of overlapping atoms calculated
 number of electron      30.0000000 magnetization 
 keeping initial charge density in first step


--------------------------------------------------------------------------------------------------------


 Maximum index for augmentation-charges            0 (set IRDMAX)


--------------------------------------------------------------------------------------------------------


 First call to EWALD:  gamma=   0.081
 Maximum number of real-space cells 3x 3x 3
 Maximum number of reciprocal cells 3x 3x 3

    FEWALD:  cpu time      0.0050: real time      0.0052


--------------------------------------- Ionic step        1  -------------------------------------------




--------------------------------------- Iteration      1(   1)  ---------------------------------------


    POTLOK:  cpu time      0.9333: real time      0.9348
    SETDIJ:  cpu time      0.0140: real time      0.0144
    TRIAL :  cpu time      5.5495: real time      5.5536
    CORREC:  cpu time      0.0028: real time      0.0028
    --------------------------------------------
      LOOP:  cpu time      6.5100: real time      6.5163

 eigenvalue-minimisations  :   512
 total energy-change (2. order) : 0.3319066E+03  (-0.1376010E+04)
 number of electron      30.0000000 magnetization 
 augmentation part       30.0000000 magnetization 

 Free energy of the ion-electron system (eV)
  ---------------------------------------------------
  alpha Z        PSCENC =         0.26547520
  Ewald energy   TEWEN  =      2045.38593121
  -Hartree energ DENC   =     -2857.63293210
  -exchange      EXHF   =         0.00000000
  -V(xc)+E(xc)   XCENC  =        66.30418355
  PAW double counting   =       878.45974131     -855.22294709
  entropy T*S    EENTRO =        -0.00004133
  eigenvalues    EBANDS =      -114.59663898
  atomic energy  EATOM  =      1168.94387090
  ---------------------------------------------------
  free energy    TOTEN  =       331.90664267 eV

  energy without entropy =      331.90668400  energy(sigma->0) =      331.90666333


--------------------------------------------------------------------------------------------------------




--------------------------------------- Iteration      1(   2)  ---------------------------------------


    TRIAL :  cpu time     14.5729: real time     14.5809
    CORREC:  cpu time      0.0002: real time      0.0002
    --------------------------------------------
      LOOP:  cpu time     14.5906: real time     14.6120

 eigenvalue-minimisations  :  1024
 total energy-change (2. order) :-0.3939290E+03  (-0.3939245E+03)
 number of electron      30.0000000 magnetization 
 augmentation part       30.0000000 magnetization 

 Free energy of the ion-electron system (eV)
  ---------------------------------------------------
  alpha Z        PSCENC =         0.26547520
  Ewald energy   TEWEN  =      2045.38593121
  -Hartree energ DENC   =     -2857.63293210
  -exchange      EXHF   =         0.00000000
  -V(xc)+E(xc)   XCENC  =        66.30418355
  PAW double counting   =       878.45974131     -855.22294709
  entropy T*S    EENTRO =        -0.00000000
  eigenvalues    EBANDS =      -508.52567147
  atomic energy  EATOM  =      1168.94387090
  ---------------------------------------------------
  free energy    TOTEN  =       -62.02234848 eV

  energy without entropy =      -62.02234848  energy(sigma->0) =      -62.02234848


--------------------------------------------------------------------------------------------------------




--------------------------------------- Iteration      1(   3)  ---------------------------------------


    TRIAL :  cpu time      5.6960: real time      5.6989
    CORREC:  cpu time      0.0002: real time      0.0002
    --------------------------------------------
      LOOP:  cpu time      5.7179: real time      5.7369

 eigenvalue-minimisations  :   512
 total energy-change (2. order) :-0.7665805E+01  (-0.7665805E+01)
 number of electron      30.0000000 magnetization 
 augmentation part       30.0000000 magnetization 

 Free energy of the ion-electron system (eV)
  ---------------------------------------------------
  alpha Z        PSCENC =         0.26547520
  Ewald energy   TEWEN  =      2045.38593121
  -Hartree energ DENC   =     -2857.63293210
  -exchange      EXHF   =         0.00000000
  -V(xc)+E(xc)   XCENC  =        66.30418355
  PAW double counting   =       878.45974131     -855.22294709
  entropy T*S    EENTRO =        -0.00000000
  eigenvalues    EBANDS =      -516.19147604
  atomic energy  EATOM  =      1168.94387090
  ---------------------------------------------------
  free energy    TOTEN  =       -69.68815305 eV

  energy without entropy =      -69.68815305  energy(sigma->0) =      -69.68815305


--------------------------------------------------------------------------------------------------------




--------------------------------------- Iteration      1(   4)  ---------------------------------------


    TRIAL :  cpu time     14.3245: real time     14.3318
    CORREC:  cpu time      0.0002: real time      0.0002
    --------------------------------------------
      LOOP:  cpu time     14.3390: real time     14.3654

 eigenvalue-minimisations  :  1024
 total energy-change (2. order) :-0.8382351E-01  (-0.8382350E-01)
 number of electron      30.0000000 magnetization 
 augmentation part       30.0000000 magnetization 

 Free energy of the ion-electron system (eV)
  ---------------------------------------------------
  alpha Z        PSCENC =         0.26547520
  Ewald energy   TEWEN  =      2045.38593121
  -Hartree energ DENC   =     -2857.63293210
  -exchange      EXHF   =         0.00000000
  -V(xc)+E(xc)   XCENC  =        66.30418355
  PAW double counting   =       878.45974131     -855.22294709
  entropy T*S    EENTRO =        -0.00000000
  eigenvalues    EBANDS =      -516.27529955
  atomic energy  EATOM  =      1168.94387090
  ---------------------------------------------------
  free energy    TOTEN  =       -69.77197657 eV

  energy without entropy =      -69.77197657  energy(sigma->0) =      -69.77197657


--------------------------------------------------------------------------------------------------------




--------------------------------------- Iteration      1(   5)  ---------------------------------------


    TRIAL :  cpu time      5.6693: real time      5.6724
    CORREC:  cpu time      0.0002: real time      0.0002
    CHARGE:  cpu time      1.4106: real time      1.4128
    --------------------------------------------
      LOOP:  cpu time      7.0954: real time      7.1177

 eigenvalue-minimisations  :   512
 total energy-change (2. order) :-0.4453927E-05  (-0.4448380E-05)
 number of electron      30.0000000 magnetization 
 augmentation part       -0.0591733 magnetization 

 Free energy of the ion-electron system (eV)
  ---------------------------------------------------
  alpha Z        PSCENC =         0.26547520
  Ewald energy   TEWEN  =      2045.38593121
  -Hartree energ DENC   =     -2857.63293210
  -exchange      EXHF   =         0.00000000
  -V(xc)+E(xc)   XCENC  =        66.30418355
  PAW double counting   =       878.45974131     -855.22294709
  entropy T*S    EENTRO =        -0.00000000
  eigenvalues    EBANDS =      -516.27530400
  atomic energy  EATOM  =      1168.94387090
  ---------------------------------------------------
  free energy    TOTEN  =       -69.77198102 eV

  energy without entropy =      -69.77198102  energy(sigma->0) =      -69.77198102


--------------------------------------------------------------------------------------------------------




--------------------------------------- Iteration      1(   6)  ---------------------------------------


    POTLOK:  cpu time      0.5045: real time      0.5052
    SETDIJ:  cpu time      0.0040: real time      0.0040
    TRIAL :  cpu time      2.7538: real time      2.7571
    CORREC:  cpu time      2.5924: real time      2.5943
    CHARGE:  cpu time      1.3854: real time      1.3857
    --------------------------------------------
      LOOP:  cpu time      7.2591: real time      7.2776

 eigenvalue-minimisations  :     0
 total energy-change (2. order) : 0.1093982E+02  (-0.3859638E+01)
 number of electron      30.0000000 magnetization 
 augmentation part       -0.0746442 magnetization 

 Free energy of the ion-electron system (eV)
  ---------------------------------------------------
  alpha Z        PSCENC =         0.26547520
  Ewald energy   TEWEN  =      2045.38593121
  -Hartree energ DENC   =     -3102.27748470
  -exchange      EXHF   =         0.00000000
  -V(xc)+E(xc)   XCENC  =        76.67510872
  PAW double counting   =      7162.41259128    -7140.78228970
  entropy T*S    EENTRO =        -0.00000000
  eigenvalues    EBANDS =      -269.45536818
  atomic energy  EATOM  =      1168.94387090
  ---------------------------------------------------
  free energy    TOTEN  =       -58.83216528 eV

  energy without entropy =      -58.83216528  energy(sigma->0) =      -58.83216528


--------------------------------------------------------------------------------------------------------




--------------------------------------- Iteration      1(   7)  ---------------------------------------


    POTLOK:  cpu time      0.4915: real time      0.4917
    SETDIJ:  cpu time      0.0041: real time      0.0041
    TRIAL :  cpu time      2.6235: real time      2.6250
    CORREC:  cpu time      2.5931: real time      2.5943
    CHARGE:  cpu time      1.3838: real time      1.3842
    --------------------------------------------
      LOOP:  cpu time      7.1656: real time      7.1692

 eigenvalue-minimisations  :     0
 total energy-change (2. order) :-0.3870227E+01  (-0.6039333E+00)
 number of electron      30.0000000 magnetization 
 augmentation part       -0.0869517 magnetization 

 Free energy of the ion-electron system (eV)
  ---------------------------------------------------
  alpha Z        PSCENC =         0.26547520
  Ewald energy   TEWEN  =      2045.38593121
  -Hartree energ DENC   =     -3007.55407369
  -exchange      EXHF   =         0.00000000
  -V(xc)+E(xc)   XCENC  =        73.04906489
  PAW double counting   =      9475.19845580    -9452.88841062
  entropy T*S    EENTRO =        -0.00000000
  eigenvalues    EBANDS =      -365.10270621
  atomic energy  EATOM  =      1168.94387090
  ---------------------------------------------------
  free energy    TOTEN  =       -62.70239252 eV

  energy without entropy =      -62.70239252  energy(sigma->0) =      -62.70239252


--------------------------------------------------------------------------------------------------------




--------------------------------------- Iteration      1(   8)  ---------------------------------------


    POTLOK:  cpu time      0.4838: real time      0.4842
    SETDIJ:  cpu time      0.0040: real time      0.0040
    TRIAL :  cpu time      2.6202: real time      2.6214
    CORREC:  cpu time      2.5724: real time      2.5740
    CHARGE:  cpu time      1.3786: real time      1.3790
    --------------------------------------------
      LOOP:  cpu time      7.0797: real time      7.0929

 eigenvalue-minimisations  :     0
 total energy-change (2. order) :-0.6064797E+00  (-0.3196786E+00)
 number of electron      30.0000000 magnetization 
 augmentation part       -0.0860085 magnetization 

 Free energy of the ion-electron system (eV)
  ---------------------------------------------------
  alpha Z        PSCENC =         0.26547520
  Ewald energy   TEWEN  =      2045.38593121
  -Hartree energ DENC   =     -2998.83069633
  -exchange      EXHF   =         0.00000000
  -V(xc)+E(xc)   XCENC  =        72.74516026
  PAW double counting   =     10282.32672296   -10259.89620650
  entropy T*S    EENTRO =        -0.00000000
  eigenvalues    EBANDS =      -374.24912993
  atomic energy  EATOM  =      1168.94387090
  ---------------------------------------------------
  free energy    TOTEN  =       -63.30887223 eV

  energy without entropy =      -63.30887223  energy(sigma->0) =      -63.30887223


--------------------------------------------------------------------------------------------------------




--------------------------------------- Iteration      1(   9)  ---------------------------------------


    POTLOK:  cpu time      0.4903: real time      0.4907
    SETDIJ:  cpu time      0.0042: real time      0.0042
    TRIAL :  cpu time      2.6212: real time      2.6227
    CORREC:  cpu time      2.5761: real time      2.5770
    CHARGE:  cpu time      1.3930: real time      1.3936
    --------------------------------------------
      LOOP:  cpu time      7.0996: real time      7.1241

 eigenvalue-minimisations  :     0
 total energy-change (2. order) :-0.3126831E+00  (-0.1064845E+00)
 number of electron      30.0000000 magnetization 
 augmentation part       -0.0849416 magnetization 

 Free energy of the ion-electron system (eV)
  ---------------------------------------------------
  alpha Z        PSCENC =         0.26547520
  Ewald energy   TEWEN  =      2045.38593121
  -Hartree energ DENC   =     -2988.55537603
  -exchange      EXHF   =         0.00000000
  -V(xc)+E(xc)   XCENC  =        72.38462626
  PAW double counting   =     10569.63900261   -10547.14411228
  entropy T*S    EENTRO =        -0.00000000
  eigenvalues    EBANDS =      -384.54097324
  atomic energy  EATOM  =      1168.94387090
  ---------------------------------------------------
  free energy    TOTEN  =       -63.62155536 eV

  energy without entropy =      -63.62155536  energy(sigma->0) =      -63.62155536


--------------------------------------------------------------------------------------------------------




--------------------------------------- Iteration      1(  10)  ---------------------------------------


    POTLOK:  cpu time      0.4971: real time      0.4971
    SETDIJ:  cpu time      0.0040: real time      0.0040
    TRIAL :  cpu time      2.6217: real time      2.6236
    CORREC:  cpu time      2.5715: real time      2.5723
    CHARGE:  cpu time      1.3781: real time      1.3788
    --------------------------------------------
      LOOP:  cpu time      7.0863: real time      7.1067

 eigenvalue-minimisations  :     0
 total energy-change (2. order) :-0.1056153E+00  (-0.2769603E-01)
 number of electron      30.0000000 magnetization 
 augmentation part       -0.0843949 magnetization 

 Free energy of the ion-electron system (eV)
  ---------------------------------------------------
  alpha Z        PSCENC =         0.26547520
  Ewald energy   TEWEN  =      2045.38593121
  -Hartree energ DENC   =     -2982.64537387
  -exchange      EXHF   =         0.00000000
  -V(xc)+E(xc)   XCENC  =        72.22220503
  PAW double counting   =     10253.31332606   -10230.82575647
  entropy T*S    EENTRO =        -0.00000000
  eigenvalues    EBANDS =      -390.38684871
  atomic energy  EATOM  =      1168.94387090
  ---------------------------------------------------
  free energy    TOTEN  =       -63.72717065 eV

  energy without entropy =      -63.72717065  energy(sigma->0) =      -63.72717065


--------------------------------------------------------------------------------------------------------




--------------------------------------- Iteration      1(  11)  ---------------------------------------


    POTLOK:  cpu time      0.4944: real time      0.4944
    SETDIJ:  cpu time      0.0040: real time      0.0040
    TRIAL :  cpu time      2.6171: real time      2.6189
    CORREC:  cpu time      2.5910: real time      2.5918
    CHARGE:  cpu time      1.3780: real time      1.3791
    --------------------------------------------
      LOOP:  cpu time      7.0978: real time      7.1184

 eigenvalue-minimisations  :     0
 total energy-change (2. order) :-0.2770252E-01  (-0.7801586E-02)
 number of electron      30.0000000 magnetization 
 augmentation part       -0.0838206 magnetization 

 Free energy of the ion-electron system (eV)
  ---------------------------------------------------
  alpha Z        PSCENC =         0.26547520
  Ewald energy   TEWEN  =      2045.38593121
  -Hartree energ DENC   =     -2982.34802216
  -exchange      EXHF   =         0.00000000
  -V(xc)+E(xc)   XCENC  =        72.22815542
  PAW double counting   =      9930.50404500    -9908.04510511
  entropy T*S    EENTRO =        -0.00000000
  eigenvalues    EBANDS =      -390.68922362
  atomic energy  EATOM  =      1168.94387090
  ---------------------------------------------------
  free energy    TOTEN  =       -63.75487317 eV

  energy without entropy =      -63.75487317  energy(sigma->0) =      -63.75487317


--------------------------------------------------------------------------------------------------------




--------------------------------------- Iteration      1(  12)  ---------------------------------------


    POTLOK:  cpu time      0.5140: real time      0.5140
    SETDIJ:  cpu time      0.0041: real time      0.0041
    TRIAL :  cpu time      2.6303: real time      2.6323
    CORREC:  cpu time      2.5901: real time      2.5911
    CHARGE:  cpu time      1.3826: real time      1.3829
    --------------------------------------------
      LOOP:  cpu time      7.1364: real time      7.1556

 eigenvalue-minimisations  :     0
 total energy-change (2. order) :-0.7817858E-02  (-0.2696956E-02)
 number of electron      30.0000000 magnetization 
 augmentation part       -0.0838280 magnetization 

 Free energy of the ion-electron system (eV)
  ---------------------------------------------------
  alpha Z        PSCENC =         0.26547520
  Ewald energy   TEWEN  =      2045.38593121
  -Hartree energ DENC   =     -2982.66279721
  -exchange      EXHF   =         0.00000000
  -V(xc)+E(xc)   XCENC  =        72.22973758
  PAW double counting   =      9787.05282287    -9764.60798148
  entropy T*S    EENTRO =        -0.00000000
  eigenvalues    EBANDS =      -390.36975010
  atomic energy  EATOM  =      1168.94387090
  ---------------------------------------------------
  free energy    TOTEN  =       -63.76269103 eV

  energy without entropy =      -63.76269103  energy(sigma->0) =      -63.76269103


--------------------------------------------------------------------------------------------------------




--------------------------------------- Iteration      1(  13)  ---------------------------------------


    POTLOK:  cpu time      0.4913: real time      0.4913
    SETDIJ:  cpu time      0.0040: real time      0.0040
    TRIAL :  cpu time      2.6201: real time      2.6215
    CORREC:  cpu time      2.5843: real time      2.5861
    CHARGE:  cpu time      1.3778: real time      1.3782
    --------------------------------------------
      LOOP:  cpu time      7.0921: real time      7.1113

 eigenvalue-minimisations  :     0
 total energy-change (2. order) :-0.2698812E-02  (-0.1026787E-02)
 number of electron      30.0000000 magnetization 
 augmentation part       -0.0840433 magnetization 

 Free energy of the ion-electron system (eV)
  ---------------------------------------------------
  alpha Z        PSCENC =         0.26547520
  Ewald energy   TEWEN  =      2045.38593121
  -Hartree energ DENC   =     -2982.93554822
  -exchange      EXHF   =         0.00000000
  -V(xc)+E(xc)   XCENC  =        72.23044422
  PAW double counting   =      9757.33798938    -9734.89679635
  entropy T*S    EENTRO =        -0.00000000
  eigenvalues    EBANDS =      -390.09675617
  atomic energy  EATOM  =      1168.94387090
  ---------------------------------------------------
  free energy    TOTEN  =       -63.76538984 eV

  energy without entropy =      -63.76538984  energy(sigma->0) =      -63.76538984


--------------------------------------------------------------------------------------------------------




--------------------------------------- Iteration      1(  14)  ---------------------------------------


    POTLOK:  cpu time      0.4882: real time      0.4888
    SETDIJ:  cpu time      0.0040: real time      0.0040
    TRIAL :  cpu time      2.6353: real time      2.6369
    CORREC:  cpu time      2.5693: real time      2.5708
    CHARGE:  cpu time      1.3829: real time      1.3832
    --------------------------------------------
      LOOP:  cpu time      7.0953: real time      7.1141

 eigenvalue-minimisations  :     0
 total energy-change (2. order) :-0.1022467E-02  (-0.3343457E-03)
 number of electron      30.0000000 magnetization 
 augmentation part       -0.0841528 magnetization 

 Free energy of the ion-electron system (eV)
  ---------------------------------------------------
  alpha Z        PSCENC =         0.26547520
  Ewald energy   TEWEN  =      2045.38593121
  -Hartree energ DENC   =     -2983.40435208
  -exchange      EXHF   =         0.00000000
  -V(xc)+E(xc)   XCENC  =        72.24205457
  PAW double counting   =      9774.97704302    -9752.53600627
  entropy T*S    EENTRO =        -0.00000000
  eigenvalues    EBANDS =      -389.64042886
  atomic energy  EATOM  =      1168.94387090
  ---------------------------------------------------
  free energy    TOTEN  =       -63.76641231 eV

  energy without entropy =      -63.76641231  energy(sigma->0) =      -63.76641231


--------------------------------------------------------------------------------------------------------




--------------------------------------- Iteration      1(  15)  ---------------------------------------


    POTLOK:  cpu time      0.4842: real time      0.4848
    SETDIJ:  cpu time      0.0040: real time      0.0040
    TRIAL :  cpu time      2.6237: real time      2.6253
    CORREC:  cpu time      2.5681: real time      2.5695
    CHARGE:  cpu time      1.3815: real time      1.3819
    --------------------------------------------
      LOOP:  cpu time      7.0915: real time      7.0958

 eigenvalue-minimisations  :     0
 total energy-change (2. order) :-0.3355605E-03  (-0.9709074E-04)
 number of electron      30.0000000 magnetization 
 augmentation part       -0.0841722 magnetization 

 Free energy of the ion-electron system (eV)
  ---------------------------------------------------
  alpha Z        PSCENC =         0.26547520
  Ewald energy   TEWEN  =      2045.38593121
  -Hartree energ DENC   =     -2983.64937656
  -exchange      EXHF   =         0.00000000
  -V(xc)+E(xc)   XCENC  =        72.24909835
  PAW double counting   =      9794.72053128    -9772.27836345
  entropy T*S    EENTRO =        -0.00000000
  eigenvalues    EBANDS =      -389.40391480
  atomic energy  EATOM  =      1168.94387090
  ---------------------------------------------------
  free energy    TOTEN  =       -63.76674787 eV

  energy without entropy =      -63.76674787  energy(sigma->0) =      -63.76674787


--------------------------------------------------------------------------------------------------------




--------------------------------------- Iteration      1(  16)  ---------------------------------------


    POTLOK:  cpu time      0.4915: real time      0.4919
    SETDIJ:  cpu time      0.0040: real time      0.0040
    TRIAL :  cpu time      2.6206: real time      2.6220
    CORREC:  cpu time      2.5690: real time      2.5703
    CHARGE:  cpu time      1.3908: real time      1.3913
    --------------------------------------------
      LOOP:  cpu time      7.0900: real time      7.1100

 eigenvalue-minimisations  :     0
 total energy-change (2. order) :-0.9793725E-04  (-0.2402877E-04)
 number of electron      30.0000000 magnetization 
 augmentation part       -0.0841614 magnetization 

 Free energy of the ion-electron system (eV)
  ---------------------------------------------------
  alpha Z        PSCENC =         0.26547520
  Ewald energy   TEWEN  =      2045.38593121
  -Hartree energ DENC   =     -2983.69717606
  -exchange      EXHF   =         0.00000000
  -V(xc)+E(xc)   XCENC  =        72.25138416
  PAW double counting   =      9802.72328482    -9780.28021119
  entropy T*S    EENTRO =        -0.00000000
  eigenvalues    EBANDS =      -389.35940485
  atomic energy  EATOM  =      1168.94387090
  ---------------------------------------------------
  free energy    TOTEN  =       -63.76684581 eV

  energy without entropy =      -63.76684581  energy(sigma->0) =      -63.76684581


--------------------------------------------------------------------------------------------------------




--------------------------------------- Iteration      1(  17)  ---------------------------------------


    POTLOK:  cpu time      0.4823: real time      0.4826
    SETDIJ:  cpu time      0.0040: real time      0.0040
    TRIAL :  cpu time      2.6202: real time      2.6220
    CORREC:  cpu time      2.5745: real time      2.5758
    CHARGE:  cpu time      1.3889: real time      1.3894
    --------------------------------------------
      LOOP:  cpu time      7.0829: real time      7.1039

 eigenvalue-minimisations  :     0
 total energy-change (2. order) :-0.2490954E-04  (-0.7297976E-05)
 number of electron      30.0000000 magnetization 
 augmentation part       -0.0841526 magnetization 

 Free energy of the ion-electron system (eV)
  ---------------------------------------------------
  alpha Z        PSCENC =         0.26547520
  Ewald energy   TEWEN  =      2045.38593121
  -Hartree energ DENC   =     -2983.71649182
  -exchange      EXHF   =         0.00000000
  -V(xc)+E(xc)   XCENC  =        72.25242710
  PAW double counting   =      9803.71813912    -9781.27486482
  entropy T*S    EENTRO =        -0.00000000
  eigenvalues    EBANDS =      -389.34135761
  atomic energy  EATOM  =      1168.94387090
  ---------------------------------------------------
  free energy    TOTEN  =       -63.76687072 eV

  energy without entropy =      -63.76687072  energy(sigma->0) =      -63.76687072


--------------------------------------------------------------------------------------------------------




--------------------------------------- Iteration      1(  18)  ---------------------------------------


    POTLOK:  cpu time      0.4851: real time      0.4852
    SETDIJ:  cpu time      0.0041: real time      0.0041
    TRIAL :  cpu time      2.6188: real time      2.6206
    CORREC:  cpu time      2.5607: real time      2.5617
    CHARGE:  cpu time      1.3785: real time      1.3791
    --------------------------------------------
      LOOP:  cpu time      7.0629: real time      7.0811

 eigenvalue-minimisations  :     0
 total energy-change (2. order) :-0.7215031E-05  (-0.3101830E-05)
 number of electron      30.0000000 magnetization 
 augmentation part       -0.0841477 magnetization 

 Free energy of the ion-electron system (eV)
  ---------------------------------------------------
  alpha Z        PSCENC =         0.26547520
  Ewald energy   TEWEN  =      2045.38593121
  -Hartree energ DENC   =     -2983.71114769
  -exchange      EXHF   =         0.00000000
  -V(xc)+E(xc)   XCENC  =        72.25228403
  PAW double counting   =      9803.58742623    -9781.14409428
  entropy T*S    EENTRO =        -0.00000000
  eigenvalues    EBANDS =      -389.34662352
  atomic energy  EATOM  =      1168.94387090
  ---------------------------------------------------
  free energy    TOTEN  =       -63.76687793 eV

  energy without entropy =      -63.76687793  energy(sigma->0) =      -63.76687793


--------------------------------------------------------------------------------------------------------




--------------------------------------- Iteration      1(  19)  ---------------------------------------


    POTLOK:  cpu time      0.4852: real time      0.4852
    SETDIJ:  cpu time      0.0040: real time      0.0040
    TRIAL :  cpu time      2.6379: real time      2.6397
    CORREC:  cpu time      2.5840: real time      2.5846
    CHARGE:  cpu time      1.3886: real time      1.3894
    --------------------------------------------
      LOOP:  cpu time      7.1142: real time      7.1338

 eigenvalue-minimisations  :     0
 total energy-change (2. order) :-0.2797946E-05  (-0.1466600E-05)
 number of electron      30.0000000 magnetization 
 augmentation part       -0.0841451 magnetization 

 Free energy of the ion-electron system (eV)
  ---------------------------------------------------
  alpha Z        PSCENC =         0.26547520
  Ewald energy   TEWEN  =      2045.38593121
  -Hartree energ DENC   =     -2983.69835463
  -exchange      EXHF   =         0.00000000
  -V(xc)+E(xc)   XCENC  =        72.25196183
  PAW double counting   =      9803.54589501    -9781.10252438
  entropy T*S    EENTRO =        -0.00000000
  eigenvalues    EBANDS =      -389.35913587
  atomic energy  EATOM  =      1168.94387090
  ---------------------------------------------------
  free energy    TOTEN  =       -63.76688073 eV

  energy without entropy =      -63.76688073  energy(sigma->0) =      -63.76688073


--------------------------------------------------------------------------------------------------------




--------------------------------------- Iteration      1(  20)  ---------------------------------------


    POTLOK:  cpu time      0.4845: real time      0.4845
    SETDIJ:  cpu time      0.0042: real time      0.0042
    TRIAL :  cpu time      2.6220: real time      2.6241
    CORREC:  cpu time      2.5627: real time      2.5636
    CHARGE:  cpu time      1.3742: real time      1.3751
    --------------------------------------------
      LOOP:  cpu time      7.0665: real time      7.0821

 eigenvalue-minimisations  :     0
 total energy-change (2. order) :-0.1175125E-05  (-0.7553480E-06)
 number of electron      30.0000000 magnetization 
 augmentation part       -0.0841438 magnetization 

 Free energy of the ion-electron system (eV)
  ---------------------------------------------------
  alpha Z        PSCENC =         0.26547520
  Ewald energy   TEWEN  =      2045.38593121
  -Hartree energ DENC   =     -2983.68863533
  -exchange      EXHF   =         0.00000000
  -V(xc)+E(xc)   XCENC  =        72.25169860
  PAW double counting   =      9803.65736664    -9781.21398140
  entropy T*S    EENTRO =        -0.00000000
  eigenvalues    EBANDS =      -389.36860771
  atomic energy  EATOM  =      1168.94387090
  ---------------------------------------------------
  free energy    TOTEN  =       -63.76688190 eV

  energy without entropy =      -63.76688190  energy(sigma->0) =      -63.76688190


--------------------------------------------------------------------------------------------------------




--------------------------------------- Iteration      1(  21)  ---------------------------------------


    POTLOK:  cpu time      0.4847: real time      0.4847
    SETDIJ:  cpu time      0.0040: real time      0.0040
    TRIAL :  cpu time      2.6159: real time      2.6181
    CORREC:  cpu time      2.5651: real time      2.5659
    CHARGE:  cpu time      1.3837: real time      1.3844
    --------------------------------------------
      LOOP:  cpu time      7.0705: real time      7.0879

 eigenvalue-minimisations  :     0
 total energy-change (2. order) :-0.4620761E-06  (-0.2673311E-06)
 number of electron      30.0000000 magnetization 
 augmentation part       -0.0841435 magnetization 

 Free energy of the ion-electron system (eV)
  ---------------------------------------------------
  alpha Z        PSCENC =         0.26547520
  Ewald energy   TEWEN  =      2045.38593121
  -Hartree energ DENC   =     -2983.68393182
  -exchange      EXHF   =         0.00000000
  -V(xc)+E(xc)   XCENC  =        72.25154295
  PAW double counting   =      9803.88639844    -9781.44302033
  entropy T*S    EENTRO =        -0.00000000
  eigenvalues    EBANDS =      -389.37314891
  atomic energy  EATOM  =      1168.94387090
  ---------------------------------------------------
  free energy    TOTEN  =       -63.76688237 eV

  energy without entropy =      -63.76688237  energy(sigma->0) =      -63.76688237


--------------------------------------------------------------------------------------------------------




--------------------------------------- Iteration      1(  22)  ---------------------------------------


    POTLOK:  cpu time      0.4828: real time      0.4828
    SETDIJ:  cpu time      0.0040: real time      0.0040
    TRIAL :  cpu time      2.6188: real time      2.6210
    CORREC:  cpu time      2.4630: real time      2.4637
    CHARGE:  cpu time      1.3732: real time      1.3739
    --------------------------------------------
      LOOP:  cpu time      6.9571: real time      6.9758

 eigenvalue-minimisations  :     0
 total energy-change (2. order) :-0.1451172E-06  ( 0.6262678E-06)
 number of electron      30.0000000 magnetization 
 augmentation part       -0.0841436 magnetization 

 Free energy of the ion-electron system (eV)
  ---------------------------------------------------
  alpha Z        PSCENC =         0.26547520
  Ewald energy   TEWEN  =      2045.38593121
  -Hartree energ DENC   =     -2983.68236023
  -exchange      EXHF   =         0.00000000
  -V(xc)+E(xc)   XCENC  =        72.25149557
  PAW double counting   =      9804.07247743    -9781.62910685
  entropy T*S    EENTRO =        -0.00000000
  eigenvalues    EBANDS =      -389.37466574
  atomic energy  EATOM  =      1168.94387090
  ---------------------------------------------------
  free energy    TOTEN  =       -63.76688251 eV

  energy without entropy =      -63.76688251  energy(sigma->0) =      -63.76688251


--------------------------------------------------------------------------------------------------------




--------------------------------------- Iteration      1(  23)  ---------------------------------------


    POTLOK:  cpu time      0.4843: real time      0.4843
    SETDIJ:  cpu time      0.0042: real time      0.0042
    TRIAL :  cpu time      2.6184: real time      2.6205
    CORREC:  cpu time      2.5726: real time      2.5736
    CHARGE:  cpu time      1.3759: real time      1.3764
    --------------------------------------------
      LOOP:  cpu time      7.0721: real time      7.0895

 eigenvalue-minimisations  :     0
 total energy-change (2. order) :-0.7512444E-06  (-0.7774152E-07)
 number of electron      30.0000000 magnetization 
 augmentation part       -0.0841436 magnetization 

 Free energy of the ion-electron system (eV)
  ---------------------------------------------------
  alpha Z        PSCENC =         0.26547520
  Ewald energy   TEWEN  =      2045.38593121
  -Hartree energ DENC   =     -2983.68091017
  -exchange      EXHF   =         0.00000000
  -V(xc)+E(xc)   XCENC  =        72.25157026
  PAW double counting   =      9804.42181045    -9781.97845076
  entropy T*S    EENTRO =        -0.00000000
  eigenvalues    EBANDS =      -389.37618035
  atomic energy  EATOM  =      1168.94387090
  ---------------------------------------------------
  free energy    TOTEN  =       -63.76688326 eV

  energy without entropy =      -63.76688326  energy(sigma->0) =      -63.76688326


--------------------------------------------------------------------------------------------------------




--------------------------------------- Iteration      1(  24)  ---------------------------------------


    POTLOK:  cpu time      0.4832: real time      0.4832
    SETDIJ:  cpu time      0.0041: real time      0.0041
    TRIAL :  cpu time      2.6350: real time      2.6364
    CORREC:  cpu time      2.5605: real time      2.5619
    CHARGE:  cpu time      1.3792: real time      1.3794
    --------------------------------------------
      LOOP:  cpu time      7.0795: real time      7.0952

 eigenvalue-minimisations  :     0
 total energy-change (2. order) : 0.4666108E-06  (-0.6639536E-07)
 number of electron      30.0000000 magnetization 
 augmentation part       -0.0841435 magnetization 

 Free energy of the ion-electron system (eV)
  ---------------------------------------------------
  alpha Z        PSCENC =         0.26547520
  Ewald energy   TEWEN  =      2045.38593121
  -Hartree energ DENC   =     -2983.68099358
  -exchange      EXHF   =         0.00000000
  -V(xc)+E(xc)   XCENC  =        72.25154893
  PAW double counting   =      9804.43563995    -9781.99228011
  entropy T*S    EENTRO =        -0.00000000
  eigenvalues    EBANDS =      -389.37607528
  atomic energy  EATOM  =      1168.94387090
  ---------------------------------------------------
  free energy    TOTEN  =       -63.76688279 eV

  energy without entropy =      -63.76688279  energy(sigma->0) =      -63.76688279


--------------------------------------------------------------------------------------------------------




--------------------------------------- Iteration      1(  25)  ---------------------------------------


    POTLOK:  cpu time      0.4847: real time      0.4851
    SETDIJ:  cpu time      0.0040: real time      0.0040
    TRIAL :  cpu time      2.6217: real time      2.6229
    CORREC:  cpu time      2.5640: real time      2.5652
    CHARGE:  cpu time      1.3743: real time      1.3747
    --------------------------------------------
      LOOP:  cpu time      7.0642: real time      7.0844

 eigenvalue-minimisations  :     0
 total energy-change (2. order) :-0.4610501E-06  (-0.1642590E-07)
 number of electron      30.0000000 magnetization 
 augmentation part       -0.0841435 magnetization 

 Free energy of the ion-electron system (eV)
  ---------------------------------------------------
  alpha Z        PSCENC =         0.26547520
  Ewald energy   TEWEN  =      2045.38593121
  -Hartree energ DENC   =     -2983.68105811
  -exchange      EXHF   =         0.00000000
  -V(xc)+E(xc)   XCENC  =        72.25150430
  PAW double counting   =      9804.46038261    -9782.01702211
  entropy T*S    EENTRO =        -0.00000000
  eigenvalues    EBANDS =      -389.37596725
  atomic energy  EATOM  =      1168.94387090
  ---------------------------------------------------
  free energy    TOTEN  =       -63.76688326 eV

  energy without entropy =      -63.76688326  energy(sigma->0) =      -63.76688326


--------------------------------------------------------------------------------------------------------




--------------------------------------- Iteration      1(  26)  ---------------------------------------


    POTLOK:  cpu time      0.4816: real time      0.4818
    SETDIJ:  cpu time      0.0040: real time      0.0040
    TRIAL :  cpu time      2.6185: real time      2.6199
    CORREC:  cpu time      2.5763: real time      2.5777
    CHARGE:  cpu time      1.3828: real time      1.3833
    --------------------------------------------
      LOOP:  cpu time      7.0932: real time      7.0971

 eigenvalue-minimisations  :     0
 total energy-change (2. order) : 0.1424869E-06  (-0.2758052E-06)
 number of electron      30.0000000 magnetization 
 augmentation part       -0.0841433 magnetization 

 Free energy of the ion-electron system (eV)
  ---------------------------------------------------
  alpha Z        PSCENC =         0.26547520
  Ewald energy   TEWEN  =      2045.38593121
  -Hartree energ DENC   =     -2983.68105426
  -exchange      EXHF   =         0.00000000
  -V(xc)+E(xc)   XCENC  =        72.25149838
  PAW double counting   =      9804.47694983    -9782.03358862
  entropy T*S    EENTRO =        -0.00000000
  eigenvalues    EBANDS =      -389.37596576
  atomic energy  EATOM  =      1168.94387090
  ---------------------------------------------------
  free energy    TOTEN  =       -63.76688311 eV

  energy without entropy =      -63.76688311  energy(sigma->0) =      -63.76688311


--------------------------------------------------------------------------------------------------------




--------------------------------------- Iteration      1(  27)  ---------------------------------------


    POTLOK:  cpu time      0.4838: real time      0.4841
    SETDIJ:  cpu time      0.0040: real time      0.0040
    TRIAL :  cpu time      2.6189: real time      2.6201
    CORREC:  cpu time      2.5661: real time      2.5673
    CHARGE:  cpu time      1.3828: real time      1.3832
    --------------------------------------------
      LOOP:  cpu time      7.0702: real time      7.0888

 eigenvalue-minimisations  :     0
 total energy-change (2. order) :-0.1157787E-06  (-0.3682236E-06)
 number of electron      30.0000000 magnetization 
 augmentation part       -0.0841431 magnetization 

 Free energy of the ion-electron system (eV)
  ---------------------------------------------------
  alpha Z        PSCENC =         0.26547520
  Ewald energy   TEWEN  =      2045.38593121
  -Hartree energ DENC   =     -2983.68093550
  -exchange      EXHF   =         0.00000000
  -V(xc)+E(xc)   XCENC  =        72.25157374
  PAW double counting   =      9804.70162257    -9782.25825085
  entropy T*S    EENTRO =        -0.00000000
  eigenvalues    EBANDS =      -389.37617049
  atomic energy  EATOM  =      1168.94387090
  ---------------------------------------------------
  free energy    TOTEN  =       -63.76688323 eV

  energy without entropy =      -63.76688323  energy(sigma->0) =      -63.76688323


--------------------------------------------------------------------------------------------------------




--------------------------------------- Iteration      1(  28)  ---------------------------------------


    POTLOK:  cpu time      0.4913: real time      0.4916
    SETDIJ:  cpu time      0.0040: real time      0.0040
    TRIAL :  cpu time      2.6180: real time      2.6195
    CORREC:  cpu time      2.4720: real time      2.4733
    CHARGE:  cpu time      1.3756: real time      1.3760
    --------------------------------------------
      LOOP:  cpu time      6.9775: real time      6.9952

 eigenvalue-minimisations  :     0
 total energy-change (2. order) :-0.7785275E-09  ( 0.6358418E-06)
 number of electron      30.0000000 magnetization 
 augmentation part       -0.0841429 magnetization 

 Free energy of the ion-electron system (eV)
  ---------------------------------------------------
  alpha Z        PSCENC =         0.26547520
  Ewald energy   TEWEN  =      2045.38593121
  -Hartree energ DENC   =     -2983.68217504
  -exchange      EXHF   =         0.00000000
  -V(xc)+E(xc)   XCENC  =        72.25156735
  PAW double counting   =      9804.66734301    -9782.22397903
  entropy T*S    EENTRO =        -0.00000000
  eigenvalues    EBANDS =      -389.37491683
  atomic energy  EATOM  =      1168.94387090
  ---------------------------------------------------
  free energy    TOTEN  =       -63.76688323 eV

  energy without entropy =      -63.76688323  energy(sigma->0) =      -63.76688323


--------------------------------------------------------------------------------------------------------




--------------------------------------- Iteration      1(  29)  ---------------------------------------


    POTLOK:  cpu time      0.4841: real time      0.4843
    SETDIJ:  cpu time      0.0042: real time      0.0042
    TRIAL :  cpu time      2.6361: real time      2.6374
    CORREC:  cpu time      2.5691: real time      2.5704
    CHARGE:  cpu time      1.3778: real time      1.3781
    --------------------------------------------
      LOOP:  cpu time      7.1020: real time      7.1053

 eigenvalue-minimisations  :     0
 total energy-change (2. order) :-0.8772022E-06  (-0.6596694E-07)
 number of electron      30.0000000 magnetization 
 augmentation part       -0.0841429 magnetization 

 Free energy of the ion-electron system (eV)
  ---------------------------------------------------
  alpha Z        PSCENC =         0.26547520
  Ewald energy   TEWEN  =      2045.38593121
  -Hartree energ DENC   =     -2983.68377083
  -exchange      EXHF   =         0.00000000
  -V(xc)+E(xc)   XCENC  =        72.25160909
  PAW double counting   =      9804.59664919    -9782.15329689
  entropy T*S    EENTRO =        -0.00000000
  eigenvalues    EBANDS =      -389.37335198
  atomic energy  EATOM  =      1168.94387090
  ---------------------------------------------------
  free energy    TOTEN  =       -63.76688411 eV

  energy without entropy =      -63.76688411  energy(sigma->0) =      -63.76688411


--------------------------------------------------------------------------------------------------------




--------------------------------------- Iteration      1(  30)  ---------------------------------------


    POTLOK:  cpu time      0.4856: real time      0.4858
    SETDIJ:  cpu time      0.0040: real time      0.0040
    TRIAL :  cpu time      2.6220: real time      2.6233
    CORREC:  cpu time      2.5655: real time      2.5664
    EDDIAG:  cpu time      1.0941: real time      1.0948
    CHARGE:  cpu time      1.3781: real time      1.3787
    --------------------------------------------
      LOOP:  cpu time      8.1643: real time      8.1835

 eigenvalue-minimisations  :     0
 total energy-change (2. order) : 0.8560710E-07  (-0.2508587E-07)
 number of electron      30.0000000 magnetization 
 augmentation part       -0.0841430 magnetization 

 Free energy of the ion-electron system (eV)
  ---------------------------------------------------
  alpha Z        PSCENC =         0.26547520
  Ewald energy   TEWEN  =      2045.38593121
  -Hartree energ DENC   =     -2983.68348687
  -exchange      EXHF   =         0.00000000
  -V(xc)+E(xc)   XCENC  =        72.25161299
  PAW double counting   =      9804.59366344    -9782.15031017
  entropy T*S    EENTRO =        -0.00000000
  eigenvalues    EBANDS =      -389.37364073
  atomic energy  EATOM  =      1168.94387090
  ---------------------------------------------------
  free energy    TOTEN  =       -63.76688402 eV

  energy without entropy =      -63.76688402  energy(sigma->0) =      -63.76688402


--------------------------------------------------------------------------------------------------------


  average scaling for gradient   1.2921


 average (electrostatic) potential at core
  the test charge radii are     0.5770  0.4325  0.5902
  (the norm of the test charge is              1.0000)
       1 -87.8196       2 -87.8198       3 -87.8200       4 -87.8197       5 -46.3331
       6 -46.3345       7 -46.3337       8 -46.3340       9-104.2539      10-104.2544



 E-fermi :  -5.7046     XC(G=0):  -0.1368     alpha+bet : -0.0672

 Fermi energy:        -5.7046082420

 k-point     1 :       0.0000    0.0000    0.0000
  band No.  band energies     occupation 
      1     -24.4140      2.00000
      2     -22.5298      2.00000
      3     -19.1960      2.00000
      4     -16.2458      2.00000
      5     -16.1752      2.00000
      6     -12.8771      2.00000
      7     -12.7029      2.00000
      8     -11.9180      2.00000
      9     -10.6735      2.00000
     10     -10.4736      2.00000
     11      -9.4357      2.00000
     12      -8.1801      2.00000
     13      -7.2151      2.00000
     14      -6.8876      2.00000
     15      -5.7627      2.00000
     16      -2.4330      0.00000
     17      -1.6881      0.00000
     18      -0.4032      0.00000
     19      -0.0316      0.00000
     20       0.1117      0.00000
     21       0.2419      0.00000
     22       0.2841      0.00000
     23       0.3306      0.00000
     24       0.3529      0.00000
     25       0.4400      0.00000
     26       0.5066      0.00000
     27       0.5120      0.00000
     28       0.5298      0.00000
     29       0.5642      0.00000
     30       0.5659      0.00000
     31       0.6361      0.00000
     32       0.6500      0.00000
     33       0.6586      0.00000
     34       0.6607      0.00000
     35       0.6622      0.00000
     36       0.6695      0.00000
     37       0.8296      0.00000
     38       0.8424      0.00000
     39       0.8628      0.00000
     40       0.8848      0.00000
     41       0.8956      0.00000
     42       0.9167      0.00000
     43       0.9420      0.00000
     44       0.9634      0.00000
     45       0.9930      0.00000
     46       1.1238      0.00000
     47       1.1335      0.00000
     48       1.1683      0.00000
     49       1.1815      0.00000
     50       1.2448      0.00000
     51       1.2626      0.00000
     52       1.2887      0.00000
     53       1.3791      0.00000
     54       1.4161      0.00000
     55       1.4194      0.00000
     56       1.4219      0.00000
     57       1.4269      0.00000
     58       1.4350      0.00000
     59       1.5188      0.00000
     60       1.5232      0.00000
     61       1.5447      0.00000
     62       1.5574      0.00000
     63       1.5599      0.00000
     64       1.5838      0.00000
     65       1.5880      0.00000
     66       1.5885      0.00000
     67       1.5909      0.00000
     68       1.5914      0.00000
     69       1.5973      0.00000
     70       1.5983      0.00000
     71       1.5999      0.00000
     72       1.6007      0.00000
     73       1.6021      0.00000
     74       1.6024      0.00000
     75       1.7107      0.00000
     76       1.7197      0.00000
     77       1.7357      0.00000
     78       1.7776      0.00000
     79       1.7869      0.00000
     80       1.8103      0.00000
     81       1.8244      0.00000
     82       1.8244      0.00000
     83       1.8289      0.00000
     84       1.8621      0.00000
     85       1.8705      0.00000
     86       1.8714      0.00000
     87       1.8774      0.00000
     88       1.8819      0.00000
     89       1.8921      0.00000
     90       1.8959      0.00000
     91       1.8980      0.00000
     92       1.8987      0.00000
     93       1.8987      0.00000
     94       1.9038      0.00000
     95       1.9073      0.00000
     96       1.9083      0.00000
     97       1.9118      0.00000
     98       1.9126      0.00000
     99       1.9786      0.00000
    100       2.1218      0.00000
    101       2.2961      0.00000
    102       2.3170      0.00000
    103       2.3288      0.00000
    104       2.3710      0.00000
    105       2.3877      0.00000
    106       2.3910      0.00000
    107       2.4509      0.00000
    108       2.4702      0.00000
    109       2.4740      0.00000
    110       2.4891      0.00000
    111       2.5241      0.00000
    112       2.5426      0.00000
    113       2.5625      0.00000
    114       2.5763      0.00000
    115       2.6152      0.00000
    116       2.6367      0.00000
    117       2.6445      0.00000
    118       2.6652      0.00000
    119       2.7120      0.00000
    120       2.7247      0.00000
    121       2.7315      0.00000
    122       2.7422      0.00000
    123       2.7563      0.00000
    124       2.7777      0.00000
    125       2.7862      0.00000
    126       2.7864      0.00000
    127       2.8043      0.00000
    128       2.8116      0.00000
    129       2.8165      0.00000
    130       2.8209      0.00000
    131       2.8228      0.00000
    132       2.8279      0.00000
    133       2.8293      0.00000
    134       2.8316      0.00000
    135       2.8373      0.00000
    136       2.8375      0.00000
    137       2.8378      0.00000
    138       2.8395      0.00000
    139       2.8452      0.00000
    140       2.8460      0.00000
    141       2.8535      0.00000
    142       2.9288      0.00000
    143       2.9468      0.00000
    144       2.9582      0.00000
    145       2.9853      0.00000
    146       2.9906      0.00000
    147       3.0287      0.00000
    148       3.0537      0.00000
    149       3.0654      0.00000
    150       3.0800      0.00000
    151       3.0860      0.00000
    152       3.0993      0.00000
    153       3.1072      0.00000
    154       3.1128      0.00000
    155       3.1137      0.00000
    156       3.1311      0.00000
    157       3.1362      0.00000
    158       3.1405      0.00000
    159       3.1416      0.00000
    160       3.1429      0.00000
    161       3.1450      0.00000
    162       3.1497      0.00000
    163       3.1534      0.00000
    164       3.1537      0.00000
    165       3.1586      0.00000
    166       3.2834      0.00000
    167       3.2839      0.00000
    168       3.3237      0.00000
    169       3.3304      0.00000
    170       3.3410      0.00000
    171       3.3484      0.00000
    172       3.3618      0.00000
    173       3.3706      0.00000
    174       3.3899      0.00000
    175       3.3933      0.00000
    176       3.3947      0.00000
    177       3.4063      0.00000
    178       3.4094      0.00000
    179       3.4173      0.00000
    180       3.4195      0.00000
    181       3.4221      0.00000
    182       3.4373      0.00000
    183       3.4384      0.00000
    184       3.4415      0.00000
    185       3.4490      0.00000
    186       3.4490      0.00000
    187       3.4509      0.00000
    188       3.4524      0.00000
    189       3.4838      0.00000
    190       3.6002      0.00000
    191       3.6070      0.00000
    192       3.6525      0.00000
    193       3.6685      0.00000
    194       3.6884      0.00000
    195       3.6975      0.00000
    196       3.7310      0.00000
    197       3.7319      0.00000
    198       3.7381      0.00000
    199       3.7950      0.00000
    200       3.8000      0.00000
    201       3.8132      0.00000
    202       3.8201      0.00000
    203       3.8725      0.00000
    204       3.9407      0.00000
    205       3.9434      0.00000
    206       3.9545      0.00000
    207       4.0068      0.00000
    208       4.0129      0.00000
    209       4.0303      0.00000
    210       4.0308      0.00000
    211       4.0373      0.00000
    212       4.0409      0.00000
    213       4.0421      0.00000
    214       4.0526      0.00000
    215       4.0613      0.00000
    216       4.0681      0.00000
    217       4.0714      0.00000
    218       4.0723      0.00000
    219       4.0762      0.00000
    220       4.0786      0.00000
    221       4.0954      0.00000
    222       4.1092      0.00000
    223       4.1673      0.00000
    224       4.1914      0.00000
    225       4.1958      0.00000
    226       4.2024      0.00000
    227       4.2062      0.00000
    228       4.2294      0.00000
    229       4.2383      0.00000
    230       4.2622      0.00000
    231       4.2646      0.00000
    232       4.2702      0.00000
    233       4.2922      0.00000
    234       4.2981      0.00000
    235       4.3015      0.00000
    236       4.3074      0.00000
    237       4.3238      0.00000
    238       4.3338      0.00000
    239       4.3367      0.00000
    240       4.3401      0.00000
    241       4.3442      0.00000
    242       4.3491      0.00000
    243       4.3632      0.00000
    244       4.3638      0.00000
    245       4.3656      0.00000
    246       4.3698      0.00000
    247       4.3781      0.00000
    248       4.3791      0.00000
    249       4.3843      0.00000
    250       4.3879      0.00000
    251       4.3887      0.00000
    252       4.4060      0.00000
    253       4.4339      0.00000
    254       4.6834      0.00000
    255       4.7320      0.00000
    256       4.9097      0.00000


--------------------------------------------------------------------------------------------------------


 soft charge-density along one line, spin component           1
         0         1         2         3         4         5         6         7         8         9
 total charge-density along one line

 pseudopotential strength for first ion, spin component:           1
 12.731  21.425   0.006  -0.002   0.004   0.010  -0.004   0.007
 21.425  36.056   0.010  -0.004   0.006   0.017  -0.007   0.011
  0.006   0.010  -3.285  -0.000  -0.000  -5.889  -0.000  -0.001
 -0.002  -0.004  -0.000  -3.285   0.000  -0.000  -5.890   0.000
  0.004   0.006  -0.000   0.000  -3.285  -0.001   0.000  -5.889
  0.010   0.017  -5.889  -0.000  -0.001 -10.536  -0.000  -0.001
 -0.004  -0.007  -0.000  -5.890   0.000  -0.000 -10.537   0.001
  0.007   0.011  -0.001   0.000  -5.889  -0.001   0.001 -10.535
 total augmentation occupancy for first ion, spin component:           1
  6.538  -2.163   1.013  -0.418  -0.090  -0.479   0.197   0.021
 -2.163   0.779  -0.531   0.219   0.001   0.237  -0.098   0.005
  1.013  -0.531   5.792  -1.352   0.617  -1.855   0.525  -0.301
 -0.418   0.219  -1.352   3.069  -0.254   0.525  -0.798   0.124
 -0.090   0.001   0.617  -0.254   6.571  -0.301   0.124  -2.140
 -0.479   0.237  -1.855   0.525  -0.301   0.616  -0.196   0.137
  0.197  -0.098   0.525  -0.798   0.124  -0.196   0.221  -0.056
  0.021   0.005  -0.301   0.124  -2.140   0.137  -0.056   0.719


------------------------ aborting loop because EDIFF is reached ----------------------------------------


    FORLOC:  cpu time      0.0193: real time      0.0193
    FORNL :  cpu time      0.2850: real time      0.2851
    FORCOR:  cpu time      0.3176: real time      0.3176
    OFIELD:  cpu time      0.0044: real time      0.0047
 WARNING: Using user supplied parameters
     VDW_S8 = 1.682
     VDW_SR = 1.094
     because the xc functional is not supported. Required parameters not
     defined in the INCAR file will be replaced with PBE defaults ones.


 ---------------------------------------------------------------------------------------------

         DFTD3 V3.0 Rev 1        
 IVDW         = 11
 DF unknown   
 parameters
 VDW_S6       =    1.0000
 VDW_S8       =    1.6820
 VDW_SR       =    1.0940
 rs18     =    1.0000
 alpha6   =   14.0000
 alpha8   =   16.0000
 k1-k3    =   16.0000    1.3333   -4.0000
 VDW_RADIUS   =   50.2022 A
 VDW_CNRADIUS =   21.1671 A
 Edisp (eV)   -0.12949

 E6    (eV) :    -0.0454
 E8    (eV) :    -0.0841
 % E8        : 64.94
    FORVDW:  cpu time      0.0737: real time      0.0754

 VOLUME and BASIS-vectors are now :
 -----------------------------------------------------------------------------
  energy-cutoff  :     1000.00
  volume of cell :    10648.00
      direct lattice vectors                 reciprocal lattice vectors
    22.000000000  0.000000000  0.000000000     0.045454545  0.000000000  0.000000000
     0.000000000 22.000000000  0.000000000     0.000000000  0.045454545  0.000000000
     0.000000000  0.000000000 22.000000000     0.000000000  0.000000000  0.045454545

  length of vectors
    22.000000000 22.000000000 22.000000000     0.045454545  0.045454545  0.045454545


 FORCES acting on ions:
    Electron-Ion                     Ewald-Force                    Non-Local-Force
 -----------------------------------------------------------------------------------------------
   -.837E+02 0.176E+03 -.725E+02   0.813E+02 -.179E+03 0.739E+02   0.267E+01 0.325E+01 -.134E+01
   0.837E+02 0.176E+03 -.725E+02   -.813E+02 -.179E+03 0.739E+02   -.266E+01 0.325E+01 -.134E+01
   0.837E+02 -.176E+03 0.725E+02   -.813E+02 0.179E+03 -.739E+02   -.266E+01 -.325E+01 0.134E+01
   -.837E+02 -.176E+03 0.725E+02   0.813E+02 0.179E+03 -.739E+02   0.266E+01 -.325E+01 0.134E+01
   -.420E+02 0.667E+02 -.275E+02   0.452E+02 -.715E+02 0.295E+02   -.313E+01 0.475E+01 -.196E+01
   0.420E+02 0.667E+02 -.275E+02   -.451E+02 -.715E+02 0.295E+02   0.313E+01 0.475E+01 -.196E+01
   0.420E+02 -.667E+02 0.275E+02   -.451E+02 0.715E+02 -.295E+02   0.313E+01 -.475E+01 0.196E+01
   -.420E+02 -.667E+02 0.275E+02   0.452E+02 0.715E+02 -.295E+02   -.313E+01 -.475E+01 0.196E+01
   -.279E+03 -.230E-01 -.393E-01   0.316E+03 0.238E-01 0.442E-01   -.376E+02 0.179E-02 -.692E-02
   0.279E+03 -.283E-01 -.341E-01   -.316E+03 0.320E-01 0.384E-01   0.376E+02 -.248E-02 -.580E-02
 -----------------------------------------------------------------------------------------------
   -.354E-02 0.894E-03 0.561E-02   -.568E-13 0.457E-13 -.822E-14   0.346E-02 -.832E-03 -.541E-02


 POSITION                                       TOTAL-FORCE (eV/Angst)
 -----------------------------------------------------------------------------------
     11.69754      9.95150     11.43245         0.140711     -0.245958      0.101624
     10.30241      9.95149     11.43252        -0.134839     -0.243270      0.099738
     10.30246     12.04847     10.56756        -0.135188      0.245452     -0.099566
     11.69764     12.04854     10.56762         0.136743      0.241230     -0.099269
     12.25710      9.08625     11.78912        -0.007295      0.002422     -0.000641
      9.74342      9.08610     11.78931         0.002035      0.000678      0.000118
      9.74342     12.91390     10.21069         0.003349     -0.002903      0.000782
     12.25708     12.91372     10.21078        -0.005617     -0.001391      0.000619
     12.40807     11.00001     11.00021         0.272528      0.002523     -0.002005
      9.59193     11.00003     11.00019        -0.272428      0.001217     -0.001400
 -----------------------------------------------------------------------------------
    total drift:                               -0.000081      0.000062      0.000200


--------------------------------------------------------------------------------------------------------



  FREE ENERGIE OF THE ION-ELECTRON SYSTEM (eV)
  ---------------------------------------------------
  free  energy   TOTEN  =       -63.89637591 eV

  energy  without entropy=      -63.89637591  energy(sigma->0) =      -63.89637591



--------------------------------------------------------------------------------------------------------


    POTLOK:  cpu time      0.5286: real time      0.5293


--------------------------------------------------------------------------------------------------------


 stress matrix after NEB project (eV)
      0.13548      0.00001     -0.00000
      0.00001     -0.02285      0.00940
     -0.00000      0.00940     -0.00393
  FORCES: max atom, RMS     0.301035    0.223994
  FORCE total and by dimension    0.708331    0.272528
  Stress total and by dimension    0.138087    0.135476
     LOOP+:  cpu time    227.7974: real time    228.3139
    4ORBIT:  cpu time      0.0000: real time      0.0000

 total amount of memory used by VASP MPI-rank0   550012. kBytes
=======================================================================

   base      :      30000. kBytes
   nonl-proj :      67313. kBytes
   fftplans  :     151777. kBytes
   grid      :     291732. kBytes
   one-center:          7. kBytes
   wavefun   :       9183. kBytes

  
  
 General timing and accounting informations for this job:
 ========================================================
  
                  Total CPU time used (sec):      295.884
                            User time (sec):      255.716
                          System time (sec):       40.168
                         Elapsed time (sec):      316.741
  
                   Maximum memory used (kb):      817196.
                   Average memory used (kb):          N/A
  
                          Minor page faults:      1618594
                          Major page faults:         1183
                 Voluntary context switches:        12713
