 vasp.6.4.1 05Apr23 (build Jun  6 2023 14:46:38) gamma-only                      
 executed on        HPECrayEX_GCC date 2024.08.22  01:51:32
 running  512 mpi-ranks, with    1 threads/rank, on    4 nodes
 distrk:  each k-point on  256 cores,    2 groups
 distr:  one band on NCORE=  32 cores,    8 groups


--------------------------------------------------------------------------------------------------------


 INCAR:
   ALGO = Conjugate
   KPAR = 2
   NCORE = 32
   PREC = Accurate
   EDIFF = 1E-7
   ENCUT = 1000
   ISMEAR = 0
   SIGMA = 0.01
   ISIF = 0
   SYMPREC = 1E-7
   LWAVE = .FALSE.
   LCHARG = .FALSE.

 POTCAR:    PAW_PBE C_h 06Feb2004                 
 POTCAR:    PAW_PBE H_h 06Feb2004                 
 POTCAR:    PAW_PBE N_h 06Feb2004                 
 POTCAR:    PAW_PBE C_h 06Feb2004                 
   VRHFIN =C: s2p2                                                                                  
   LEXCH  = PE                                                                                      
   EATOM  =   147.1560 eV,   10.8157 Ry                                                             
                                                                                                    
   TITEL  = PAW_PBE C_h 06Feb2004                                                                   
   LULTRA =        F    use ultrasoft PP ?                                                          
   IUNSCR =        1    unscreen: 0-lin 1-nonlin 2-no                                               
   RPACOR =    0.800    partial core radius                                                         
   POMASS =   12.011; ZVAL   =    4.000    mass and valenz                                          
   RCORE  =    1.100    outmost cutoff radius                                                       
   RWIGS  =    1.630; RWIGS  =    0.863    wigner-seitz radius (au A)                               
   ENMAX  =  700.000; ENMIN  =  500.000 eV                                                          
   ICORE  =        2    local potential                                                             
   LCOR   =        T    correct aug charges                                                         
   LPAW   =        T    paw PP                                                                      
   EAUG   =  946.768                                                                                
   DEXC   =    0.000                                                                                
   RMAX   =    1.128    core radius for proj-oper                                                   
   RAUG   =    1.300    factor for augmentation sphere                                              
   RDEP   =    1.162    radius for radial grids                                                     
   RDEPT  =    1.088    core radius for aug-charge                                                  
                                                                                                    
   Atomic configuration                                                                             
    4 entries                                                                                       
     n  l   j            E        occ.                                                              
     1  0  0.50      -273.3789   2.0000                                                             
     2  0  0.50       -13.7508   2.0000                                                             
     2  1  0.50        -5.2854   2.0000                                                             
     3  2  1.50        -5.4423   0.0000                                                             
   Description                                                                                      
     l       E           TYP  RCUT    TYP  RCUT                                                     
     0    -13.7508458     23  1.100                                                                 
     0     -8.2022199     23  1.100                                                                 
     1     -5.2854383     23  1.100                                                                 
     1      1.1560700     23  1.100                                                                 
     2     -5.4423304      7  1.100                                                                 
  local pseudopotential read in
  partial core-charges read in
  partial kinetic energy density read in
  atomic valenz-charges read in
  non local Contribution for L=           0  read in
    real space projection operators read in
  non local Contribution for L=           0  read in
    real space projection operators read in
  non local Contribution for L=           1  read in
    real space projection operators read in
  non local Contribution for L=           1  read in
    real space projection operators read in
    PAW grid and wavefunctions read in

   number of l-projection  operators is LMAX  =           4
   number of lm-projection operators is LMMAX =           8

 POTCAR:    PAW_PBE H_h 06Feb2004                 
   VRHFIN =H: ultrasoft test                                                                        
   LEXCH  = PE                                                                                      
   EATOM  =    12.4884 eV,    0.9179 Ry                                                             
                                                                                                    
   TITEL  = PAW_PBE H_h 06Feb2004                                                                   
   LULTRA =        F    use ultrasoft PP ?                                                          
   IUNSCR =        0    unscreen: 0-lin 1-nonlin 2-no                                               
   RPACOR =    0.000    partial core radius                                                         
   POMASS =    1.000; ZVAL   =    1.000    mass and valenz                                          
   RCORE  =    0.800    outmost cutoff radius                                                       
   RWIGS  =    0.700; RWIGS  =    0.370    wigner-seitz radius (au A)                               
   ENMAX  =  700.000; ENMIN  =  350.000 eV                                                          
   RCLOC  =    0.701    cutoff for local pot                                                        
   LCOR   =        T    correct aug charges                                                         
   LPAW   =        T    paw PP                                                                      
   EAUG   = 1000.000                                                                                
   RMAX   =    0.819    core radius for proj-oper                                                   
   RAUG   =    1.000    factor for augmentation sphere                                              
   RDEP   =    0.817    radius for radial grids                                                     
   RDEPT  =    0.817    core radius for aug-charge                                                  
                                                                                                    
   Atomic configuration                                                                             
    2 entries                                                                                       
     n  l   j            E        occ.                                                              
     1  0  0.50        -6.4927   1.0000                                                             
     2  1  0.50        -3.4015   0.0000                                                             
   Description                                                                                      
     l       E           TYP  RCUT    TYP  RCUT                                                     
     0     -6.4927493     23  0.800                                                                 
     0      6.8029130     23  0.800                                                                 
     1     -6.8029130     23  0.800                                                                 
  local pseudopotential read in
  atomic valenz-charges read in
  non local Contribution for L=           0  read in
    real space projection operators read in
  non local Contribution for L=           0  read in
    real space projection operators read in
  non local Contribution for L=           1  read in
    real space projection operators read in
    PAW grid and wavefunctions read in

   number of l-projection  operators is LMAX  =           3
   number of lm-projection operators is LMMAX =           5

 POTCAR:    PAW_PBE N_h 06Feb2004                 
   VRHFIN =N: s2p3                                                                                  
   LEXCH  = PE                                                                                      
   EATOM  =   264.5486 eV,   19.4438 Ry                                                             
                                                                                                    
   TITEL  = PAW_PBE N_h 06Feb2004                                                                   
   LULTRA =        F    use ultrasoft PP ?                                                          
   IUNSCR =        1    unscreen: 0-lin 1-nonlin 2-no                                               
   RPACOR =    0.800    partial core radius                                                         
   POMASS =   14.001; ZVAL   =    5.000    mass and valenz                                          
   RCORE  =    1.100    outmost cutoff radius                                                       
   RWIGS  =    1.480; RWIGS  =    0.783    wigner-seitz radius (au A)                               
   ENMAX  =  700.000; ENMIN  =  500.000 eV                                                          
   ICORE  =        2    local potential                                                             
   LCOR   =        T    correct aug charges                                                         
   LPAW   =        T    paw PP                                                                      
   EAUG   =  904.640                                                                                
   DEXC   =    0.000                                                                                
   RMAX   =    1.127    core radius for proj-oper                                                   
   RAUG   =    1.300    factor for augmentation sphere                                              
   RDEP   =    1.115    radius for radial grids                                                     
   RDEPT  =    1.106    core radius for aug-charge                                                  
                                                                                                    
   Atomic configuration                                                                             
    4 entries                                                                                       
     n  l   j            E        occ.                                                              
     1  0  0.50      -384.7179   2.0000                                                             
     2  0  0.50       -18.5828   2.0000                                                             
     2  1  0.50        -7.0898   3.0000                                                             
     3  2  1.50        -6.8029   0.0000                                                             
   Description                                                                                      
     l       E           TYP  RCUT    TYP  RCUT                                                     
     0    -18.5828117     23  1.100                                                                 
     0    -15.0750597     23  1.100                                                                 
     1     -7.0897851     23  1.100                                                                 
     1     -1.9663412     23  1.100                                                                 
     2     -6.8029130      7  1.100                                                                 
  local pseudopotential read in
  partial core-charges read in
  partial kinetic energy density read in
  kinetic energy density of atom read in
  atomic valenz-charges read in
  non local Contribution for L=           0  read in
    real space projection operators read in
  non local Contribution for L=           0  read in
    real space projection operators read in
  non local Contribution for L=           1  read in
    real space projection operators read in
  non local Contribution for L=           1  read in
    real space projection operators read in
    PAW grid and wavefunctions read in

   number of l-projection  operators is LMAX  =           4
   number of lm-projection operators is LMMAX =           8

  PAW_PBE C_h 06Feb2004                 :
 energy of atom  1       EATOM= -147.1560
 kinetic energy error for atom=    0.0031 (will be added to EATOM!!)
  PAW_PBE H_h 06Feb2004                 :
 energy of atom  2       EATOM=  -12.4884
 kinetic energy error for atom=    0.0006 (will be added to EATOM!!)
  PAW_PBE N_h 06Feb2004                 :
 energy of atom  3       EATOM= -264.5486
 kinetic energy error for atom=    0.0081 (will be added to EATOM!!)


 POSCAR:  C  H  N
  positions in cartesian coordinates
  No initial velocities read in
 exchange correlation table for  LEXCH =        8
   RHO(1)=    0.500       N(1)  =     2000
   RHO(2)=  100.500       N(2)  =     4000

 VTST: version 4.1, (05/19/21)

 CHAIN: initializing optimizer
 
 OPT: Using VASP Dynamics algorithm
 CHAIN: Read ICHAIN            0

 POSCAR:  C  H  N
  positions in cartesian coordinates
  No initial velocities read in



--------------------------------------------------------------------------------------------------------


 ion  position               nearest neighbor table
   1  0.532  0.452  0.520-   5 1.09   9 1.34   2 1.40
   2  0.468  0.452  0.520-   6 1.09  10 1.34   1 1.40
   3  0.468  0.548  0.480-   7 1.09  10 1.34   4 1.40
   4  0.532  0.548  0.480-   8 1.09   9 1.34   3 1.40
   5  0.557  0.413  0.536-   1 1.09
   6  0.443  0.413  0.536-   2 1.09
   7  0.443  0.587  0.464-   3 1.09
   8  0.557  0.587  0.464-   4 1.09
   9  0.564  0.500  0.500-   1 1.34   4 1.34
  10  0.436  0.500  0.500-   2 1.34   3 1.34

  LATTYP: Found a simple cubic cell.
 ALAT       =    22.0000000000
  
  Lattice vectors:
  
 A1 = (  22.0000000000,   0.0000000000,   0.0000000000)
 A2 = (   0.0000000000,  22.0000000000,   0.0000000000)
 A3 = (   0.0000000000,   0.0000000000,  22.0000000000)


Analysis of symmetry for initial positions (statically):
=====================================================================
 Subroutine PRICEL returns:
 Original cell was already a primitive cell.
 

 Routine SETGRP: Setting up the symmetry group for a 
 simple cubic supercell.


 Subroutine GETGRP returns: Found  1 space group operations
 (whereof  1 operations were pure point group operations)
 out of a pool of 48 trial point group operations.


The static configuration has the point symmetry C_1 .


Analysis of symmetry for dynamics (positions and initial velocities):
=====================================================================
 Subroutine PRICEL returns:
 Original cell was already a primitive cell.
 

 Routine SETGRP: Setting up the symmetry group for a 
 simple cubic supercell.


 Subroutine GETGRP returns: Found  1 space group operations
 (whereof  1 operations were pure point group operations)
 out of a pool of 48 trial point group operations.


The dynamic configuration has the point symmetry C_1 .


 Subroutine INISYM returns: Found  1 space group operations
 (whereof  1 operations are pure point group operations),
 and found     1 'primitive' translations


----------------------------------------------------------------------------------------

                                     Primitive cell                                     

  volume of cell :   10648.0000

  direct lattice vectors                    reciprocal lattice vectors
    22.000000000  0.000000000  0.000000000     0.045454545  0.000000000  0.000000000
     0.000000000 22.000000000  0.000000000     0.000000000  0.045454545  0.000000000
     0.000000000  0.000000000 22.000000000     0.000000000  0.000000000  0.045454545

  length of vectors
    22.000000000 22.000000000 22.000000000     0.045454545  0.045454545  0.045454545

  position of ions in fractional coordinates (direct lattice)
     0.531706591  0.452340909  0.519656818
     0.468291136  0.452340455  0.519660000
     0.468293409  0.547657727  0.480343636
     0.531711136  0.547660909  0.480346364
     0.557140682  0.413011364  0.535869091
     0.442882500  0.413004545  0.535877727
     0.442882500  0.586995455  0.464122273
     0.557139773  0.586987273  0.464126364
     0.564002955  0.500000455  0.500009545
     0.435997045  0.500001364  0.500008636

  ion indices of the primitive-cell ions
   primitive index   ion index
                 1           1
                 2           2
                 3           3
                 4           4
                 5           5
                 6           6
                 7           7
                 8           8
                 9           9
                10          10

----------------------------------------------------------------------------------------



 KPOINTS: auto                                    

Automatic generation of k-mesh.
 Grid dimensions read from file:
 generate k-points for:    1    1    1

 Generating k-lattice:

  Cartesian coordinates                     Fractional coordinates (reciprocal lattice)
     0.045454545  0.000000000  0.000000000     1.000000000  0.000000000  0.000000000
     0.000000000  0.045454545  0.000000000     0.000000000  1.000000000  0.000000000
     0.000000000  0.000000000  0.045454545     0.000000000  0.000000000  1.000000000

  Length of vectors
     0.045454545  0.045454545  0.045454545

  Shift w.r.t. Gamma in fractional coordinates (k-lattice)
     0.000000000  0.000000000  0.000000000

 
 Subroutine IBZKPT returns following result:
 ===========================================
 
 Found      1 irreducible k-points:
 
 Following reciprocal coordinates:
            Coordinates               Weight
  0.000000  0.000000  0.000000      1.000000
 
 Following cartesian coordinates:
            Coordinates               Weight
  0.000000  0.000000  0.000000      1.000000
 


--------------------------------------------------------------------------------------------------------




 Dimension of arrays:
   k-points           NKPTS =      1   k-points in BZ     NKDIM =      1   number of bands    NBANDS=     24
   number of dos      NEDOS =    301   number of ions     NIONS =     10
   non local maximal  LDIM  =      4   non local SUM 2l+1 LMDIM =      8
   total plane-waves  NPLWV = ******
   max r-space proj   IRMAX =      1   max aug-charges    IRDMAX=   9419
   dimension x,y,z NGX =   240 NGY =  240 NGZ =  240
   dimension x,y,z NGXF=   480 NGYF=  480 NGZF=  480
   support grid    NGXF=   480 NGYF=  480 NGZF=  480
   ions per type =               4   4   2
   NGX,Y,Z   is equivalent  to a cutoff of  18.14, 18.14, 18.14 a.u.
   NGXF,Y,Z  is equivalent  to a cutoff of  36.27, 36.27, 36.27 a.u.

 SYSTEM =  unknown system                          
 POSCAR =   C  H  N                                

 Startparameter for this run:
   NWRITE =      2    write-flag & timer
   PREC   = accura    normal or accurate (medium, high low for compatibility)
   ISTART =      0    job   : 0-new  1-cont  2-samecut
   ICHARG =      2    charge: 1-file 2-atom 10-const
   ISPIN  =      1    spin polarized calculation?
   LNONCOLLINEAR =      F non collinear calculations
   LSORBIT =      F    spin-orbit coupling
   INIWAV =      1    electr: 0-lowe 1-rand  2-diag
   LASPH  =      F    aspherical Exc in radial PAW
 Electronic Relaxation 1
   ENCUT  = 1000.0 eV  73.50 Ry    8.57 a.u.  56.73 56.73 56.73*2*pi/ulx,y,z
   ENINI  = 1000.0     initial cutoff
   ENAUG  = 1000.0 eV  augmentation charge cutoff
   NELM   =     60;   NELMIN=  2; NELMDL= -5     # of ELM steps 
   EDIFF  = 0.1E-06   stopping-criterion for ELM
   LREAL  =      F    real-space projection
   NLSPLINE    = F    spline interpolate recip. space projectors
   LCOMPAT=      F    compatible to vasp.4.4
   GGA_COMPAT  = T    GGA compatible to vasp.4.4-vasp.4.6
   LMAXPAW     = -100 max onsite density
   LMAXMIX     =    2 max onsite mixed and CHGCAR
   VOSKOWN=      0    Vosko Wilk Nusair interpolation
   ROPT   =    0.00000   0.00000   0.00000
 Ionic relaxation
   EDIFFG = 0.1E-05   stopping-criterion for IOM
   NSW    =      0    number of steps for IOM
   NBLOCK =      1;   KBLOCK =      1    inner block; outer block 
   IBRION =     -1    ionic relax: 0-MD 1-quasi-New 2-CG
   NFREE  =      0    steps in history (QN), initial steepest desc. (CG)
   ISIF   =      0    stress and relaxation
   IWAVPR =     10    prediction:  0-non 1-charg 2-wave 3-comb
   ISYM   =      2    0-nonsym 1-usesym 2-fastsym
   LCORR  =      T    Harris-Foulkes like correction to forces

   POTIM  = 0.5000    time-step for ionic-motion
   TEIN   =    0.0    initial temperature
   TEBEG  =    0.0;   TEEND  =   0.0 temperature during run
   SMASS  =  -3.00    Nose mass-parameter (am)
   estimated Nose-frequenzy (Omega)   =  0.10E-29 period in steps = 0.13E+47 mass=  -0.111E-25a.u.
   SCALEE = 1.0000    scale energy and forces
   NPACO  =    256;   APACO  = 10.0  distance and # of slots for P.C.
   PSTRESS=    0.0 pullay stress

  Mass of Ions in am
   POMASS =  12.01  1.00 14.00
  Ionic Valenz
   ZVAL   =   4.00  1.00  5.00
  Atomic Wigner-Seitz radii
   RWIGS  =  -1.00 -1.00 -1.00
  virtual crystal weights 
   VCA    =   1.00  1.00  1.00
   NELECT =      30.0000    total number of electrons
   NUPDOWN=      -1.0000    fix difference up-down

 DOS related values:
   EMIN   =  10.00;   EMAX   =-10.00  energy-range for DOS
   EFERMI =   0.00;   METHOD = LEGACY      
   ISMEAR =     0;   SIGMA  =   0.01  broadening in eV -4-tet -1-fermi 0-gaus

 Electronic relaxation 2 (details)
   IALGO  =     58    algorithm
   LDIAG  =      T    sub-space diagonalisation (order eigenvalues)
   LSUBROT=      F    optimize rotation matrix (better conditioning)
   TURBO    =      0    0=normal 1=particle mesh
   IRESTART =      0    0=no restart 2=restart with 2 vectors
   NREBOOT  =      0    no. of reboots
   NMIN     =      0    reboot dimension
   EREF     =   0.00    reference energy to select bands
   IMIX   =      4    mixing-type and parameters
     AMIX     =   0.40;   BMIX     =  1.00
     AMIX_MAG =   1.60;   BMIX_MAG =  1.00
     AMIN     =   0.10
     WC   =   100.;   INIMIX=   1;  MIXPRE=   1;  MAXMIX= -45

 Intra band minimization:
   WEIMIN = 0.0000     energy-eigenvalue tresh-hold
   EBREAK =  0.10E-08  absolut break condition
   DEPER  =   0.30     relativ break condition  

   TIME   =   0.40     timestep for ELM

  volume/ion in A,a.u.               =    1064.80      7185.63
  Fermi-wavevector in a.u.,A,eV,Ry     =   0.231220  0.436943  0.727406  0.053463
  Thomas-Fermi vector in A             =   1.025338

 Write flags
   LWAVE        =      F    write WAVECAR
   LDOWNSAMPLE  =      F    k-point downsampling of WAVECAR
   LCHARG       =      F    write CHGCAR
   LVTOT        =      F    write LOCPOT, total local potential
   LVHAR        =      F    write LOCPOT, Hartree potential only
   LELF         =      F    write electronic localiz. function (ELF)
   LORBIT       =      0    0 simple, 1 ext, 2 COOP (PROOUT), +10 PAW based schemes


 Dipole corrections
   LMONO  =      F    monopole corrections only (constant potential shift)
   LDIPOL =      F    correct potential (dipole corrections)
   IDIPOL =      0    1-x, 2-y, 3-z, 4-all directions 
   EPSILON=  1.0000000 bulk dielectric constant

 Exchange correlation treatment:
   GGA     =    --    GGA type
   LEXCH   =     8    internal setting for exchange type
   LIBXC   =     F    Libxc                    
   VOSKOWN =     0    Vosko Wilk Nusair interpolation
   LHFCALC =     F    Hartree Fock is set to
   LHFONE  =     F    Hartree Fock one center treatment
   AEXX    =    0.0000 exact exchange contribution

 Linear response parameters
   LEPSILON=     F    determine dielectric tensor
   LRPA    =     F    only Hartree local field effects (RPA)
   LNABLA  =     F    use nabla operator in PAW spheres
   LVEL    =     F    velocity operator in full k-point grid
   CSHIFT  =0.1000    complex shift for real part using Kramers Kronig
   OMEGAMAX=  -1.0    maximum frequency
   DEG_THRESHOLD= 0.2000000E-02 threshold for treating states as degnerate
   RTIME   =   -0.100 relaxation time in fs
  (WPLASMAI=    0.000 imaginary part of plasma frequency in eV, 0.658/RTIME)
   DFIELD  = 0.0000000 0.0000000 0.0000000 field for delta impulse in time

  Optional k-point grid parameters
   LKPOINTS_OPT  =     F    use optional k-point grid
   KPOINTS_OPT_MODE=     1    mode for optional k-point grid

 Orbital magnetization related:
   ORBITALMAG=     F  switch on orbital magnetization
   LCHIMAG   =     F  perturbation theory with respect to B field
   DQ        =  0.001000  dq finite difference perturbation B field
   LLRAUG    =     F  two centre corrections for induced B field
   LBONE     =     F  B-component reconstruction in AE one-centre
   LVGVCALC  =     T  calculate vGv susceptibility
   LVGVAPPL  =     F  apply vGv susceptibility instead of pGv for G=0

 Random number generation:
   RANDOM_GENERATOR = DEFAULT
   PCG_SEED         = not used


--------------------------------------------------------------------------------------------------------


 Static calculation
 charge density and potential will be updated during run
 non-spin polarized calculation
 Conjugate gradient for all bands (Freysoldt, et al. PRB 79, 241103 (2009))
 preconditioned conjugated gradient                                        
 perform sub-space diagonalisation
    before iterative eigenvector-optimisation
 modified Broyden-mixing scheme, WC =      100.0
 initial mixing is a Kerker type mixing with AMIX =  0.4000 and BMIX =      1.0000
 Hartree-type preconditioning will be used
 using additional bands            9
 reciprocal scheme for non local part
 use partial core corrections
 no Harris-corrections to forces 
 use gradient corrections 
 use of overlap-Matrix (Vanderbilt PP)
 Gauss-broadening in eV      SIGMA  =   0.01


--------------------------------------------------------------------------------------------------------


  energy-cutoff  :     1000.00
  volume of cell :    10648.00
      direct lattice vectors                 reciprocal lattice vectors
    22.000000000  0.000000000  0.000000000     0.045454545  0.000000000  0.000000000
     0.000000000 22.000000000  0.000000000     0.000000000  0.045454545  0.000000000
     0.000000000  0.000000000 22.000000000     0.000000000  0.000000000  0.045454545

  length of vectors
    22.000000000 22.000000000 22.000000000     0.045454545  0.045454545  0.045454545



 k-points in units of 2pi/SCALE and weight: auto                                    
   0.00000000  0.00000000  0.00000000       1.000

 k-points in reciprocal lattice and weights: auto                                    
   0.00000000  0.00000000  0.00000000       1.000

 position of ions in fractional coordinates (direct lattice) 
   0.53170659  0.45234091  0.51965682
   0.46829114  0.45234045  0.51966000
   0.46829341  0.54765773  0.48034364
   0.53171114  0.54766091  0.48034636
   0.55714068  0.41301136  0.53586909
   0.44288250  0.41300455  0.53587773
   0.44288250  0.58699545  0.46412227
   0.55713977  0.58698727  0.46412636
   0.56400295  0.50000045  0.50000955
   0.43599705  0.50000136  0.50000864

 position of ions in cartesian coordinates  (Angst):
  11.69754500  9.95150000 11.43245000
  10.30240500  9.95149000 11.43252000
  10.30245500 12.04847000 10.56756000
  11.69764500 12.04854000 10.56762000
  12.25709500  9.08625000 11.78912000
   9.74341500  9.08610000 11.78931000
   9.74341500 12.91390000 10.21069000
  12.25707500 12.91372000 10.21078000
  12.40806500 11.00001000 11.00021000
   9.59193500 11.00003000 11.00019000



--------------------------------------------------------------------------------------------------------


 use parallel FFT for orbitals z direction half grid
 k-point   1 :   0.0000 0.0000 0.0000  plane waves:  381993

 maximum and minimum number of plane-waves per node :     11948    11928

 maximum number of plane-waves:    381993
 maximum index in each direction: 
   IXMAX=   56   IYMAX=   56   IZMAX=   56
   IXMIN=  -56   IYMIN=  -56   IZMIN=    0


 parallel 3D FFT for wavefunctions:
    minimum data exchange during FFTs selected (reduces bandwidth)
 parallel 3D FFT for charge:
    minimum data exchange during FFTs selected (reduces bandwidth)


 total amount of memory used by VASP MPI-rank0   108847. kBytes
=======================================================================

   base      :      30000. kBytes
   nonl-proj :       4201. kBytes
   fftplans  :      24880. kBytes
   grid      :      48046. kBytes
   one-center:          1. kBytes
   wavefun   :       1719. kBytes

     INWAV:  cpu time      0.0001: real time      0.0002
 Broyden mixing: mesh for mixing (old mesh)
   NGX =113   NGY =113   NGZ =113
  (NGX  =480   NGY  =480   NGZ  =480)
  gives a total of ****** points

 initial charge density was supplied:
 charge density of overlapping atoms calculated
 number of electron      30.0000000 magnetization 
 keeping initial charge density in first step


--------------------------------------------------------------------------------------------------------


 Maximum index for augmentation-charges          496 (set IRDMAX)


--------------------------------------------------------------------------------------------------------


 First call to EWALD:  gamma=   0.081
 Maximum number of real-space cells 3x 3x 3
 Maximum number of reciprocal cells 3x 3x 3

    FEWALD:  cpu time      0.0021: real time      0.0021


--------------------------------------- Ionic step        1  -------------------------------------------




--------------------------------------- Iteration      1(   1)  ---------------------------------------


    POTLOK:  cpu time      0.6051: real time      0.6063
    SETDIJ:  cpu time      0.0276: real time      0.0278
    TRIAL :  cpu time      0.6969: real time      0.6990
    CORREC:  cpu time      0.0023: real time      0.0023
    --------------------------------------------
      LOOP:  cpu time      1.3407: real time      1.3447

 eigenvalue-minimisations  :    64
 total energy-change (2. order) : 0.2509562E+03  (-0.8068222E+03)
 number of electron      30.0000000 magnetization 
 augmentation part       30.0000000 magnetization 

 Free energy of the ion-electron system (eV)
  ---------------------------------------------------
  alpha Z        PSCENC =         0.26547520
  Ewald energy   TEWEN  =      2045.38593121
  -Hartree energ DENC   =     -2857.63293210
  -exchange      EXHF   =         0.00000000
  -V(xc)+E(xc)   XCENC  =        70.30015031
  PAW double counting   =       875.42520781     -851.77457183
  entropy T*S    EENTRO =        -0.00000000
  eigenvalues    EBANDS =      -198.65685139
  atomic energy  EATOM  =      1167.64380898
  ---------------------------------------------------
  free energy    TOTEN  =       250.95621818 eV

  energy without entropy =      250.95621818  energy(sigma->0) =      250.95621818


--------------------------------------------------------------------------------------------------------




--------------------------------------- Iteration      1(   2)  ---------------------------------------


    TRIAL :  cpu time      0.8517: real time      0.8520
    CORREC:  cpu time      0.0002: real time      0.0002
    --------------------------------------------
      LOOP:  cpu time      0.8674: real time      0.8836

 eigenvalue-minimisations  :    88
 total energy-change (2. order) :-0.1527759E+03  (-0.1507961E+03)
 number of electron      30.0000000 magnetization 
 augmentation part       30.0000000 magnetization 

 Free energy of the ion-electron system (eV)
  ---------------------------------------------------
  alpha Z        PSCENC =         0.26547520
  Ewald energy   TEWEN  =      2045.38593121
  -Hartree energ DENC   =     -2857.63293210
  -exchange      EXHF   =         0.00000000
  -V(xc)+E(xc)   XCENC  =        70.30015031
  PAW double counting   =       875.42520781     -851.77457183
  entropy T*S    EENTRO =        -0.00000000
  eigenvalues    EBANDS =      -351.43273224
  atomic energy  EATOM  =      1167.64380898
  ---------------------------------------------------
  free energy    TOTEN  =        98.18033733 eV

  energy without entropy =       98.18033733  energy(sigma->0) =       98.18033733


--------------------------------------------------------------------------------------------------------




--------------------------------------- Iteration      1(   3)  ---------------------------------------


    TRIAL :  cpu time      0.8514: real time      0.8517
    CORREC:  cpu time      0.0001: real time      0.0001
    --------------------------------------------
      LOOP:  cpu time      0.8634: real time      0.8819

 eigenvalue-minimisations  :    88
 total energy-change (2. order) :-0.1243044E+03  (-0.1205610E+03)
 number of electron      30.0000000 magnetization 
 augmentation part       30.0000000 magnetization 

 Free energy of the ion-electron system (eV)
  ---------------------------------------------------
  alpha Z        PSCENC =         0.26547520
  Ewald energy   TEWEN  =      2045.38593121
  -Hartree energ DENC   =     -2857.63293210
  -exchange      EXHF   =         0.00000000
  -V(xc)+E(xc)   XCENC  =        70.30015031
  PAW double counting   =       875.42520781     -851.77457183
  entropy T*S    EENTRO =        -0.00000000
  eigenvalues    EBANDS =      -475.73715643
  atomic energy  EATOM  =      1167.64380898
  ---------------------------------------------------
  free energy    TOTEN  =       -26.12408686 eV

  energy without entropy =      -26.12408686  energy(sigma->0) =      -26.12408686


--------------------------------------------------------------------------------------------------------




--------------------------------------- Iteration      1(   4)  ---------------------------------------


    TRIAL :  cpu time      0.6097: real time      0.6102
    CORREC:  cpu time      0.0001: real time      0.0001
    --------------------------------------------
      LOOP:  cpu time      0.6392: real time      0.6398

 eigenvalue-minimisations  :    56
 total energy-change (2. order) :-0.4366202E+02  (-0.4358267E+02)
 number of electron      30.0000000 magnetization 
 augmentation part       30.0000000 magnetization 

 Free energy of the ion-electron system (eV)
  ---------------------------------------------------
  alpha Z        PSCENC =         0.26547520
  Ewald energy   TEWEN  =      2045.38593121
  -Hartree energ DENC   =     -2857.63293210
  -exchange      EXHF   =         0.00000000
  -V(xc)+E(xc)   XCENC  =        70.30015031
  PAW double counting   =       875.42520781     -851.77457183
  entropy T*S    EENTRO =        -0.00000000
  eigenvalues    EBANDS =      -519.39918143
  atomic energy  EATOM  =      1167.64380898
  ---------------------------------------------------
  free energy    TOTEN  =       -69.78611186 eV

  energy without entropy =      -69.78611186  energy(sigma->0) =      -69.78611186


--------------------------------------------------------------------------------------------------------




--------------------------------------- Iteration      1(   5)  ---------------------------------------


    TRIAL :  cpu time      0.7895: real time      0.7898
    CORREC:  cpu time      0.0001: real time      0.0001
    CHARGE:  cpu time      0.2085: real time      0.2104
    --------------------------------------------
      LOOP:  cpu time      1.0120: real time      1.0299

 eigenvalue-minimisations  :    80
 total energy-change (2. order) :-0.2365965E+01  (-0.2362172E+01)
 number of electron      30.0000000 magnetization 
 augmentation part       -0.0726406 magnetization 

 Free energy of the ion-electron system (eV)
  ---------------------------------------------------
  alpha Z        PSCENC =         0.26547520
  Ewald energy   TEWEN  =      2045.38593121
  -Hartree energ DENC   =     -2857.63293210
  -exchange      EXHF   =         0.00000000
  -V(xc)+E(xc)   XCENC  =        70.30015031
  PAW double counting   =       875.42520781     -851.77457183
  entropy T*S    EENTRO =        -0.00000000
  eigenvalues    EBANDS =      -521.76514603
  atomic energy  EATOM  =      1167.64380898
  ---------------------------------------------------
  free energy    TOTEN  =       -72.15207646 eV

  energy without entropy =      -72.15207646  energy(sigma->0) =      -72.15207646


--------------------------------------------------------------------------------------------------------




--------------------------------------- Iteration      1(   6)  ---------------------------------------


    POTLOK:  cpu time      0.6133: real time      0.6138
    SETDIJ:  cpu time      0.0124: real time      0.0124
    TRIAL :  cpu time      0.3925: real time      0.3934
    CORREC:  cpu time      0.9151: real time      0.9167
    CHARGE:  cpu time      0.1687: real time      0.1689
    --------------------------------------------
      LOOP:  cpu time      2.1186: real time      2.1351

 eigenvalue-minimisations  :     0
 total energy-change (2. order) : 0.9847508E+01  (-0.3572657E+01)
 number of electron      30.0000000 magnetization 
 augmentation part       -0.0787900 magnetization 

 Free energy of the ion-electron system (eV)
  ---------------------------------------------------
  alpha Z        PSCENC =         0.26547520
  Ewald energy   TEWEN  =      2045.38593121
  -Hartree energ DENC   =     -3094.56338947
  -exchange      EXHF   =         0.00000000
  -V(xc)+E(xc)   XCENC  =        80.07319444
  PAW double counting   =      9774.55612350    -9752.07151684
  entropy T*S    EENTRO =        -0.00000000
  eigenvalues    EBANDS =      -283.59419502
  atomic energy  EATOM  =      1167.64380898
  ---------------------------------------------------
  free energy    TOTEN  =       -62.30456800 eV

  energy without entropy =      -62.30456800  energy(sigma->0) =      -62.30456800


--------------------------------------------------------------------------------------------------------




--------------------------------------- Iteration      1(   7)  ---------------------------------------


    POTLOK:  cpu time      0.6136: real time      0.6139
    SETDIJ:  cpu time      0.0151: real time      0.0151
    TRIAL :  cpu time      0.3796: real time      0.3796
    CORREC:  cpu time      0.9082: real time      0.9089
    CHARGE:  cpu time      0.1692: real time      0.1693
    --------------------------------------------
      LOOP:  cpu time      2.1026: real time      2.1171

 eigenvalue-minimisations  :     0
 total energy-change (2. order) :-0.3609808E+01  (-0.3590963E+00)
 number of electron      30.0000000 magnetization 
 augmentation part       -0.0895729 magnetization 

 Free energy of the ion-electron system (eV)
  ---------------------------------------------------
  alpha Z        PSCENC =         0.26547520
  Ewald energy   TEWEN  =      2045.38593121
  -Hartree energ DENC   =     -2992.62050993
  -exchange      EXHF   =         0.00000000
  -V(xc)+E(xc)   XCENC  =        76.33212611
  PAW double counting   =     11892.52804727   -11869.57024369
  entropy T*S    EENTRO =        -0.00000000
  eigenvalues    EBANDS =      -385.87901147
  atomic energy  EATOM  =      1167.64380898
  ---------------------------------------------------
  free energy    TOTEN  =       -65.91437632 eV

  energy without entropy =      -65.91437632  energy(sigma->0) =      -65.91437632


--------------------------------------------------------------------------------------------------------




--------------------------------------- Iteration      1(   8)  ---------------------------------------


    POTLOK:  cpu time      0.6113: real time      0.6120
    SETDIJ:  cpu time      0.0193: real time      0.0193
    TRIAL :  cpu time      0.3789: real time      0.3790
    CORREC:  cpu time      0.9089: real time      0.9095
    CHARGE:  cpu time      0.1688: real time      0.1690
    --------------------------------------------
      LOOP:  cpu time      2.1026: real time      2.1192

 eigenvalue-minimisations  :     0
 total energy-change (2. order) :-0.3599494E+00  (-0.1315339E+00)
 number of electron      30.0000000 magnetization 
 augmentation part       -0.0913413 magnetization 

 Free energy of the ion-electron system (eV)
  ---------------------------------------------------
  alpha Z        PSCENC =         0.26547520
  Ewald energy   TEWEN  =      2045.38593121
  -Hartree energ DENC   =     -2990.26734508
  -exchange      EXHF   =         0.00000000
  -V(xc)+E(xc)   XCENC  =        76.24335360
  PAW double counting   =     12564.07813185   -12541.04982429
  entropy T*S    EENTRO =        -0.00000000
  eigenvalues    EBANDS =      -388.57385719
  atomic energy  EATOM  =      1167.64380898
  ---------------------------------------------------
  free energy    TOTEN  =       -66.27432572 eV

  energy without entropy =      -66.27432572  energy(sigma->0) =      -66.27432572


--------------------------------------------------------------------------------------------------------




--------------------------------------- Iteration      1(   9)  ---------------------------------------


    POTLOK:  cpu time      0.6208: real time      0.6213
    SETDIJ:  cpu time      0.0075: real time      0.0075
    TRIAL :  cpu time      0.3807: real time      0.3808
    CORREC:  cpu time      0.9080: real time      0.9088
    CHARGE:  cpu time      0.1693: real time      0.1696
    --------------------------------------------
      LOOP:  cpu time      2.1009: real time      2.1177

 eigenvalue-minimisations  :     0
 total energy-change (2. order) :-0.1313455E+00  (-0.6713308E-01)
 number of electron      30.0000000 magnetization 
 augmentation part       -0.0923956 magnetization 

 Free energy of the ion-electron system (eV)
  ---------------------------------------------------
  alpha Z        PSCENC =         0.26547520
  Ewald energy   TEWEN  =      2045.38593121
  -Hartree energ DENC   =     -2988.95023919
  -exchange      EXHF   =         0.00000000
  -V(xc)+E(xc)   XCENC  =        76.18473434
  PAW double counting   =     12816.19345539   -12793.13294615
  entropy T*S    EENTRO =        -0.00000000
  eigenvalues    EBANDS =      -389.99589100
  atomic energy  EATOM  =      1167.64380898
  ---------------------------------------------------
  free energy    TOTEN  =       -66.40567123 eV

  energy without entropy =      -66.40567123  energy(sigma->0) =      -66.40567123


--------------------------------------------------------------------------------------------------------




--------------------------------------- Iteration      1(  10)  ---------------------------------------


    POTLOK:  cpu time      0.6213: real time      0.6214
    SETDIJ:  cpu time      0.0092: real time      0.0092
    TRIAL :  cpu time      0.3781: real time      0.3785
    CORREC:  cpu time      0.9042: real time      0.9044
    CHARGE:  cpu time      0.1695: real time      0.1700
    --------------------------------------------
      LOOP:  cpu time      2.1120: real time      2.1135

 eigenvalue-minimisations  :     0
 total energy-change (2. order) :-0.6612909E-01  (-0.2377200E-01)
 number of electron      30.0000000 magnetization 
 augmentation part       -0.0929505 magnetization 

 Free energy of the ion-electron system (eV)
  ---------------------------------------------------
  alpha Z        PSCENC =         0.26547520
  Ewald energy   TEWEN  =      2045.38593121
  -Hartree energ DENC   =     -2985.78352204
  -exchange      EXHF   =         0.00000000
  -V(xc)+E(xc)   XCENC  =        76.10018368
  PAW double counting   =     12715.15429456   -12692.08395111
  entropy T*S    EENTRO =        -0.00000000
  eigenvalues    EBANDS =      -393.15402079
  atomic energy  EATOM  =      1167.64380898
  ---------------------------------------------------
  free energy    TOTEN  =       -66.47180032 eV

  energy without entropy =      -66.47180032  energy(sigma->0) =      -66.47180032


--------------------------------------------------------------------------------------------------------




--------------------------------------- Iteration      1(  11)  ---------------------------------------


    POTLOK:  cpu time      0.6072: real time      0.6074
    SETDIJ:  cpu time      0.0156: real time      0.0156
    TRIAL :  cpu time      0.3803: real time      0.3807
    CORREC:  cpu time      0.8887: real time      0.8894
    CHARGE:  cpu time      0.1701: real time      0.1703
    --------------------------------------------
      LOOP:  cpu time      2.0773: real time      2.0932

 eigenvalue-minimisations  :     0
 total energy-change (2. order) :-0.2358462E-01  (-0.6584224E-02)
 number of electron      30.0000000 magnetization 
 augmentation part       -0.0927567 magnetization 

 Free energy of the ion-electron system (eV)
  ---------------------------------------------------
  alpha Z        PSCENC =         0.26547520
  Ewald energy   TEWEN  =      2045.38593121
  -Hartree energ DENC   =     -2984.82212256
  -exchange      EXHF   =         0.00000000
  -V(xc)+E(xc)   XCENC  =        76.08515126
  PAW double counting   =     12517.95815414   -12494.89670301
  entropy T*S    EENTRO =        -0.00000000
  eigenvalues    EBANDS =      -394.11508016
  atomic energy  EATOM  =      1167.64380898
  ---------------------------------------------------
  free energy    TOTEN  =       -66.49538495 eV

  energy without entropy =      -66.49538495  energy(sigma->0) =      -66.49538495


--------------------------------------------------------------------------------------------------------




--------------------------------------- Iteration      1(  12)  ---------------------------------------


    POTLOK:  cpu time      0.6039: real time      0.6040
    SETDIJ:  cpu time      0.0193: real time      0.0193
    TRIAL :  cpu time      0.3788: real time      0.3793
    CORREC:  cpu time      0.8924: real time      0.8932
    CHARGE:  cpu time      0.1703: real time      0.1704
    --------------------------------------------
      LOOP:  cpu time      2.0817: real time      2.1036

 eigenvalue-minimisations  :     0
 total energy-change (2. order) :-0.6572261E-02  (-0.1838519E-02)
 number of electron      30.0000000 magnetization 
 augmentation part       -0.0926353 magnetization 

 Free energy of the ion-electron system (eV)
  ---------------------------------------------------
  alpha Z        PSCENC =         0.26547520
  Ewald energy   TEWEN  =      2045.38593121
  -Hartree energ DENC   =     -2984.62092528
  -exchange      EXHF   =         0.00000000
  -V(xc)+E(xc)   XCENC  =        76.07436091
  PAW double counting   =     12431.65773500   -12408.60296489
  entropy T*S    EENTRO =        -0.00000000
  eigenvalues    EBANDS =      -394.30537833
  atomic energy  EATOM  =      1167.64380898
  ---------------------------------------------------
  free energy    TOTEN  =       -66.50195721 eV

  energy without entropy =      -66.50195721  energy(sigma->0) =      -66.50195721


--------------------------------------------------------------------------------------------------------




--------------------------------------- Iteration      1(  13)  ---------------------------------------


    POTLOK:  cpu time      0.6033: real time      0.6036
    SETDIJ:  cpu time      0.0142: real time      0.0142
    TRIAL :  cpu time      0.3795: real time      0.3796
    CORREC:  cpu time      0.8920: real time      0.8926
    CHARGE:  cpu time      0.1700: real time      0.1701
    --------------------------------------------
      LOOP:  cpu time      2.0757: real time      2.0912

 eigenvalue-minimisations  :     0
 total energy-change (2. order) :-0.1838911E-02  (-0.5696042E-03)
 number of electron      30.0000000 magnetization 
 augmentation part       -0.0926253 magnetization 

 Free energy of the ion-electron system (eV)
  ---------------------------------------------------
  alpha Z        PSCENC =         0.26547520
  Ewald energy   TEWEN  =      2045.38593121
  -Hartree energ DENC   =     -2984.43633428
  -exchange      EXHF   =         0.00000000
  -V(xc)+E(xc)   XCENC  =        76.06248562
  PAW double counting   =     12422.88030854   -12399.82767257
  entropy T*S    EENTRO =        -0.00000000
  eigenvalues    EBANDS =      -394.47779881
  atomic energy  EATOM  =      1167.64380898
  ---------------------------------------------------
  free energy    TOTEN  =       -66.50379612 eV

  energy without entropy =      -66.50379612  energy(sigma->0) =      -66.50379612


--------------------------------------------------------------------------------------------------------




--------------------------------------- Iteration      1(  14)  ---------------------------------------


    POTLOK:  cpu time      0.5951: real time      0.5958
    SETDIJ:  cpu time      0.0167: real time      0.0167
    TRIAL :  cpu time      0.3790: real time      0.3791
    CORREC:  cpu time      0.8843: real time      0.8852
    CHARGE:  cpu time      0.1695: real time      0.1696
    --------------------------------------------
      LOOP:  cpu time      2.0573: real time      2.0756

 eigenvalue-minimisations  :     0
 total energy-change (2. order) :-0.5697359E-03  (-0.2216925E-03)
 number of electron      30.0000000 magnetization 
 augmentation part       -0.0926298 magnetization 

 Free energy of the ion-electron system (eV)
  ---------------------------------------------------
  alpha Z        PSCENC =         0.26547520
  Ewald energy   TEWEN  =      2045.38593121
  -Hartree energ DENC   =     -2984.58310122
  -exchange      EXHF   =         0.00000000
  -V(xc)+E(xc)   XCENC  =        76.06551064
  PAW double counting   =     12435.99739032   -12412.94584499
  entropy T*S    EENTRO =        -0.00000000
  eigenvalues    EBANDS =      -394.33353599
  atomic energy  EATOM  =      1167.64380898
  ---------------------------------------------------
  free energy    TOTEN  =       -66.50436586 eV

  energy without entropy =      -66.50436586  energy(sigma->0) =      -66.50436586


--------------------------------------------------------------------------------------------------------




--------------------------------------- Iteration      1(  15)  ---------------------------------------


    POTLOK:  cpu time      0.5919: real time      0.5923
    SETDIJ:  cpu time      0.0148: real time      0.0148
    TRIAL :  cpu time      0.3798: real time      0.3799
    CORREC:  cpu time      0.8786: real time      0.8794
    CHARGE:  cpu time      0.1689: real time      0.1691
    --------------------------------------------
      LOOP:  cpu time      2.0648: real time      2.0664

 eigenvalue-minimisations  :     0
 total energy-change (2. order) :-0.2219727E-03  (-0.9731639E-04)
 number of electron      30.0000000 magnetization 
 augmentation part       -0.0926229 magnetization 

 Free energy of the ion-electron system (eV)
  ---------------------------------------------------
  alpha Z        PSCENC =         0.26547520
  Ewald energy   TEWEN  =      2045.38593121
  -Hartree energ DENC   =     -2984.71651760
  -exchange      EXHF   =         0.00000000
  -V(xc)+E(xc)   XCENC  =        76.06919130
  PAW double counting   =     12449.95744891   -12426.90604123
  entropy T*S    EENTRO =        -0.00000000
  eigenvalues    EBANDS =      -394.20388459
  atomic energy  EATOM  =      1167.64380898
  ---------------------------------------------------
  free energy    TOTEN  =       -66.50458783 eV

  energy without entropy =      -66.50458783  energy(sigma->0) =      -66.50458783


--------------------------------------------------------------------------------------------------------




--------------------------------------- Iteration      1(  16)  ---------------------------------------


    POTLOK:  cpu time      0.5856: real time      0.5861
    SETDIJ:  cpu time      0.0162: real time      0.0162
    TRIAL :  cpu time      0.3795: real time      0.3795
    CORREC:  cpu time      0.8797: real time      0.8802
    CHARGE:  cpu time      0.1694: real time      0.1695
    --------------------------------------------
      LOOP:  cpu time      2.0425: real time      2.0607

 eigenvalue-minimisations  :     0
 total energy-change (2. order) :-0.9774137E-04  (-0.3718239E-04)
 number of electron      30.0000000 magnetization 
 augmentation part       -0.0926021 magnetization 

 Free energy of the ion-electron system (eV)
  ---------------------------------------------------
  alpha Z        PSCENC =         0.26547520
  Ewald energy   TEWEN  =      2045.38593121
  -Hartree energ DENC   =     -2984.72787375
  -exchange      EXHF   =         0.00000000
  -V(xc)+E(xc)   XCENC  =        76.06924776
  PAW double counting   =     12456.46741463   -12433.41554473
  entropy T*S    EENTRO =        -0.00000000
  eigenvalues    EBANDS =      -394.19314485
  atomic energy  EATOM  =      1167.64380898
  ---------------------------------------------------
  free energy    TOTEN  =       -66.50468557 eV

  energy without entropy =      -66.50468557  energy(sigma->0) =      -66.50468557


--------------------------------------------------------------------------------------------------------




--------------------------------------- Iteration      1(  17)  ---------------------------------------


    POTLOK:  cpu time      0.5815: real time      0.5821
    SETDIJ:  cpu time      0.0164: real time      0.0164
    TRIAL :  cpu time      0.3786: real time      0.3788
    CORREC:  cpu time      0.8757: real time      0.8765
    CHARGE:  cpu time      0.1709: real time      0.1710
    --------------------------------------------
      LOOP:  cpu time      2.0364: real time      2.0546

 eigenvalue-minimisations  :     0
 total energy-change (2. order) :-0.3734612E-04  (-0.1275995E-04)
 number of electron      30.0000000 magnetization 
 augmentation part       -0.0925925 magnetization 

 Free energy of the ion-electron system (eV)
  ---------------------------------------------------
  alpha Z        PSCENC =         0.26547520
  Ewald energy   TEWEN  =      2045.38593121
  -Hartree energ DENC   =     -2984.77965987
  -exchange      EXHF   =         0.00000000
  -V(xc)+E(xc)   XCENC  =        76.07131071
  PAW double counting   =     12455.42854035   -12432.37655246
  entropy T*S    EENTRO =        -0.00000000
  eigenvalues    EBANDS =      -394.14357702
  atomic energy  EATOM  =      1167.64380898
  ---------------------------------------------------
  free energy    TOTEN  =       -66.50472292 eV

  energy without entropy =      -66.50472292  energy(sigma->0) =      -66.50472292


--------------------------------------------------------------------------------------------------------




--------------------------------------- Iteration      1(  18)  ---------------------------------------


    POTLOK:  cpu time      0.5873: real time      0.5877
    SETDIJ:  cpu time      0.0096: real time      0.0096
    TRIAL :  cpu time      0.3804: real time      0.3805
    CORREC:  cpu time      0.8777: real time      0.8785
    CHARGE:  cpu time      0.1691: real time      0.1693
    --------------------------------------------
      LOOP:  cpu time      2.0530: real time      2.0548

 eigenvalue-minimisations  :     0
 total energy-change (2. order) :-0.1282806E-04  (-0.4677860E-05)
 number of electron      30.0000000 magnetization 
 augmentation part       -0.0925932 magnetization 

 Free energy of the ion-electron system (eV)
  ---------------------------------------------------
  alpha Z        PSCENC =         0.26547520
  Ewald energy   TEWEN  =      2045.38593121
  -Hartree energ DENC   =     -2984.78074821
  -exchange      EXHF   =         0.00000000
  -V(xc)+E(xc)   XCENC  =        76.07165524
  PAW double counting   =     12453.46471118   -12430.41261777
  entropy T*S    EENTRO =        -0.00000000
  eigenvalues    EBANDS =      -394.14295156
  atomic energy  EATOM  =      1167.64380898
  ---------------------------------------------------
  free energy    TOTEN  =       -66.50473574 eV

  energy without entropy =      -66.50473574  energy(sigma->0) =      -66.50473574


--------------------------------------------------------------------------------------------------------




--------------------------------------- Iteration      1(  19)  ---------------------------------------


    POTLOK:  cpu time      0.5815: real time      0.5819
    SETDIJ:  cpu time      0.0161: real time      0.0161
    TRIAL :  cpu time      0.3800: real time      0.3801
    CORREC:  cpu time      0.8767: real time      0.8775
    CHARGE:  cpu time      0.1692: real time      0.1693
    --------------------------------------------
      LOOP:  cpu time      2.0384: real time      2.0549

 eigenvalue-minimisations  :     0
 total energy-change (2. order) :-0.4684705E-05  (-0.2095817E-05)
 number of electron      30.0000000 magnetization 
 augmentation part       -0.0925977 magnetization 

 Free energy of the ion-electron system (eV)
  ---------------------------------------------------
  alpha Z        PSCENC =         0.26547520
  Ewald energy   TEWEN  =      2045.38593121
  -Hartree energ DENC   =     -2984.77031410
  -exchange      EXHF   =         0.00000000
  -V(xc)+E(xc)   XCENC  =        76.07143336
  PAW double counting   =     12452.58299761   -12429.53084540
  entropy T*S    EENTRO =        -0.00000000
  eigenvalues    EBANDS =      -394.15322729
  atomic energy  EATOM  =      1167.64380898
  ---------------------------------------------------
  free energy    TOTEN  =       -66.50474043 eV

  energy without entropy =      -66.50474043  energy(sigma->0) =      -66.50474043


--------------------------------------------------------------------------------------------------------




--------------------------------------- Iteration      1(  20)  ---------------------------------------


    POTLOK:  cpu time      0.5809: real time      0.5814
    SETDIJ:  cpu time      0.0147: real time      0.0147
    TRIAL :  cpu time      0.3795: real time      0.3795
    CORREC:  cpu time      0.8763: real time      0.8772
    CHARGE:  cpu time      0.1699: real time      0.1700
    --------------------------------------------
      LOOP:  cpu time      2.0355: real time      2.0532

 eigenvalue-minimisations  :     0
 total energy-change (2. order) :-0.2041970E-05  (-0.8721915E-06)
 number of electron      30.0000000 magnetization 
 augmentation part       -0.0926030 magnetization 

 Free energy of the ion-electron system (eV)
  ---------------------------------------------------
  alpha Z        PSCENC =         0.26547520
  Ewald energy   TEWEN  =      2045.38593121
  -Hartree energ DENC   =     -2984.77155197
  -exchange      EXHF   =         0.00000000
  -V(xc)+E(xc)   XCENC  =        76.07152395
  PAW double counting   =     12452.27837584   -12429.22624578
  entropy T*S    EENTRO =        -0.00000000
  eigenvalues    EBANDS =      -394.15205990
  atomic energy  EATOM  =      1167.64380898
  ---------------------------------------------------
  free energy    TOTEN  =       -66.50474247 eV

  energy without entropy =      -66.50474247  energy(sigma->0) =      -66.50474247


--------------------------------------------------------------------------------------------------------




--------------------------------------- Iteration      1(  21)  ---------------------------------------


    POTLOK:  cpu time      0.5864: real time      0.5869
    SETDIJ:  cpu time      0.0106: real time      0.0106
    TRIAL :  cpu time      0.3802: real time      0.3803
    CORREC:  cpu time      0.8827: real time      0.8832
    CHARGE:  cpu time      0.1701: real time      0.1703
    --------------------------------------------
      LOOP:  cpu time      2.0481: real time      2.0615

 eigenvalue-minimisations  :     0
 total energy-change (2. order) :-0.8510196E-06  (-0.3455923E-06)
 number of electron      30.0000000 magnetization 
 augmentation part       -0.0926035 magnetization 

 Free energy of the ion-electron system (eV)
  ---------------------------------------------------
  alpha Z        PSCENC =         0.26547520
  Ewald energy   TEWEN  =      2045.38593121
  -Hartree energ DENC   =     -2984.76025686
  -exchange      EXHF   =         0.00000000
  -V(xc)+E(xc)   XCENC  =        76.07112213
  PAW double counting   =     12452.12883536   -12429.07669876
  entropy T*S    EENTRO =        -0.00000000
  eigenvalues    EBANDS =      -394.16296058
  atomic energy  EATOM  =      1167.64380898
  ---------------------------------------------------
  free energy    TOTEN  =       -66.50474332 eV

  energy without entropy =      -66.50474332  energy(sigma->0) =      -66.50474332


--------------------------------------------------------------------------------------------------------




--------------------------------------- Iteration      1(  22)  ---------------------------------------


    POTLOK:  cpu time      0.5824: real time      0.5830
    SETDIJ:  cpu time      0.0471: real time      0.0471
    TRIAL :  cpu time      0.3813: real time      0.3814
    CORREC:  cpu time      0.8764: real time      0.8771
    CHARGE:  cpu time      0.1697: real time      0.1702
    --------------------------------------------
      LOOP:  cpu time      2.0796: real time      2.0949

 eigenvalue-minimisations  :     0
 total energy-change (2. order) :-0.3285877E-06  (-0.1095064E-06)
 number of electron      30.0000000 magnetization 
 augmentation part       -0.0926043 magnetization 

 Free energy of the ion-electron system (eV)
  ---------------------------------------------------
  alpha Z        PSCENC =         0.26547520
  Ewald energy   TEWEN  =      2045.38593121
  -Hartree energ DENC   =     -2984.76308333
  -exchange      EXHF   =         0.00000000
  -V(xc)+E(xc)   XCENC  =        76.07117959
  PAW double counting   =     12451.86794297   -12428.81583990
  entropy T*S    EENTRO =        -0.00000000
  eigenvalues    EBANDS =      -394.16015837
  atomic energy  EATOM  =      1167.64380898
  ---------------------------------------------------
  free energy    TOTEN  =       -66.50474365 eV

  energy without entropy =      -66.50474365  energy(sigma->0) =      -66.50474365


--------------------------------------------------------------------------------------------------------




--------------------------------------- Iteration      1(  23)  ---------------------------------------


    POTLOK:  cpu time      0.5813: real time      0.5815
    SETDIJ:  cpu time      0.0168: real time      0.0168
    TRIAL :  cpu time      0.3773: real time      0.3778
    CORREC:  cpu time      0.8756: real time      0.8758
    CHARGE:  cpu time      0.1685: real time      0.1689
    --------------------------------------------
      LOOP:  cpu time      2.0348: real time      2.0513

 eigenvalue-minimisations  :     0
 total energy-change (2. order) :-0.1071858E-06  (-0.4437342E-07)
 number of electron      30.0000000 magnetization 
 augmentation part       -0.0926045 magnetization 

 Free energy of the ion-electron system (eV)
  ---------------------------------------------------
  alpha Z        PSCENC =         0.26547520
  Ewald energy   TEWEN  =      2045.38593121
  -Hartree energ DENC   =     -2984.76090414
  -exchange      EXHF   =         0.00000000
  -V(xc)+E(xc)   XCENC  =        76.07107533
  PAW double counting   =     12451.79989137   -12428.74778730
  entropy T*S    EENTRO =        -0.00000000
  eigenvalues    EBANDS =      -394.16223440
  atomic energy  EATOM  =      1167.64380898
  ---------------------------------------------------
  free energy    TOTEN  =       -66.50474376 eV

  energy without entropy =      -66.50474376  energy(sigma->0) =      -66.50474376


--------------------------------------------------------------------------------------------------------




--------------------------------------- Iteration      1(  24)  ---------------------------------------


    POTLOK:  cpu time      0.5798: real time      0.5800
    SETDIJ:  cpu time      0.0179: real time      0.0179
    TRIAL :  cpu time      0.3782: real time      0.3789
    CORREC:  cpu time      0.8734: real time      0.8737
    EDDIAG:  cpu time      0.1714: real time      0.1724
    CHARGE:  cpu time      0.1701: real time      0.1702
    --------------------------------------------
      LOOP:  cpu time      2.2048: real time      2.2228

 eigenvalue-minimisations  :     0
 total energy-change (2. order) :-0.3986315E-07  (-0.1723693E-07)
 number of electron      30.0000000 magnetization 
 augmentation part       -0.0926046 magnetization 

 Free energy of the ion-electron system (eV)
  ---------------------------------------------------
  alpha Z        PSCENC =         0.26547520
  Ewald energy   TEWEN  =      2045.38593121
  -Hartree energ DENC   =     -2984.76212822
  -exchange      EXHF   =         0.00000000
  -V(xc)+E(xc)   XCENC  =        76.07110510
  PAW double counting   =     12451.85727290   -12428.80516946
  entropy T*S    EENTRO =        -0.00000000
  eigenvalues    EBANDS =      -394.16103950
  atomic energy  EATOM  =      1167.64380898
  ---------------------------------------------------
  free energy    TOTEN  =       -66.50474380 eV

  energy without entropy =      -66.50474380  energy(sigma->0) =      -66.50474380


--------------------------------------------------------------------------------------------------------


  average scaling for gradient   0.9329


 average (electrostatic) potential at core
  the test charge radii are     0.5770  0.4325  0.5902
  (the norm of the test charge is              1.0000)
       1 -87.3318       2 -87.3320       3 -87.3322       4 -87.3320       5 -45.4914
       6 -45.4929       7 -45.4921       8 -45.4924       9-104.0356      10-104.0362



 E-fermi :  -5.7247     XC(G=0):  -0.1514     alpha+bet : -0.0672

 Fermi energy:        -5.7247198096

 k-point     1 :       0.0000    0.0000    0.0000
  band No.  band energies     occupation 
      1     -24.6747      2.00000
      2     -22.7653      2.00000
      3     -19.4099      2.00000
      4     -16.4186      2.00000
      5     -16.3677      2.00000
      6     -13.0299      2.00000
      7     -12.8428      2.00000
      8     -12.0160      2.00000
      9     -10.7402      2.00000
     10     -10.6983      2.00000
     11      -9.4934      2.00000
     12      -8.4007      2.00000
     13      -7.3250      2.00000
     14      -7.0776      2.00000
     15      -5.8202      2.00000
     16      -2.6050      0.00000
     17      -1.8426      0.00000
     18      -0.4573      0.00000
     19      -0.0867      0.00000
     20       0.1237      0.00000
     21       0.2140      0.00000
     22       0.2822      0.00000
     23       0.3688      0.00000
     24       0.5895      0.00000


--------------------------------------------------------------------------------------------------------


 soft charge-density along one line, spin component           1
         0         1         2         3         4         5         6         7         8         9
 total charge-density along one line

 pseudopotential strength for first ion, spin component:           1
 12.766  21.484   0.006  -0.002   0.004   0.011  -0.004   0.007
 21.484  36.155   0.010  -0.004   0.006   0.018  -0.007   0.011
  0.006   0.010  -3.195  -0.000  -0.001  -5.729  -0.001  -0.001
 -0.002  -0.004  -0.000  -3.196   0.000  -0.001  -5.730   0.000
  0.004   0.006  -0.001   0.000  -3.194  -0.001   0.000  -5.728
  0.011   0.018  -5.729  -0.001  -0.001 -10.249  -0.001  -0.002
 -0.004  -0.007  -0.001  -5.730   0.000  -0.001 -10.252   0.001
  0.007   0.011  -0.001   0.000  -5.728  -0.002   0.001 -10.248
 total augmentation occupancy for first ion, spin component:           1
  7.898  -2.787   1.059  -0.437  -0.098  -0.509   0.210   0.025
 -2.787   1.035  -0.563   0.232   0.010   0.257  -0.106   0.002
  1.059  -0.563   6.583  -1.479   0.633  -2.213   0.590  -0.313
 -0.437   0.232  -1.479   3.605  -0.261   0.590  -1.026   0.129
 -0.098   0.010   0.633  -0.261   7.437  -0.313   0.129  -2.537
 -0.509   0.257  -2.213   0.590  -0.313   0.763  -0.228   0.146
  0.210  -0.106   0.590  -1.026   0.129  -0.228   0.303  -0.060
  0.025   0.002  -0.313   0.129  -2.537   0.146  -0.060   0.885


------------------------ aborting loop because EDIFF is reached ----------------------------------------


    FORLOC:  cpu time      0.0360: real time      0.0360
    FORNL :  cpu time      0.0257: real time      0.0264
    FORCOR:  cpu time      0.5096: real time      0.5096
    OFIELD:  cpu time      0.0065: real time      0.0065

 VOLUME and BASIS-vectors are now :
 -----------------------------------------------------------------------------
  energy-cutoff  :     1000.00
  volume of cell :    10648.00
      direct lattice vectors                 reciprocal lattice vectors
    22.000000000  0.000000000  0.000000000     0.045454545  0.000000000  0.000000000
     0.000000000 22.000000000  0.000000000     0.000000000  0.045454545  0.000000000
     0.000000000  0.000000000 22.000000000     0.000000000  0.000000000  0.045454545

  length of vectors
    22.000000000 22.000000000 22.000000000     0.045454545  0.045454545  0.045454545


 FORCES acting on ions:
    Electron-Ion                     Ewald-Force                    Non-Local-Force
 -----------------------------------------------------------------------------------------------
   -.836E+02 0.176E+03 -.725E+02   0.813E+02 -.179E+03 0.739E+02   0.241E+01 0.330E+01 -.136E+01
   0.836E+02 0.176E+03 -.726E+02   -.813E+02 -.179E+03 0.739E+02   -.241E+01 0.330E+01 -.136E+01
   0.836E+02 -.176E+03 0.726E+02   -.813E+02 0.179E+03 -.739E+02   -.241E+01 -.330E+01 0.136E+01
   -.836E+02 -.176E+03 0.726E+02   0.813E+02 0.179E+03 -.739E+02   0.241E+01 -.330E+01 0.136E+01
   -.420E+02 0.667E+02 -.275E+02   0.452E+02 -.715E+02 0.295E+02   -.305E+01 0.463E+01 -.191E+01
   0.420E+02 0.668E+02 -.275E+02   -.451E+02 -.715E+02 0.295E+02   0.305E+01 0.464E+01 -.191E+01
   0.420E+02 -.668E+02 0.275E+02   -.451E+02 0.715E+02 -.295E+02   0.305E+01 -.463E+01 0.191E+01
   -.420E+02 -.667E+02 0.275E+02   0.452E+02 0.715E+02 -.295E+02   -.305E+01 -.463E+01 0.191E+01
   -.279E+03 -.229E-01 -.393E-01   0.316E+03 0.238E-01 0.442E-01   -.375E+02 0.175E-02 -.701E-02
   0.279E+03 -.283E-01 -.341E-01   -.316E+03 0.320E-01 0.384E-01   0.375E+02 -.249E-02 -.583E-02
 -----------------------------------------------------------------------------------------------
   -.354E-02 0.966E-03 0.557E-02   -.568E-13 0.457E-13 -.822E-14   0.354E-02 -.990E-03 -.561E-02


 POSITION                                       TOTAL-FORCE (eV/Angst)
 -----------------------------------------------------------------------------------
     11.69754      9.95150     11.43245         0.011078      0.043920     -0.017834
     10.30241      9.95149     11.43252        -0.005274      0.046746     -0.019804
     10.30246     12.04847     10.56756        -0.005644     -0.044602      0.019954
     11.69764     12.04854     10.56762         0.007122     -0.048725      0.020220
     12.25710      9.08625     11.78912         0.055175     -0.073728      0.030779
      9.74342      9.08610     11.78931        -0.060366     -0.075588      0.031575
      9.74342     12.91390     10.21069        -0.059059      0.073374     -0.030653
     12.25708     12.91372     10.21078         0.056841      0.074821     -0.030780
     12.40807     11.00001     11.00021         0.086359      0.002572     -0.002015
      9.59193     11.00003     11.00019        -0.086231      0.001210     -0.001441
 -----------------------------------------------------------------------------------
    total drift:                               -0.000008     -0.000024     -0.000041


--------------------------------------------------------------------------------------------------------



  FREE ENERGIE OF THE ION-ELECTRON SYSTEM (eV)
  ---------------------------------------------------
  free  energy   TOTEN  =       -66.50474380 eV

  energy  without entropy=      -66.50474380  energy(sigma->0) =      -66.50474380



--------------------------------------------------------------------------------------------------------


    POTLOK:  cpu time      0.5925: real time      0.5929


--------------------------------------------------------------------------------------------------------


 stress matrix after NEB project (eV)
      0.00000      0.00000      0.00000
      0.00000      0.00000      0.00000
      0.00000      0.00000      0.00000
  FORCES: max atom, RMS     0.101757    0.080315
  FORCE total and by dimension    0.253979    0.086359
  Stress total and by dimension    0.000000    0.000000
     LOOP+:  cpu time     45.4115: real time     45.7495
    4ORBIT:  cpu time      0.0000: real time      0.0000

 total amount of memory used by VASP MPI-rank0   108847. kBytes
=======================================================================

   base      :      30000. kBytes
   nonl-proj :       4201. kBytes
   fftplans  :      24880. kBytes
   grid      :      48046. kBytes
   one-center:          1. kBytes
   wavefun   :       1719. kBytes

  
  
 General timing and accounting informations for this job:
 ========================================================
  
                  Total CPU time used (sec):       76.310
                            User time (sec):       72.033
                          System time (sec):        4.277
                         Elapsed time (sec):       81.746
  
                   Maximum memory used (kb):      284052.
                   Average memory used (kb):          N/A
  
                          Minor page faults:       186602
                          Major page faults:          626
                 Voluntary context switches:         7638
