 vasp.6.4.1 05Apr23 (build Jun  6 2023 14:46:38) gamma-only                      
 executed on        HPECrayEX_GCC date 2024.08.22  01:56:10
 running  512 mpi-ranks, with    1 threads/rank, on    4 nodes
 distrk:  each k-point on  512 cores,    1 groups
 distr:  one band on NCORE=   2 cores,  256 groups


--------------------------------------------------------------------------------------------------------


 INCAR:
   ALGO = Conjugate
   NCORE = 2
   PREC = Accurate
   EDIFF = 1E-7
   ENCUT = 1000
   ISMEAR = 0
   SIGMA = 0.01
   ISIF = 0
   SYMPREC = 1E-7
   IVDW = 11
   LWAVE = .FALSE.
   LCHARG = .FALSE.
   LWAVE = .FALSE.
   LCHARG = .FALSE.

 POTCAR:    PAW_PBE C_h 06Feb2004                 
 POTCAR:    PAW_PBE H_h 06Feb2004                 
 POTCAR:    PAW_PBE N_h 06Feb2004                 
 POTCAR:    PAW_PBE C_h 06Feb2004                 
   VRHFIN =C: s2p2                                                                                  
   LEXCH  = PE                                                                                      
   EATOM  =   147.1560 eV,   10.8157 Ry                                                             
                                                                                                    
   TITEL  = PAW_PBE C_h 06Feb2004                                                                   
   LULTRA =        F    use ultrasoft PP ?                                                          
   IUNSCR =        1    unscreen: 0-lin 1-nonlin 2-no                                               
   RPACOR =    0.800    partial core radius                                                         
   POMASS =   12.011; ZVAL   =    4.000    mass and valenz                                          
   RCORE  =    1.100    outmost cutoff radius                                                       
   RWIGS  =    1.630; RWIGS  =    0.863    wigner-seitz radius (au A)                               
   ENMAX  =  700.000; ENMIN  =  500.000 eV                                                          
   ICORE  =        2    local potential                                                             
   LCOR   =        T    correct aug charges                                                         
   LPAW   =        T    paw PP                                                                      
   EAUG   =  946.768                                                                                
   DEXC   =    0.000                                                                                
   RMAX   =    1.128    core radius for proj-oper                                                   
   RAUG   =    1.300    factor for augmentation sphere                                              
   RDEP   =    1.162    radius for radial grids                                                     
   RDEPT  =    1.088    core radius for aug-charge                                                  
                                                                                                    
   Atomic configuration                                                                             
    4 entries                                                                                       
     n  l   j            E        occ.                                                              
     1  0  0.50      -273.3789   2.0000                                                             
     2  0  0.50       -13.7508   2.0000                                                             
     2  1  0.50        -5.2854   2.0000                                                             
     3  2  1.50        -5.4423   0.0000                                                             
   Description                                                                                      
     l       E           TYP  RCUT    TYP  RCUT                                                     
     0    -13.7508458     23  1.100                                                                 
     0     -8.2022199     23  1.100                                                                 
     1     -5.2854383     23  1.100                                                                 
     1      1.1560700     23  1.100                                                                 
     2     -5.4423304      7  1.100                                                                 
  local pseudopotential read in
  partial core-charges read in
  partial kinetic energy density read in
  atomic valenz-charges read in
  non local Contribution for L=           0  read in
    real space projection operators read in
  non local Contribution for L=           0  read in
    real space projection operators read in
  non local Contribution for L=           1  read in
    real space projection operators read in
  non local Contribution for L=           1  read in
    real space projection operators read in
    PAW grid and wavefunctions read in

   number of l-projection  operators is LMAX  =           4
   number of lm-projection operators is LMMAX =           8

 POTCAR:    PAW_PBE H_h 06Feb2004                 
   VRHFIN =H: ultrasoft test                                                                        
   LEXCH  = PE                                                                                      
   EATOM  =    12.4884 eV,    0.9179 Ry                                                             
                                                                                                    
   TITEL  = PAW_PBE H_h 06Feb2004                                                                   
   LULTRA =        F    use ultrasoft PP ?                                                          
   IUNSCR =        0    unscreen: 0-lin 1-nonlin 2-no                                               
   RPACOR =    0.000    partial core radius                                                         
   POMASS =    1.000; ZVAL   =    1.000    mass and valenz                                          
   RCORE  =    0.800    outmost cutoff radius                                                       
   RWIGS  =    0.700; RWIGS  =    0.370    wigner-seitz radius (au A)                               
   ENMAX  =  700.000; ENMIN  =  350.000 eV                                                          
   RCLOC  =    0.701    cutoff for local pot                                                        
   LCOR   =        T    correct aug charges                                                         
   LPAW   =        T    paw PP                                                                      
   EAUG   = 1000.000                                                                                
   RMAX   =    0.819    core radius for proj-oper                                                   
   RAUG   =    1.000    factor for augmentation sphere                                              
   RDEP   =    0.817    radius for radial grids                                                     
   RDEPT  =    0.817    core radius for aug-charge                                                  
                                                                                                    
   Atomic configuration                                                                             
    2 entries                                                                                       
     n  l   j            E        occ.                                                              
     1  0  0.50        -6.4927   1.0000                                                             
     2  1  0.50        -3.4015   0.0000                                                             
   Description                                                                                      
     l       E           TYP  RCUT    TYP  RCUT                                                     
     0     -6.4927493     23  0.800                                                                 
     0      6.8029130     23  0.800                                                                 
     1     -6.8029130     23  0.800                                                                 
  local pseudopotential read in
  atomic valenz-charges read in
  non local Contribution for L=           0  read in
    real space projection operators read in
  non local Contribution for L=           0  read in
    real space projection operators read in
  non local Contribution for L=           1  read in
    real space projection operators read in
    PAW grid and wavefunctions read in

   number of l-projection  operators is LMAX  =           3
   number of lm-projection operators is LMMAX =           5

 POTCAR:    PAW_PBE N_h 06Feb2004                 
   VRHFIN =N: s2p3                                                                                  
   LEXCH  = PE                                                                                      
   EATOM  =   264.5486 eV,   19.4438 Ry                                                             
                                                                                                    
   TITEL  = PAW_PBE N_h 06Feb2004                                                                   
   LULTRA =        F    use ultrasoft PP ?                                                          
   IUNSCR =        1    unscreen: 0-lin 1-nonlin 2-no                                               
   RPACOR =    0.800    partial core radius                                                         
   POMASS =   14.001; ZVAL   =    5.000    mass and valenz                                          
   RCORE  =    1.100    outmost cutoff radius                                                       
   RWIGS  =    1.480; RWIGS  =    0.783    wigner-seitz radius (au A)                               
   ENMAX  =  700.000; ENMIN  =  500.000 eV                                                          
   ICORE  =        2    local potential                                                             
   LCOR   =        T    correct aug charges                                                         
   LPAW   =        T    paw PP                                                                      
   EAUG   =  904.640                                                                                
   DEXC   =    0.000                                                                                
   RMAX   =    1.127    core radius for proj-oper                                                   
   RAUG   =    1.300    factor for augmentation sphere                                              
   RDEP   =    1.115    radius for radial grids                                                     
   RDEPT  =    1.106    core radius for aug-charge                                                  
                                                                                                    
   Atomic configuration                                                                             
    4 entries                                                                                       
     n  l   j            E        occ.                                                              
     1  0  0.50      -384.7179   2.0000                                                             
     2  0  0.50       -18.5828   2.0000                                                             
     2  1  0.50        -7.0898   3.0000                                                             
     3  2  1.50        -6.8029   0.0000                                                             
   Description                                                                                      
     l       E           TYP  RCUT    TYP  RCUT                                                     
     0    -18.5828117     23  1.100                                                                 
     0    -15.0750597     23  1.100                                                                 
     1     -7.0897851     23  1.100                                                                 
     1     -1.9663412     23  1.100                                                                 
     2     -6.8029130      7  1.100                                                                 
  local pseudopotential read in
  partial core-charges read in
  partial kinetic energy density read in
  kinetic energy density of atom read in
  atomic valenz-charges read in
  non local Contribution for L=           0  read in
    real space projection operators read in
  non local Contribution for L=           0  read in
    real space projection operators read in
  non local Contribution for L=           1  read in
    real space projection operators read in
  non local Contribution for L=           1  read in
    real space projection operators read in
    PAW grid and wavefunctions read in

   number of l-projection  operators is LMAX  =           4
   number of lm-projection operators is LMMAX =           8

  PAW_PBE C_h 06Feb2004                 :
 energy of atom  1       EATOM= -147.1560
 kinetic energy error for atom=    0.0031 (will be added to EATOM!!)
  PAW_PBE H_h 06Feb2004                 :
 energy of atom  2       EATOM=  -12.4884
 kinetic energy error for atom=    0.0006 (will be added to EATOM!!)
  PAW_PBE N_h 06Feb2004                 :
 energy of atom  3       EATOM= -264.5486
 kinetic energy error for atom=    0.0081 (will be added to EATOM!!)


 POSCAR:  C  H  N
  positions in cartesian coordinates
  No initial velocities read in
 exchange correlation table for  LEXCH =        8
   RHO(1)=    0.500       N(1)  =     2000
   RHO(2)=  100.500       N(2)  =     4000

 VTST: version 4.1, (05/19/21)

 CHAIN: initializing optimizer
 
 OPT: Using VASP Dynamics algorithm
 CHAIN: Read ICHAIN            0

 POSCAR:  C  H  N
  positions in cartesian coordinates
  No initial velocities read in



--------------------------------------------------------------------------------------------------------


 ion  position               nearest neighbor table
   1  0.532  0.452  0.520-   5 1.09   9 1.34   2 1.40
   2  0.468  0.452  0.520-   6 1.09  10 1.34   1 1.40
   3  0.468  0.548  0.480-   7 1.09  10 1.34   4 1.40
   4  0.532  0.548  0.480-   8 1.09   9 1.34   3 1.40
   5  0.557  0.413  0.536-   1 1.09
   6  0.443  0.413  0.536-   2 1.09
   7  0.443  0.587  0.464-   3 1.09
   8  0.557  0.587  0.464-   4 1.09
   9  0.564  0.500  0.500-   1 1.34   4 1.34
  10  0.436  0.500  0.500-   2 1.34   3 1.34

  LATTYP: Found a simple cubic cell.
 ALAT       =    22.0000000000
  
  Lattice vectors:
  
 A1 = (  22.0000000000,   0.0000000000,   0.0000000000)
 A2 = (   0.0000000000,  22.0000000000,   0.0000000000)
 A3 = (   0.0000000000,   0.0000000000,  22.0000000000)


Analysis of symmetry for initial positions (statically):
=====================================================================
 Subroutine PRICEL returns:
 Original cell was already a primitive cell.
 

 Routine SETGRP: Setting up the symmetry group for a 
 simple cubic supercell.


 Subroutine GETGRP returns: Found  1 space group operations
 (whereof  1 operations were pure point group operations)
 out of a pool of 48 trial point group operations.


The static configuration has the point symmetry C_1 .


Analysis of symmetry for dynamics (positions and initial velocities):
=====================================================================
 Subroutine PRICEL returns:
 Original cell was already a primitive cell.
 

 Routine SETGRP: Setting up the symmetry group for a 
 simple cubic supercell.


 Subroutine GETGRP returns: Found  1 space group operations
 (whereof  1 operations were pure point group operations)
 out of a pool of 48 trial point group operations.


The dynamic configuration has the point symmetry C_1 .


 Subroutine INISYM returns: Found  1 space group operations
 (whereof  1 operations are pure point group operations),
 and found     1 'primitive' translations


----------------------------------------------------------------------------------------

                                     Primitive cell                                     

  volume of cell :   10648.0000

  direct lattice vectors                    reciprocal lattice vectors
    22.000000000  0.000000000  0.000000000     0.045454545  0.000000000  0.000000000
     0.000000000 22.000000000  0.000000000     0.000000000  0.045454545  0.000000000
     0.000000000  0.000000000 22.000000000     0.000000000  0.000000000  0.045454545

  length of vectors
    22.000000000 22.000000000 22.000000000     0.045454545  0.045454545  0.045454545

  position of ions in fractional coordinates (direct lattice)
     0.531706591  0.452340909  0.519656818
     0.468291136  0.452340455  0.519660000
     0.468293409  0.547657727  0.480343636
     0.531711136  0.547660909  0.480346364
     0.557140682  0.413011364  0.535869091
     0.442882500  0.413004545  0.535877727
     0.442882500  0.586995455  0.464122273
     0.557139773  0.586987273  0.464126364
     0.564002955  0.500000455  0.500009545
     0.435997045  0.500001364  0.500008636

  ion indices of the primitive-cell ions
   primitive index   ion index
                 1           1
                 2           2
                 3           3
                 4           4
                 5           5
                 6           6
                 7           7
                 8           8
                 9           9
                10          10

----------------------------------------------------------------------------------------



 KPOINTS: auto                                    

Automatic generation of k-mesh.
 Grid dimensions read from file:
 generate k-points for:    1    1    1

 Generating k-lattice:

  Cartesian coordinates                     Fractional coordinates (reciprocal lattice)
     0.045454545  0.000000000  0.000000000     1.000000000  0.000000000  0.000000000
     0.000000000  0.045454545  0.000000000     0.000000000  1.000000000  0.000000000
     0.000000000  0.000000000  0.045454545     0.000000000  0.000000000  1.000000000

  Length of vectors
     0.045454545  0.045454545  0.045454545

  Shift w.r.t. Gamma in fractional coordinates (k-lattice)
     0.000000000  0.000000000  0.000000000

 
 Subroutine IBZKPT returns following result:
 ===========================================
 
 Found      1 irreducible k-points:
 
 Following reciprocal coordinates:
            Coordinates               Weight
  0.000000  0.000000  0.000000      1.000000
 
 Following cartesian coordinates:
            Coordinates               Weight
  0.000000  0.000000  0.000000      1.000000
 


--------------------------------------------------------------------------------------------------------




 Dimension of arrays:
   k-points           NKPTS =      1   k-points in BZ     NKDIM =      1   number of bands    NBANDS=    256
   number of dos      NEDOS =    301   number of ions     NIONS =     10
   non local maximal  LDIM  =      4   non local SUM 2l+1 LMDIM =      8
   total plane-waves  NPLWV = ******
   max r-space proj   IRMAX =      1   max aug-charges    IRDMAX=   9419
   dimension x,y,z NGX =   240 NGY =  240 NGZ =  240
   dimension x,y,z NGXF=   480 NGYF=  480 NGZF=  480
   support grid    NGXF=   480 NGYF=  480 NGZF=  480
   ions per type =               4   4   2
   NGX,Y,Z   is equivalent  to a cutoff of  18.14, 18.14, 18.14 a.u.
   NGXF,Y,Z  is equivalent  to a cutoff of  36.27, 36.27, 36.27 a.u.

 SYSTEM =  unknown system                          
 POSCAR =   C  H  N                                

 Startparameter for this run:
   NWRITE =      2    write-flag & timer
   PREC   = accura    normal or accurate (medium, high low for compatibility)
   ISTART =      0    job   : 0-new  1-cont  2-samecut
   ICHARG =      2    charge: 1-file 2-atom 10-const
   ISPIN  =      1    spin polarized calculation?
   LNONCOLLINEAR =      F non collinear calculations
   LSORBIT =      F    spin-orbit coupling
   INIWAV =      1    electr: 0-lowe 1-rand  2-diag
   LASPH  =      F    aspherical Exc in radial PAW
 Electronic Relaxation 1
   ENCUT  = 1000.0 eV  73.50 Ry    8.57 a.u.  56.73 56.73 56.73*2*pi/ulx,y,z
   ENINI  = 1000.0     initial cutoff
   ENAUG  = 1000.0 eV  augmentation charge cutoff
   NELM   =     60;   NELMIN=  2; NELMDL= -5     # of ELM steps 
   EDIFF  = 0.1E-06   stopping-criterion for ELM
   LREAL  =      F    real-space projection
   NLSPLINE    = F    spline interpolate recip. space projectors
   LCOMPAT=      F    compatible to vasp.4.4
   GGA_COMPAT  = T    GGA compatible to vasp.4.4-vasp.4.6
   LMAXPAW     = -100 max onsite density
   LMAXMIX     =    2 max onsite mixed and CHGCAR
   VOSKOWN=      0    Vosko Wilk Nusair interpolation
   ROPT   =    0.00000   0.00000   0.00000
 Ionic relaxation
   EDIFFG = 0.1E-05   stopping-criterion for IOM
   NSW    =      0    number of steps for IOM
   NBLOCK =      1;   KBLOCK =      1    inner block; outer block 
   IBRION =     -1    ionic relax: 0-MD 1-quasi-New 2-CG
   NFREE  =      0    steps in history (QN), initial steepest desc. (CG)
   ISIF   =      0    stress and relaxation
   IWAVPR =     10    prediction:  0-non 1-charg 2-wave 3-comb
   ISYM   =      2    0-nonsym 1-usesym 2-fastsym
   LCORR  =      T    Harris-Foulkes like correction to forces

   POTIM  = 0.5000    time-step for ionic-motion
   TEIN   =    0.0    initial temperature
   TEBEG  =    0.0;   TEEND  =   0.0 temperature during run
   SMASS  =  -3.00    Nose mass-parameter (am)
   estimated Nose-frequenzy (Omega)   =  0.10E-29 period in steps = 0.13E+47 mass=  -0.111E-25a.u.
   SCALEE = 1.0000    scale energy and forces
   NPACO  =    256;   APACO  = 10.0  distance and # of slots for P.C.
   PSTRESS=    0.0 pullay stress

  Mass of Ions in am
   POMASS =  12.01  1.00 14.00
  Ionic Valenz
   ZVAL   =   4.00  1.00  5.00
  Atomic Wigner-Seitz radii
   RWIGS  =  -1.00 -1.00 -1.00
  virtual crystal weights 
   VCA    =   1.00  1.00  1.00
   NELECT =      30.0000    total number of electrons
   NUPDOWN=      -1.0000    fix difference up-down

 DOS related values:
   EMIN   =  10.00;   EMAX   =-10.00  energy-range for DOS
   EFERMI =   0.00;   METHOD = LEGACY      
   ISMEAR =     0;   SIGMA  =   0.01  broadening in eV -4-tet -1-fermi 0-gaus

 Electronic relaxation 2 (details)
   IALGO  =     58    algorithm
   LDIAG  =      T    sub-space diagonalisation (order eigenvalues)
   LSUBROT=      F    optimize rotation matrix (better conditioning)
   TURBO    =      0    0=normal 1=particle mesh
   IRESTART =      0    0=no restart 2=restart with 2 vectors
   NREBOOT  =      0    no. of reboots
   NMIN     =      0    reboot dimension
   EREF     =   0.00    reference energy to select bands
   IMIX   =      4    mixing-type and parameters
     AMIX     =   0.40;   BMIX     =  1.00
     AMIX_MAG =   1.60;   BMIX_MAG =  1.00
     AMIN     =   0.10
     WC   =   100.;   INIMIX=   1;  MIXPRE=   1;  MAXMIX= -45

 Intra band minimization:
   WEIMIN = 0.0000     energy-eigenvalue tresh-hold
   EBREAK =  0.98E-10  absolut break condition
   DEPER  =   0.30     relativ break condition  

   TIME   =   0.40     timestep for ELM

  volume/ion in A,a.u.               =    1064.80      7185.63
  Fermi-wavevector in a.u.,A,eV,Ry     =   0.231220  0.436943  0.727406  0.053463
  Thomas-Fermi vector in A             =   1.025338

 Write flags
   LWAVE        =      F    write WAVECAR
   LDOWNSAMPLE  =      F    k-point downsampling of WAVECAR
   LCHARG       =      F    write CHGCAR
   LVTOT        =      F    write LOCPOT, total local potential
   LVHAR        =      F    write LOCPOT, Hartree potential only
   LELF         =      F    write electronic localiz. function (ELF)
   LORBIT       =      0    0 simple, 1 ext, 2 COOP (PROOUT), +10 PAW based schemes


 Dipole corrections
   LMONO  =      F    monopole corrections only (constant potential shift)
   LDIPOL =      F    correct potential (dipole corrections)
   IDIPOL =      0    1-x, 2-y, 3-z, 4-all directions 
   EPSILON=  1.0000000 bulk dielectric constant

 Exchange correlation treatment:
   GGA     =    --    GGA type
   LEXCH   =     8    internal setting for exchange type
   LIBXC   =     F    Libxc                    
   VOSKOWN =     0    Vosko Wilk Nusair interpolation
   LHFCALC =     F    Hartree Fock is set to
   LHFONE  =     F    Hartree Fock one center treatment
   AEXX    =    0.0000 exact exchange contribution

 Linear response parameters
   LEPSILON=     F    determine dielectric tensor
   LRPA    =     F    only Hartree local field effects (RPA)
   LNABLA  =     F    use nabla operator in PAW spheres
   LVEL    =     F    velocity operator in full k-point grid
   CSHIFT  =0.1000    complex shift for real part using Kramers Kronig
   OMEGAMAX=  -1.0    maximum frequency
   DEG_THRESHOLD= 0.2000000E-02 threshold for treating states as degnerate
   RTIME   =   -0.100 relaxation time in fs
  (WPLASMAI=    0.000 imaginary part of plasma frequency in eV, 0.658/RTIME)
   DFIELD  = 0.0000000 0.0000000 0.0000000 field for delta impulse in time

  Optional k-point grid parameters
   LKPOINTS_OPT  =     F    use optional k-point grid
   KPOINTS_OPT_MODE=     1    mode for optional k-point grid

 Orbital magnetization related:
   ORBITALMAG=     F  switch on orbital magnetization
   LCHIMAG   =     F  perturbation theory with respect to B field
   DQ        =  0.001000  dq finite difference perturbation B field
   LLRAUG    =     F  two centre corrections for induced B field
   LBONE     =     F  B-component reconstruction in AE one-centre
   LVGVCALC  =     T  calculate vGv susceptibility
   LVGVAPPL  =     F  apply vGv susceptibility instead of pGv for G=0

 Random number generation:
   RANDOM_GENERATOR = DEFAULT
   PCG_SEED         = not used


--------------------------------------------------------------------------------------------------------


 Static calculation
 charge density and potential will be updated during run
 non-spin polarized calculation
 Conjugate gradient for all bands (Freysoldt, et al. PRB 79, 241103 (2009))
 preconditioned conjugated gradient                                        
 perform sub-space diagonalisation
    before iterative eigenvector-optimisation
 modified Broyden-mixing scheme, WC =      100.0
 initial mixing is a Kerker type mixing with AMIX =  0.4000 and BMIX =      1.0000
 Hartree-type preconditioning will be used
 using additional bands          241
 reciprocal scheme for non local part
 use partial core corrections
 no Harris-corrections to forces 
 use gradient corrections 
 use of overlap-Matrix (Vanderbilt PP)
 Gauss-broadening in eV      SIGMA  =   0.01


--------------------------------------------------------------------------------------------------------


  energy-cutoff  :     1000.00
  volume of cell :    10648.00
      direct lattice vectors                 reciprocal lattice vectors
    22.000000000  0.000000000  0.000000000     0.045454545  0.000000000  0.000000000
     0.000000000 22.000000000  0.000000000     0.000000000  0.045454545  0.000000000
     0.000000000  0.000000000 22.000000000     0.000000000  0.000000000  0.045454545

  length of vectors
    22.000000000 22.000000000 22.000000000     0.045454545  0.045454545  0.045454545



 k-points in units of 2pi/SCALE and weight: auto                                    
   0.00000000  0.00000000  0.00000000       1.000

 k-points in reciprocal lattice and weights: auto                                    
   0.00000000  0.00000000  0.00000000       1.000

 position of ions in fractional coordinates (direct lattice) 
   0.53170659  0.45234091  0.51965682
   0.46829114  0.45234045  0.51966000
   0.46829341  0.54765773  0.48034364
   0.53171114  0.54766091  0.48034636
   0.55714068  0.41301136  0.53586909
   0.44288250  0.41300455  0.53587773
   0.44288250  0.58699545  0.46412227
   0.55713977  0.58698727  0.46412636
   0.56400295  0.50000045  0.50000955
   0.43599705  0.50000136  0.50000864

 position of ions in cartesian coordinates  (Angst):
  11.69754500  9.95150000 11.43245000
  10.30240500  9.95149000 11.43252000
  10.30245500 12.04847000 10.56756000
  11.69764500 12.04854000 10.56762000
  12.25709500  9.08625000 11.78912000
   9.74341500  9.08610000 11.78931000
   9.74341500 12.91390000 10.21069000
  12.25707500 12.91372000 10.21078000
  12.40806500 11.00001000 11.00021000
   9.59193500 11.00003000 11.00019000



--------------------------------------------------------------------------------------------------------


 use parallel FFT for orbitals z direction half grid
 k-point   1 :   0.0000 0.0000 0.0000  plane waves:  381993

 maximum and minimum number of plane-waves per node :    191003   190990

 maximum number of plane-waves:    381993
 maximum index in each direction: 
   IXMAX=   56   IYMAX=   56   IZMAX=   56
   IXMIN=  -56   IYMIN=  -56   IZMIN=    0


 parallel 3D FFT for wavefunctions:
    minimum data exchange during FFTs selected (reduces bandwidth)
 parallel 3D FFT for charge:
    minimum data exchange during FFTs selected (reduces bandwidth)


 total amount of memory used by VASP MPI-rank0   550012. kBytes
=======================================================================

   base      :      30000. kBytes
   nonl-proj :      67313. kBytes
   fftplans  :     151777. kBytes
   grid      :     291732. kBytes
   one-center:          7. kBytes
   wavefun   :       9183. kBytes

     INWAV:  cpu time      0.0002: real time      0.0002
 Broyden mixing: mesh for mixing (old mesh)
   NGX =113   NGY =113   NGZ =113
  (NGX  =480   NGY  =480   NGZ  =480)
  gives a total of ****** points

 initial charge density was supplied:
 charge density of overlapping atoms calculated
 number of electron      30.0000000 magnetization 
 keeping initial charge density in first step


--------------------------------------------------------------------------------------------------------


 Maximum index for augmentation-charges            0 (set IRDMAX)


--------------------------------------------------------------------------------------------------------


 First call to EWALD:  gamma=   0.081
 Maximum number of real-space cells 3x 3x 3
 Maximum number of reciprocal cells 3x 3x 3

    FEWALD:  cpu time      0.0042: real time      0.0044


--------------------------------------- Ionic step        1  -------------------------------------------




--------------------------------------- Iteration      1(   1)  ---------------------------------------


    POTLOK:  cpu time      0.8543: real time      0.8571
    SETDIJ:  cpu time      0.0098: real time      0.0102
    TRIAL :  cpu time      5.5516: real time      5.5562
    CORREC:  cpu time      0.0027: real time      0.0028
    --------------------------------------------
      LOOP:  cpu time      6.4249: real time      6.4328

 eigenvalue-minimisations  :   512
 total energy-change (2. order) : 0.3302722E+03  (-0.1376616E+04)
 number of electron      30.0000000 magnetization 
 augmentation part       30.0000000 magnetization 

 Free energy of the ion-electron system (eV)
  ---------------------------------------------------
  alpha Z        PSCENC =         0.26547520
  Ewald energy   TEWEN  =      2045.38593121
  -Hartree energ DENC   =     -2857.63293210
  -exchange      EXHF   =         0.00000000
  -V(xc)+E(xc)   XCENC  =        70.30015031
  PAW double counting   =       875.42520781     -851.77457183
  entropy T*S    EENTRO =        -0.00000227
  eigenvalues    EBANDS =      -119.34089814
  atomic energy  EATOM  =      1167.64380898
  ---------------------------------------------------
  free energy    TOTEN  =       330.27216916 eV

  energy without entropy =      330.27217143  energy(sigma->0) =      330.27217029


--------------------------------------------------------------------------------------------------------




--------------------------------------- Iteration      1(   2)  ---------------------------------------


    TRIAL :  cpu time     14.5959: real time     14.6038
    CORREC:  cpu time      0.0002: real time      0.0002
    --------------------------------------------
      LOOP:  cpu time     14.6133: real time     14.6352

 eigenvalue-minimisations  :  1024
 total energy-change (2. order) :-0.3948359E+03  (-0.3948357E+03)
 number of electron      30.0000000 magnetization 
 augmentation part       30.0000000 magnetization 

 Free energy of the ion-electron system (eV)
  ---------------------------------------------------
  alpha Z        PSCENC =         0.26547520
  Ewald energy   TEWEN  =      2045.38593121
  -Hartree energ DENC   =     -2857.63293210
  -exchange      EXHF   =         0.00000000
  -V(xc)+E(xc)   XCENC  =        70.30015031
  PAW double counting   =       875.42520781     -851.77457183
  entropy T*S    EENTRO =        -0.00000000
  eigenvalues    EBANDS =      -514.17677549
  atomic energy  EATOM  =      1167.64380898
  ---------------------------------------------------
  free energy    TOTEN  =       -64.56370591 eV

  energy without entropy =      -64.56370591  energy(sigma->0) =      -64.56370591


--------------------------------------------------------------------------------------------------------




--------------------------------------- Iteration      1(   3)  ---------------------------------------


    TRIAL :  cpu time      5.7029: real time      5.7062
    CORREC:  cpu time      0.0002: real time      0.0002
    --------------------------------------------
      LOOP:  cpu time      5.7182: real time      5.7374

 eigenvalue-minimisations  :   512
 total energy-change (2. order) :-0.7527109E+01  (-0.7527109E+01)
 number of electron      30.0000000 magnetization 
 augmentation part       30.0000000 magnetization 

 Free energy of the ion-electron system (eV)
  ---------------------------------------------------
  alpha Z        PSCENC =         0.26547520
  Ewald energy   TEWEN  =      2045.38593121
  -Hartree energ DENC   =     -2857.63293210
  -exchange      EXHF   =         0.00000000
  -V(xc)+E(xc)   XCENC  =        70.30015031
  PAW double counting   =       875.42520781     -851.77457183
  entropy T*S    EENTRO =        -0.00000000
  eigenvalues    EBANDS =      -521.70388448
  atomic energy  EATOM  =      1167.64380898
  ---------------------------------------------------
  free energy    TOTEN  =       -72.09081491 eV

  energy without entropy =      -72.09081491  energy(sigma->0) =      -72.09081491


--------------------------------------------------------------------------------------------------------




--------------------------------------- Iteration      1(   4)  ---------------------------------------


    TRIAL :  cpu time     14.4027: real time     14.4102
    CORREC:  cpu time      0.0003: real time      0.0003
    --------------------------------------------
      LOOP:  cpu time     14.4348: real time     14.4425

 eigenvalue-minimisations  :  1024
 total energy-change (2. order) :-0.8430061E-01  (-0.8430061E-01)
 number of electron      30.0000000 magnetization 
 augmentation part       30.0000000 magnetization 

 Free energy of the ion-electron system (eV)
  ---------------------------------------------------
  alpha Z        PSCENC =         0.26547520
  Ewald energy   TEWEN  =      2045.38593121
  -Hartree energ DENC   =     -2857.63293210
  -exchange      EXHF   =         0.00000000
  -V(xc)+E(xc)   XCENC  =        70.30015031
  PAW double counting   =       875.42520781     -851.77457183
  entropy T*S    EENTRO =        -0.00000000
  eigenvalues    EBANDS =      -521.78818508
  atomic energy  EATOM  =      1167.64380898
  ---------------------------------------------------
  free energy    TOTEN  =       -72.17511551 eV

  energy without entropy =      -72.17511551  energy(sigma->0) =      -72.17511551


--------------------------------------------------------------------------------------------------------




--------------------------------------- Iteration      1(   5)  ---------------------------------------


    TRIAL :  cpu time      5.6932: real time      5.6962
    CORREC:  cpu time      0.0002: real time      0.0002
    CHARGE:  cpu time      1.4292: real time      1.4311
    --------------------------------------------
      LOOP:  cpu time      7.1404: real time      7.1586

 eigenvalue-minimisations  :   512
 total energy-change (2. order) :-0.4349165E-05  (-0.4349322E-05)
 number of electron      30.0000000 magnetization 
 augmentation part       -0.0713069 magnetization 

 Free energy of the ion-electron system (eV)
  ---------------------------------------------------
  alpha Z        PSCENC =         0.26547520
  Ewald energy   TEWEN  =      2045.38593121
  -Hartree energ DENC   =     -2857.63293210
  -exchange      EXHF   =         0.00000000
  -V(xc)+E(xc)   XCENC  =        70.30015031
  PAW double counting   =       875.42520781     -851.77457183
  entropy T*S    EENTRO =        -0.00000000
  eigenvalues    EBANDS =      -521.78818943
  atomic energy  EATOM  =      1167.64380898
  ---------------------------------------------------
  free energy    TOTEN  =       -72.17511986 eV

  energy without entropy =      -72.17511986  energy(sigma->0) =      -72.17511986


--------------------------------------------------------------------------------------------------------




--------------------------------------- Iteration      1(   6)  ---------------------------------------


    POTLOK:  cpu time      0.4473: real time      0.4479
    SETDIJ:  cpu time      0.0017: real time      0.0017
    TRIAL :  cpu time      2.7766: real time      2.7797
    CORREC:  cpu time      2.5511: real time      2.5537
    CHARGE:  cpu time      1.3905: real time      1.3917
    --------------------------------------------
      LOOP:  cpu time      7.1871: real time      7.2058

 eigenvalue-minimisations  :     0
 total energy-change (2. order) : 0.9940468E+01  (-0.3315754E+01)
 number of electron      30.0000000 magnetization 
 augmentation part       -0.0839673 magnetization 

 Free energy of the ion-electron system (eV)
  ---------------------------------------------------
  alpha Z        PSCENC =         0.26547520
  Ewald energy   TEWEN  =      2045.38593121
  -Hartree energ DENC   =     -3095.78204032
  -exchange      EXHF   =         0.00000000
  -V(xc)+E(xc)   XCENC  =        80.12391926
  PAW double counting   =      9834.90473335    -9812.42719797
  entropy T*S    EENTRO =        -0.00000000
  eigenvalues    EBANDS =      -282.34928143
  atomic energy  EATOM  =      1167.64380898
  ---------------------------------------------------
  free energy    TOTEN  =       -62.23465173 eV

  energy without entropy =      -62.23465173  energy(sigma->0) =      -62.23465173


--------------------------------------------------------------------------------------------------------




--------------------------------------- Iteration      1(   7)  ---------------------------------------


    POTLOK:  cpu time      0.4337: real time      0.4337
    SETDIJ:  cpu time      0.0017: real time      0.0017
    TRIAL :  cpu time      2.6285: real time      2.6302
    CORREC:  cpu time      2.5232: real time      2.5243
    CHARGE:  cpu time      1.3912: real time      1.3915
    --------------------------------------------
      LOOP:  cpu time      7.0091: real time      7.0125

 eigenvalue-minimisations  :     0
 total energy-change (2. order) :-0.3321828E+01  (-0.5400960E+00)
 number of electron      30.0000000 magnetization 
 augmentation part       -0.0947591 magnetization 

 Free energy of the ion-electron system (eV)
  ---------------------------------------------------
  alpha Z        PSCENC =         0.26547520
  Ewald energy   TEWEN  =      2045.38593121
  -Hartree energ DENC   =     -3007.33694819
  -exchange      EXHF   =         0.00000000
  -V(xc)+E(xc)   XCENC  =        76.84232772
  PAW double counting   =     12372.76830484   -12349.81154894
  entropy T*S    EENTRO =        -0.00000000
  eigenvalues    EBANDS =      -371.31383066
  atomic energy  EATOM  =      1167.64380898
  ---------------------------------------------------
  free energy    TOTEN  =       -65.55647985 eV

  energy without entropy =      -65.55647985  energy(sigma->0) =      -65.55647985


--------------------------------------------------------------------------------------------------------




--------------------------------------- Iteration      1(   8)  ---------------------------------------


    POTLOK:  cpu time      0.4340: real time      0.4340
    SETDIJ:  cpu time      0.0017: real time      0.0017
    TRIAL :  cpu time      2.6184: real time      2.6201
    CORREC:  cpu time      2.5142: real time      2.5155
    CHARGE:  cpu time      1.3728: real time      1.3731
    --------------------------------------------
      LOOP:  cpu time      6.9544: real time      6.9745

 eigenvalue-minimisations  :     0
 total energy-change (2. order) :-0.5425525E+00  (-0.2813255E+00)
 number of electron      30.0000000 magnetization 
 augmentation part       -0.0936443 magnetization 

 Free energy of the ion-electron system (eV)
  ---------------------------------------------------
  alpha Z        PSCENC =         0.26547520
  Ewald energy   TEWEN  =      2045.38593121
  -Hartree energ DENC   =     -2998.66847154
  -exchange      EXHF   =         0.00000000
  -V(xc)+E(xc)   XCENC  =        76.54561684
  PAW double counting   =     13114.70748722   -13091.65972923
  entropy T*S    EENTRO =        -0.00000000
  eigenvalues    EBANDS =      -380.31915099
  atomic energy  EATOM  =      1167.64380898
  ---------------------------------------------------
  free energy    TOTEN  =       -66.09903232 eV

  energy without entropy =      -66.09903232  energy(sigma->0) =      -66.09903232


--------------------------------------------------------------------------------------------------------




--------------------------------------- Iteration      1(   9)  ---------------------------------------


    POTLOK:  cpu time      0.4615: real time      0.4615
    SETDIJ:  cpu time      0.0018: real time      0.0018
    TRIAL :  cpu time      2.6181: real time      2.6198
    CORREC:  cpu time      2.5281: real time      2.5291
    CHARGE:  cpu time      1.3850: real time      1.3853
    --------------------------------------------
      LOOP:  cpu time      7.0109: real time      7.0287

 eigenvalue-minimisations  :     0
 total energy-change (2. order) :-0.2756393E+00  (-0.9445508E-01)
 number of electron      30.0000000 magnetization 
 augmentation part       -0.0928947 magnetization 

 Free energy of the ion-electron system (eV)
  ---------------------------------------------------
  alpha Z        PSCENC =         0.26547520
  Ewald energy   TEWEN  =      2045.38593121
  -Hartree energ DENC   =     -2989.30910050
  -exchange      EXHF   =         0.00000000
  -V(xc)+E(xc)   XCENC  =        76.20938578
  PAW double counting   =     13259.80572449   -13236.71573690
  entropy T*S    EENTRO =        -0.00000000
  eigenvalues    EBANDS =      -389.66015986
  atomic energy  EATOM  =      1167.64380898
  ---------------------------------------------------
  free energy    TOTEN  =       -66.37467161 eV

  energy without entropy =      -66.37467161  energy(sigma->0) =      -66.37467161


--------------------------------------------------------------------------------------------------------




--------------------------------------- Iteration      1(  10)  ---------------------------------------


    POTLOK:  cpu time      0.4315: real time      0.4315
    SETDIJ:  cpu time      0.0022: real time      0.0022
    TRIAL :  cpu time      2.6223: real time      2.6238
    CORREC:  cpu time      2.5123: real time      2.5133
    CHARGE:  cpu time      1.3838: real time      1.3842
    --------------------------------------------
      LOOP:  cpu time      6.9677: real time      6.9848

 eigenvalue-minimisations  :     0
 total energy-change (2. order) :-0.9366768E-01  (-0.2551327E-01)
 number of electron      30.0000000 magnetization 
 augmentation part       -0.0927063 magnetization 

 Free energy of the ion-electron system (eV)
  ---------------------------------------------------
  alpha Z        PSCENC =         0.26547520
  Ewald energy   TEWEN  =      2045.38593121
  -Hartree energ DENC   =     -2983.86950567
  -exchange      EXHF   =         0.00000000
  -V(xc)+E(xc)   XCENC  =        76.04711048
  PAW double counting   =     12864.77831283   -12841.69499697
  entropy T*S    EENTRO =        -0.00000000
  eigenvalues    EBANDS =      -395.02447534
  atomic energy  EATOM  =      1167.64380898
  ---------------------------------------------------
  free energy    TOTEN  =       -66.46833929 eV

  energy without entropy =      -66.46833929  energy(sigma->0) =      -66.46833929


--------------------------------------------------------------------------------------------------------




--------------------------------------- Iteration      1(  11)  ---------------------------------------


    POTLOK:  cpu time      0.4334: real time      0.4334
    SETDIJ:  cpu time      0.0017: real time      0.0017
    TRIAL :  cpu time      2.6302: real time      2.6320
    CORREC:  cpu time      2.5263: real time      2.5274
    CHARGE:  cpu time      1.3825: real time      1.3830
    --------------------------------------------
      LOOP:  cpu time      6.9879: real time      7.0078

 eigenvalue-minimisations  :     0
 total energy-change (2. order) :-0.2550496E-01  (-0.7204938E-02)
 number of electron      30.0000000 magnetization 
 augmentation part       -0.0923400 magnetization 

 Free energy of the ion-electron system (eV)
  ---------------------------------------------------
  alpha Z        PSCENC =         0.26547520
  Ewald energy   TEWEN  =      2045.38593121
  -Hartree energ DENC   =     -2983.57328168
  -exchange      EXHF   =         0.00000000
  -V(xc)+E(xc)   XCENC  =        76.04661648
  PAW double counting   =     12524.39839664   -12501.33597175
  entropy T*S    EENTRO =        -0.00000000
  eigenvalues    EBANDS =      -395.32481932
  atomic energy  EATOM  =      1167.64380898
  ---------------------------------------------------
  free energy    TOTEN  =       -66.49384425 eV

  energy without entropy =      -66.49384425  energy(sigma->0) =      -66.49384425


--------------------------------------------------------------------------------------------------------




--------------------------------------- Iteration      1(  12)  ---------------------------------------


    POTLOK:  cpu time      0.4432: real time      0.4432
    SETDIJ:  cpu time      0.0016: real time      0.0016
    TRIAL :  cpu time      2.6151: real time      2.6167
    CORREC:  cpu time      2.5186: real time      2.5210
    CHARGE:  cpu time      1.3849: real time      1.3852
    --------------------------------------------
      LOOP:  cpu time      6.9828: real time      7.0113

 eigenvalue-minimisations  :     0
 total energy-change (2. order) :-0.7216616E-02  (-0.2405123E-02)
 number of electron      30.0000000 magnetization 
 augmentation part       -0.0923942 magnetization 

 Free energy of the ion-electron system (eV)
  ---------------------------------------------------
  alpha Z        PSCENC =         0.26547520
  Ewald energy   TEWEN  =      2045.38593121
  -Hartree energ DENC   =     -2983.88374678
  -exchange      EXHF   =         0.00000000
  -V(xc)+E(xc)   XCENC  =        76.04978047
  PAW double counting   =     12397.75100258   -12374.69862877
  entropy T*S    EENTRO =        -0.00000000
  eigenvalues    EBANDS =      -395.01468375
  atomic energy  EATOM  =      1167.64380898
  ---------------------------------------------------
  free energy    TOTEN  =       -66.50106086 eV

  energy without entropy =      -66.50106086  energy(sigma->0) =      -66.50106086


--------------------------------------------------------------------------------------------------------




--------------------------------------- Iteration      1(  13)  ---------------------------------------


    POTLOK:  cpu time      0.4292: real time      0.4292
    SETDIJ:  cpu time      0.0017: real time      0.0017
    TRIAL :  cpu time      2.6230: real time      2.6247
    CORREC:  cpu time      2.5174: real time      2.5186
    CHARGE:  cpu time      1.3777: real time      1.3779
    --------------------------------------------
      LOOP:  cpu time      6.9654: real time      6.9828

 eigenvalue-minimisations  :     0
 total energy-change (2. order) :-0.2407571E-02  (-0.8759839E-03)
 number of electron      30.0000000 magnetization 
 augmentation part       -0.0925665 magnetization 

 Free energy of the ion-electron system (eV)
  ---------------------------------------------------
  alpha Z        PSCENC =         0.26547520
  Ewald energy   TEWEN  =      2045.38593121
  -Hartree energ DENC   =     -2984.08696834
  -exchange      EXHF   =         0.00000000
  -V(xc)+E(xc)   XCENC  =        76.05111896
  PAW double counting   =     12392.49367669   -12369.44322201
  entropy T*S    EENTRO =        -0.00000000
  eigenvalues    EBANDS =      -394.81328912
  atomic energy  EATOM  =      1167.64380898
  ---------------------------------------------------
  free energy    TOTEN  =       -66.50346843 eV

  energy without entropy =      -66.50346843  energy(sigma->0) =      -66.50346843


--------------------------------------------------------------------------------------------------------




--------------------------------------- Iteration      1(  14)  ---------------------------------------


    POTLOK:  cpu time      0.4321: real time      0.4322
    SETDIJ:  cpu time      0.0016: real time      0.0016
    TRIAL :  cpu time      2.6190: real time      2.6205
    CORREC:  cpu time      2.5058: real time      2.5068
    CHARGE:  cpu time      1.3725: real time      1.3731
    --------------------------------------------
      LOOP:  cpu time      6.9475: real time      6.9658

 eigenvalue-minimisations  :     0
 total energy-change (2. order) :-0.8748859E-03  (-0.2864490E-03)
 number of electron      30.0000000 magnetization 
 augmentation part       -0.0926281 magnetization 

 Free energy of the ion-electron system (eV)
  ---------------------------------------------------
  alpha Z        PSCENC =         0.26547520
  Ewald energy   TEWEN  =      2045.38593121
  -Hartree energ DENC   =     -2984.47622015
  -exchange      EXHF   =         0.00000000
  -V(xc)+E(xc)   XCENC  =        76.06167458
  PAW double counting   =     12424.28240159   -12401.23167848
  entropy T*S    EENTRO =        -0.00000000
  eigenvalues    EBANDS =      -394.43573623
  atomic energy  EATOM  =      1167.64380898
  ---------------------------------------------------
  free energy    TOTEN  =       -66.50434332 eV

  energy without entropy =      -66.50434332  energy(sigma->0) =      -66.50434332


--------------------------------------------------------------------------------------------------------




--------------------------------------- Iteration      1(  15)  ---------------------------------------


    POTLOK:  cpu time      0.4276: real time      0.4277
    SETDIJ:  cpu time      0.0016: real time      0.0016
    TRIAL :  cpu time      2.6207: real time      2.6225
    CORREC:  cpu time      2.5124: real time      2.5135
    CHARGE:  cpu time      1.3841: real time      1.3844
    --------------------------------------------
      LOOP:  cpu time      6.9604: real time      6.9805

 eigenvalue-minimisations  :     0
 total energy-change (2. order) :-0.2861986E-03  (-0.8125933E-04)
 number of electron      30.0000000 magnetization 
 augmentation part       -0.0926249 magnetization 

 Free energy of the ion-electron system (eV)
  ---------------------------------------------------
  alpha Z        PSCENC =         0.26547520
  Ewald energy   TEWEN  =      2045.38593121
  -Hartree energ DENC   =     -2984.71991566
  -exchange      EXHF   =         0.00000000
  -V(xc)+E(xc)   XCENC  =        76.06892675
  PAW double counting   =     12446.87657523   -12423.82514653
  entropy T*S    EENTRO =        -0.00000000
  eigenvalues    EBANDS =      -394.20028469
  atomic energy  EATOM  =      1167.64380898
  ---------------------------------------------------
  free energy    TOTEN  =       -66.50462952 eV

  energy without entropy =      -66.50462952  energy(sigma->0) =      -66.50462952


--------------------------------------------------------------------------------------------------------




--------------------------------------- Iteration      1(  16)  ---------------------------------------


    POTLOK:  cpu time      0.4216: real time      0.4216
    SETDIJ:  cpu time      0.0017: real time      0.0017
    TRIAL :  cpu time      2.6325: real time      2.6346
    CORREC:  cpu time      2.5113: real time      2.5126
    CHARGE:  cpu time      1.3741: real time      1.3743
    --------------------------------------------
      LOOP:  cpu time      6.9553: real time      6.9750

 eigenvalue-minimisations  :     0
 total energy-change (2. order) :-0.8141469E-04  (-0.2224908E-04)
 number of electron      30.0000000 magnetization 
 augmentation part       -0.0926083 magnetization 

 Free energy of the ion-electron system (eV)
  ---------------------------------------------------
  alpha Z        PSCENC =         0.26547520
  Ewald energy   TEWEN  =      2045.38593121
  -Hartree energ DENC   =     -2984.76416611
  -exchange      EXHF   =         0.00000000
  -V(xc)+E(xc)   XCENC  =        76.07057452
  PAW double counting   =     12453.13769777   -12430.08572178
  entropy T*S    EENTRO =        -0.00000000
  eigenvalues    EBANDS =      -394.15831071
  atomic energy  EATOM  =      1167.64380898
  ---------------------------------------------------
  free energy    TOTEN  =       -66.50471093 eV

  energy without entropy =      -66.50471093  energy(sigma->0) =      -66.50471093


--------------------------------------------------------------------------------------------------------




--------------------------------------- Iteration      1(  17)  ---------------------------------------


    POTLOK:  cpu time      0.4260: real time      0.4260
    SETDIJ:  cpu time      0.0016: real time      0.0016
    TRIAL :  cpu time      2.6211: real time      2.6232
    CORREC:  cpu time      2.5071: real time      2.5083
    CHARGE:  cpu time      1.3836: real time      1.3839
    --------------------------------------------
      LOOP:  cpu time      6.9533: real time      6.9755

 eigenvalue-minimisations  :     0
 total energy-change (2. order) :-0.2233305E-04  (-0.6945616E-05)
 number of electron      30.0000000 magnetization 
 augmentation part       -0.0926002 magnetization 

 Free energy of the ion-electron system (eV)
  ---------------------------------------------------
  alpha Z        PSCENC =         0.26547520
  Ewald energy   TEWEN  =      2045.38593121
  -Hartree energ DENC   =     -2984.78888356
  -exchange      EXHF   =         0.00000000
  -V(xc)+E(xc)   XCENC  =        76.07170685
  PAW double counting   =     12452.34157918   -12429.28950199
  entropy T*S    EENTRO =        -0.00000000
  eigenvalues    EBANDS =      -394.13484911
  atomic energy  EATOM  =      1167.64380898
  ---------------------------------------------------
  free energy    TOTEN  =       -66.50473327 eV

  energy without entropy =      -66.50473327  energy(sigma->0) =      -66.50473327


--------------------------------------------------------------------------------------------------------




--------------------------------------- Iteration      1(  18)  ---------------------------------------


    POTLOK:  cpu time      0.4205: real time      0.4205
    SETDIJ:  cpu time      0.0016: real time      0.0016
    TRIAL :  cpu time      2.6177: real time      2.6199
    CORREC:  cpu time      2.5032: real time      2.5041
    CHARGE:  cpu time      1.3766: real time      1.3775
    --------------------------------------------
      LOOP:  cpu time      6.9500: real time      6.9543

 eigenvalue-minimisations  :     0
 total energy-change (2. order) :-0.6973603E-05  (-0.2432740E-05)
 number of electron      30.0000000 magnetization 
 augmentation part       -0.0926013 magnetization 

 Free energy of the ion-electron system (eV)
  ---------------------------------------------------
  alpha Z        PSCENC =         0.26547520
  Ewald energy   TEWEN  =      2045.38593121
  -Hartree energ DENC   =     -2984.78547072
  -exchange      EXHF   =         0.00000000
  -V(xc)+E(xc)   XCENC  =        76.07176225
  PAW double counting   =     12451.39143886   -12428.33932965
  entropy T*S    EENTRO =        -0.00000000
  eigenvalues    EBANDS =      -394.13835636
  atomic energy  EATOM  =      1167.64380898
  ---------------------------------------------------
  free energy    TOTEN  =       -66.50474024 eV

  energy without entropy =      -66.50474024  energy(sigma->0) =      -66.50474024


--------------------------------------------------------------------------------------------------------




--------------------------------------- Iteration      1(  19)  ---------------------------------------


    POTLOK:  cpu time      0.4383: real time      0.4383
    SETDIJ:  cpu time      0.0017: real time      0.0017
    TRIAL :  cpu time      2.6178: real time      2.6197
    CORREC:  cpu time      2.4989: real time      2.4997
    CHARGE:  cpu time      1.3788: real time      1.3794
    --------------------------------------------
      LOOP:  cpu time      6.9519: real time      6.9697

 eigenvalue-minimisations  :     0
 total energy-change (2. order) :-0.2424209E-05  (-0.8642888E-06)
 number of electron      30.0000000 magnetization 
 augmentation part       -0.0926040 magnetization 

 Free energy of the ion-electron system (eV)
  ---------------------------------------------------
  alpha Z        PSCENC =         0.26547520
  Ewald energy   TEWEN  =      2045.38593121
  -Hartree energ DENC   =     -2984.76906564
  -exchange      EXHF   =         0.00000000
  -V(xc)+E(xc)   XCENC  =        76.07130730
  PAW double counting   =     12451.57817353   -12428.52603013
  entropy T*S    EENTRO =        -0.00000000
  eigenvalues    EBANDS =      -394.15434310
  atomic energy  EATOM  =      1167.64380898
  ---------------------------------------------------
  free energy    TOTEN  =       -66.50474266 eV

  energy without entropy =      -66.50474266  energy(sigma->0) =      -66.50474266


--------------------------------------------------------------------------------------------------------




--------------------------------------- Iteration      1(  20)  ---------------------------------------


    POTLOK:  cpu time      0.4201: real time      0.4201
    SETDIJ:  cpu time      0.0016: real time      0.0016
    TRIAL :  cpu time      2.6188: real time      2.6207
    CORREC:  cpu time      2.5014: real time      2.5022
    CHARGE:  cpu time      1.3754: real time      1.3761
    --------------------------------------------
      LOOP:  cpu time      6.9330: real time      6.9510

 eigenvalue-minimisations  :     0
 total energy-change (2. order) :-0.8225834E-06  (-0.2460194E-06)
 number of electron      30.0000000 magnetization 
 augmentation part       -0.0926052 magnetization 

 Free energy of the ion-electron system (eV)
  ---------------------------------------------------
  alpha Z        PSCENC =         0.26547520
  Ewald energy   TEWEN  =      2045.38593121
  -Hartree energ DENC   =     -2984.76505681
  -exchange      EXHF   =         0.00000000
  -V(xc)+E(xc)   XCENC  =        76.07121763
  PAW double counting   =     12452.07497923   -12429.02285174
  entropy T*S    EENTRO =        -0.00000000
  eigenvalues    EBANDS =      -394.15824718
  atomic energy  EATOM  =      1167.64380898
  ---------------------------------------------------
  free energy    TOTEN  =       -66.50474349 eV

  energy without entropy =      -66.50474349  energy(sigma->0) =      -66.50474349


--------------------------------------------------------------------------------------------------------




--------------------------------------- Iteration      1(  21)  ---------------------------------------


    POTLOK:  cpu time      0.4220: real time      0.4220
    SETDIJ:  cpu time      0.0019: real time      0.0019
    TRIAL :  cpu time      2.6201: real time      2.6222
    CORREC:  cpu time      2.5029: real time      2.5037
    CHARGE:  cpu time      1.3730: real time      1.3737
    --------------------------------------------
      LOOP:  cpu time      6.9500: real time      6.9537

 eigenvalue-minimisations  :     0
 total energy-change (2. order) :-0.2234738E-06  (-0.8893555E-07)
 number of electron      30.0000000 magnetization 
 augmentation part       -0.0926046 magnetization 

 Free energy of the ion-electron system (eV)
  ---------------------------------------------------
  alpha Z        PSCENC =         0.26547520
  Ewald energy   TEWEN  =      2045.38593121
  -Hartree energ DENC   =     -2984.76074782
  -exchange      EXHF   =         0.00000000
  -V(xc)+E(xc)   XCENC  =        76.07109050
  PAW double counting   =     12452.27564637   -12429.22352449
  entropy T*S    EENTRO =        -0.00000000
  eigenvalues    EBANDS =      -394.16242365
  atomic energy  EATOM  =      1167.64380898
  ---------------------------------------------------
  free energy    TOTEN  =       -66.50474371 eV

  energy without entropy =      -66.50474371  energy(sigma->0) =      -66.50474371


--------------------------------------------------------------------------------------------------------




--------------------------------------- Iteration      1(  22)  ---------------------------------------


    POTLOK:  cpu time      0.4219: real time      0.4219
    SETDIJ:  cpu time      0.0017: real time      0.0017
    TRIAL :  cpu time      2.6269: real time      2.6289
    CORREC:  cpu time      2.4938: real time      2.4946
    EDDIAG:  cpu time      1.0927: real time      1.0939
    CHARGE:  cpu time      1.3865: real time      1.3871
    --------------------------------------------
      LOOP:  cpu time      8.0364: real time      8.0582

 eigenvalue-minimisations  :     0
 total energy-change (2. order) :-0.6417577E-07  (-0.4339489E-07)
 number of electron      30.0000000 magnetization 
 augmentation part       -0.0926042 magnetization 

 Free energy of the ion-electron system (eV)
  ---------------------------------------------------
  alpha Z        PSCENC =         0.26547520
  Ewald energy   TEWEN  =      2045.38593121
  -Hartree energ DENC   =     -2984.76143742
  -exchange      EXHF   =         0.00000000
  -V(xc)+E(xc)   XCENC  =        76.07110950
  PAW double counting   =     12452.15134701   -12429.09923947
  entropy T*S    EENTRO =        -0.00000000
  eigenvalues    EBANDS =      -394.16173878
  atomic energy  EATOM  =      1167.64380898
  ---------------------------------------------------
  free energy    TOTEN  =       -66.50474377 eV

  energy without entropy =      -66.50474377  energy(sigma->0) =      -66.50474377


--------------------------------------------------------------------------------------------------------


  average scaling for gradient   1.5274


 average (electrostatic) potential at core
  the test charge radii are     0.5770  0.4325  0.5902
  (the norm of the test charge is              1.0000)
       1 -87.3318       2 -87.3320       3 -87.3322       4 -87.3320       5 -45.4913
       6 -45.4928       7 -45.4920       8 -45.4923       9-104.0356      10-104.0362



 E-fermi :  -5.7634     XC(G=0):  -0.1513     alpha+bet : -0.0672

 Fermi energy:        -5.7634489411

 k-point     1 :       0.0000    0.0000    0.0000
  band No.  band energies     occupation 
      1     -24.6747      2.00000
      2     -22.7653      2.00000
      3     -19.4100      2.00000
      4     -16.4187      2.00000
      5     -16.3677      2.00000
      6     -13.0299      2.00000
      7     -12.8429      2.00000
      8     -12.0160      2.00000
      9     -10.7402      2.00000
     10     -10.6983      2.00000
     11      -9.4934      2.00000
     12      -8.4007      2.00000
     13      -7.3251      2.00000
     14      -7.0777      2.00000
     15      -5.8202      2.00000
     16      -2.6050      0.00000
     17      -1.8456      0.00000
     18      -0.4573      0.00000
     19      -0.0867      0.00000
     20       0.1071      0.00000
     21       0.1961      0.00000
     22       0.2414      0.00000
     23       0.3162      0.00000
     24       0.3440      0.00000
     25       0.4343      0.00000
     26       0.4875      0.00000
     27       0.5010      0.00000
     28       0.5065      0.00000
     29       0.5299      0.00000
     30       0.5305      0.00000
     31       0.6209      0.00000
     32       0.6336      0.00000
     33       0.6459      0.00000
     34       0.6546      0.00000
     35       0.6557      0.00000
     36       0.6641      0.00000
     37       0.8066      0.00000
     38       0.8383      0.00000
     39       0.8453      0.00000
     40       0.8770      0.00000
     41       0.8814      0.00000
     42       0.9107      0.00000
     43       0.9209      0.00000
     44       0.9523      0.00000
     45       0.9628      0.00000
     46       1.0819      0.00000
     47       1.1143      0.00000
     48       1.1531      0.00000
     49       1.1616      0.00000
     50       1.2335      0.00000
     51       1.2460      0.00000
     52       1.2650      0.00000
     53       1.3728      0.00000
     54       1.3736      0.00000
     55       1.4050      0.00000
     56       1.4078      0.00000
     57       1.4113      0.00000
     58       1.4147      0.00000
     59       1.4907      0.00000
     60       1.5109      0.00000
     61       1.5190      0.00000
     62       1.5381      0.00000
     63       1.5397      0.00000
     64       1.5681      0.00000
     65       1.5743      0.00000
     66       1.5815      0.00000
     67       1.5815      0.00000
     68       1.5843      0.00000
     69       1.5900      0.00000
     70       1.5936      0.00000
     71       1.5936      0.00000
     72       1.5954      0.00000
     73       1.5977      0.00000
     74       1.5979      0.00000
     75       1.6849      0.00000
     76       1.7108      0.00000
     77       1.7234      0.00000
     78       1.7620      0.00000
     79       1.7665      0.00000
     80       1.7979      0.00000
     81       1.8122      0.00000
     82       1.8148      0.00000
     83       1.8210      0.00000
     84       1.8492      0.00000
     85       1.8575      0.00000
     86       1.8607      0.00000
     87       1.8617      0.00000
     88       1.8709      0.00000
     89       1.8712      0.00000
     90       1.8842      0.00000
     91       1.8871      0.00000
     92       1.8873      0.00000
     93       1.8878      0.00000
     94       1.8966      0.00000
     95       1.9000      0.00000
     96       1.9015      0.00000
     97       1.9025      0.00000
     98       1.9065      0.00000
     99       1.9207      0.00000
    100       2.1097      0.00000
    101       2.2924      0.00000
    102       2.2970      0.00000
    103       2.3111      0.00000
    104       2.3369      0.00000
    105       2.3707      0.00000
    106       2.3713      0.00000
    107       2.4362      0.00000
    108       2.4493      0.00000
    109       2.4538      0.00000
    110       2.4806      0.00000
    111       2.5140      0.00000
    112       2.5195      0.00000
    113       2.5396      0.00000
    114       2.5586      0.00000
    115       2.5807      0.00000
    116       2.6135      0.00000
    117       2.6280      0.00000
    118       2.6530      0.00000
    119       2.6885      0.00000
    120       2.7064      0.00000
    121       2.7144      0.00000
    122       2.7190      0.00000
    123       2.7372      0.00000
    124       2.7611      0.00000
    125       2.7657      0.00000
    126       2.7702      0.00000
    127       2.7854      0.00000
    128       2.7955      0.00000
    129       2.8027      0.00000
    130       2.8081      0.00000
    131       2.8084      0.00000
    132       2.8162      0.00000
    133       2.8204      0.00000
    134       2.8238      0.00000
    135       2.8271      0.00000
    136       2.8288      0.00000
    137       2.8306      0.00000
    138       2.8308      0.00000
    139       2.8379      0.00000
    140       2.8396      0.00000
    141       2.8432      0.00000
    142       2.9219      0.00000
    143       2.9371      0.00000
    144       2.9485      0.00000
    145       2.9742      0.00000
    146       2.9790      0.00000
    147       3.0113      0.00000
    148       3.0426      0.00000
    149       3.0500      0.00000
    150       3.0599      0.00000
    151       3.0713      0.00000
    152       3.0777      0.00000
    153       3.0919      0.00000
    154       3.0939      0.00000
    155       3.0981      0.00000
    156       3.1191      0.00000
    157       3.1254      0.00000
    158       3.1273      0.00000
    159       3.1296      0.00000
    160       3.1336      0.00000
    161       3.1382      0.00000
    162       3.1425      0.00000
    163       3.1425      0.00000
    164       3.1465      0.00000
    165       3.1484      0.00000
    166       3.2697      0.00000
    167       3.2766      0.00000
    168       3.3159      0.00000
    169       3.3248      0.00000
    170       3.3321      0.00000
    171       3.3398      0.00000
    172       3.3506      0.00000
    173       3.3650      0.00000
    174       3.3694      0.00000
    175       3.3810      0.00000
    176       3.3848      0.00000
    177       3.3899      0.00000
    178       3.4002      0.00000
    179       3.4020      0.00000
    180       3.4078      0.00000
    181       3.4108      0.00000
    182       3.4202      0.00000
    183       3.4246      0.00000
    184       3.4254      0.00000
    185       3.4355      0.00000
    186       3.4389      0.00000
    187       3.4412      0.00000
    188       3.4421      0.00000
    189       3.4700      0.00000
    190       3.5874      0.00000
    191       3.5908      0.00000
    192       3.6419      0.00000
    193       3.6579      0.00000
    194       3.6767      0.00000
    195       3.6829      0.00000
    196       3.7092      0.00000
    197       3.7128      0.00000
    198       3.7254      0.00000
    199       3.7726      0.00000
    200       3.7824      0.00000
    201       3.7963      0.00000
    202       3.7963      0.00000
    203       3.8567      0.00000
    204       3.9187      0.00000
    205       3.9228      0.00000
    206       3.9328      0.00000
    207       3.9880      0.00000
    208       3.9936      0.00000
    209       4.0127      0.00000
    210       4.0189      0.00000
    211       4.0194      0.00000
    212       4.0230      0.00000
    213       4.0296      0.00000
    214       4.0364      0.00000
    215       4.0476      0.00000
    216       4.0554      0.00000
    217       4.0583      0.00000
    218       4.0613      0.00000
    219       4.0655      0.00000
    220       4.0698      0.00000
    221       4.0779      0.00000
    222       4.0954      0.00000
    223       4.1528      0.00000
    224       4.1799      0.00000
    225       4.1809      0.00000
    226       4.1908      0.00000
    227       4.1994      0.00000
    228       4.2138      0.00000
    229       4.2296      0.00000
    230       4.2516      0.00000
    231       4.2559      0.00000
    232       4.2603      0.00000
    233       4.2741      0.00000
    234       4.2778      0.00000
    235       4.2888      0.00000
    236       4.2913      0.00000
    237       4.3044      0.00000
    238       4.3134      0.00000
    239       4.3139      0.00000
    240       4.3204      0.00000
    241       4.3330      0.00000
    242       4.3346      0.00000
    243       4.3397      0.00000
    244       4.3426      0.00000
    245       4.3506      0.00000
    246       4.3576      0.00000
    247       4.3654      0.00000
    248       4.3687      0.00000
    249       4.3741      0.00000
    250       4.3761      0.00000
    251       4.3958      0.00000
    252       4.4094      0.00000
    253       4.5434      0.00000
    254       4.6411      0.00000
    255       4.7088      0.00000
    256       4.8123      0.00000


--------------------------------------------------------------------------------------------------------


 soft charge-density along one line, spin component           1
         0         1         2         3         4         5         6         7         8         9
 total charge-density along one line

 pseudopotential strength for first ion, spin component:           1
 12.766  21.484   0.006  -0.002   0.004   0.011  -0.004   0.007
 21.484  36.155   0.010  -0.004   0.006   0.018  -0.007   0.011
  0.006   0.010  -3.195  -0.000  -0.001  -5.729  -0.001  -0.001
 -0.002  -0.004  -0.000  -3.196   0.000  -0.001  -5.730   0.000
  0.004   0.006  -0.001   0.000  -3.194  -0.001   0.000  -5.728
  0.011   0.018  -5.729  -0.001  -0.001 -10.249  -0.001  -0.002
 -0.004  -0.007  -0.001  -5.730   0.000  -0.001 -10.252   0.001
  0.007   0.011  -0.001   0.000  -5.728  -0.002   0.001 -10.248
 total augmentation occupancy for first ion, spin component:           1
  7.897  -2.786   1.059  -0.437  -0.098  -0.509   0.210   0.025
 -2.786   1.035  -0.563   0.232   0.009   0.257  -0.106   0.002
  1.059  -0.563   6.583  -1.479   0.633  -2.213   0.590  -0.313
 -0.437   0.232  -1.479   3.605  -0.261   0.590  -1.026   0.129
 -0.098   0.009   0.633  -0.261   7.437  -0.313   0.129  -2.537
 -0.509   0.257  -2.213   0.590  -0.313   0.763  -0.228   0.146
  0.210  -0.106   0.590  -1.026   0.129  -0.228   0.303  -0.060
  0.025   0.002  -0.313   0.129  -2.537   0.146  -0.060   0.885


------------------------ aborting loop because EDIFF is reached ----------------------------------------


    FORLOC:  cpu time      0.0199: real time      0.0199
    FORNL :  cpu time      0.2848: real time      0.2853
    FORCOR:  cpu time      0.2541: real time      0.2541
    OFIELD:  cpu time      0.0027: real time      0.0027

 ---------------------------------------------------------------------------------------------

         DFTD3 V3.0 Rev 1        
 IVDW         = 11
 DF pbe       
 parameters
 VDW_S6       =    1.0000
 VDW_S8       =    0.7220
 VDW_SR       =    1.2170
 rs18     =    1.0000
 alpha6   =   14.0000
 alpha8   =   16.0000
 k1-k3    =   16.0000    1.3333   -4.0000
 VDW_RADIUS   =   50.2022 A
 VDW_CNRADIUS =   21.1671 A
 Edisp (eV)   -0.06050

 E6    (eV) :    -0.0244
 E8    (eV) :    -0.0361
 % E8        : 59.66
    FORVDW:  cpu time      0.0367: real time      0.0367

 VOLUME and BASIS-vectors are now :
 -----------------------------------------------------------------------------
  energy-cutoff  :     1000.00
  volume of cell :    10648.00
      direct lattice vectors                 reciprocal lattice vectors
    22.000000000  0.000000000  0.000000000     0.045454545  0.000000000  0.000000000
     0.000000000 22.000000000  0.000000000     0.000000000  0.045454545  0.000000000
     0.000000000  0.000000000 22.000000000     0.000000000  0.000000000  0.045454545

  length of vectors
    22.000000000 22.000000000 22.000000000     0.045454545  0.045454545  0.045454545


 FORCES acting on ions:
    Electron-Ion                     Ewald-Force                    Non-Local-Force
 -----------------------------------------------------------------------------------------------
   -.836E+02 0.176E+03 -.725E+02   0.813E+02 -.179E+03 0.739E+02   0.241E+01 0.330E+01 -.136E+01
   0.836E+02 0.176E+03 -.726E+02   -.813E+02 -.179E+03 0.739E+02   -.241E+01 0.330E+01 -.136E+01
   0.836E+02 -.176E+03 0.726E+02   -.813E+02 0.179E+03 -.739E+02   -.241E+01 -.330E+01 0.136E+01
   -.836E+02 -.176E+03 0.726E+02   0.813E+02 0.179E+03 -.739E+02   0.241E+01 -.330E+01 0.136E+01
   -.420E+02 0.667E+02 -.275E+02   0.452E+02 -.715E+02 0.295E+02   -.305E+01 0.463E+01 -.191E+01
   0.420E+02 0.668E+02 -.275E+02   -.451E+02 -.715E+02 0.295E+02   0.305E+01 0.464E+01 -.191E+01
   0.420E+02 -.668E+02 0.275E+02   -.451E+02 0.715E+02 -.295E+02   0.305E+01 -.463E+01 0.191E+01
   -.420E+02 -.667E+02 0.275E+02   0.452E+02 0.715E+02 -.295E+02   -.305E+01 -.463E+01 0.191E+01
   -.279E+03 -.229E-01 -.393E-01   0.316E+03 0.238E-01 0.442E-01   -.375E+02 0.177E-02 -.698E-02
   0.279E+03 -.283E-01 -.341E-01   -.316E+03 0.320E-01 0.384E-01   0.375E+02 -.249E-02 -.587E-02
 -----------------------------------------------------------------------------------------------
   -.356E-02 0.977E-03 0.569E-02   -.568E-13 0.457E-13 -.822E-14   0.356E-02 -.977E-03 -.569E-02


 POSITION                                       TOTAL-FORCE (eV/Angst)
 -----------------------------------------------------------------------------------
     11.69754      9.95150     11.43245         0.020517      0.040443     -0.016390
     10.30241      9.95149     11.43252        -0.014728      0.043263     -0.018354
     10.30246     12.04847     10.56756        -0.015080     -0.041130      0.018522
     11.69764     12.04854     10.56762         0.016565     -0.045240      0.018779
     12.25710      9.08625     11.78912         0.055159     -0.073342      0.030610
      9.74342      9.08610     11.78931        -0.060350     -0.075198      0.031422
      9.74342     12.91390     10.21069        -0.059040      0.072985     -0.030490
     12.25708     12.91372     10.21078         0.056827      0.074433     -0.030629
     12.40807     11.00001     11.00021         0.098486      0.002558     -0.002035
      9.59193     11.00003     11.00019        -0.098356      0.001227     -0.001434
 -----------------------------------------------------------------------------------
    total drift:                                0.000001      0.000000     -0.000003


--------------------------------------------------------------------------------------------------------



  FREE ENERGIE OF THE ION-ELECTRON SYSTEM (eV)
  ---------------------------------------------------
  free  energy   TOTEN  =       -66.56524689 eV

  energy  without entropy=      -66.56524689  energy(sigma->0) =      -66.56524689



--------------------------------------------------------------------------------------------------------


    POTLOK:  cpu time      0.4712: real time      0.4718


--------------------------------------------------------------------------------------------------------


 stress matrix after NEB project (eV)
      0.06031      0.00000     -0.00000
      0.00000      0.01058     -0.00439
     -0.00000     -0.00439      0.00176
  FORCES: max atom, RMS     0.101411    0.082563
  FORCE total and by dimension    0.261087    0.098486
  Stress total and by dimension    0.061571    0.060311
     LOOP+:  cpu time    169.1514: real time    169.5227
    4ORBIT:  cpu time      0.0000: real time      0.0000

 total amount of memory used by VASP MPI-rank0   550012. kBytes
=======================================================================

   base      :      30000. kBytes
   nonl-proj :      67313. kBytes
   fftplans  :     151777. kBytes
   grid      :     291732. kBytes
   one-center:          7. kBytes
   wavefun   :       9183. kBytes

  
  
 General timing and accounting informations for this job:
 ========================================================
  
                  Total CPU time used (sec):      237.031
                            User time (sec):      208.032
                          System time (sec):       28.998
                         Elapsed time (sec):      257.013
  
                   Maximum memory used (kb):      819192.
                   Average memory used (kb):          N/A
  
                          Minor page faults:      1143861
                          Major page faults:         1166
                 Voluntary context switches:        11973
