 vasp.6.4.1 05Apr23 (build Jun  6 2023 14:46:38) gamma-only                      
 executed on        HPECrayEX_GCC date 2024.08.22  02:11:45
 running  512 mpi-ranks, with    1 threads/rank, on    4 nodes
 distrk:  each k-point on  256 cores,    2 groups
 distr:  one band on NCORE=  32 cores,    8 groups


--------------------------------------------------------------------------------------------------------


 INCAR:
   ALGO = Conjugate
   KPAR = 2
   NCORE = 32
   ISMEAR = 0
   SIGMA = 0.01
   PREC = Accurate
   EDIFF = 1E-7
   ENCUT = 1000
   ISIF = 0
   GGA = RE
   IVDW = 11
   LWAVE = .FALSE.
   LCHARG = .FALSE.
   SYMPREC = 1E-7
   LWAVE = .FALSE.
   LCHARG = .FALSE.

 POTCAR:    PAW_PBE C_h 06Feb2004                 
 POTCAR:    PAW_PBE H_h 06Feb2004                 
 POTCAR:    PAW_PBE N_h 06Feb2004                 
 POTCAR:    PAW_PBE C_h 06Feb2004                 
   VRHFIN =C: s2p2                                                                                  
   LEXCH  = PE                                                                                      
   EATOM  =   147.1560 eV,   10.8157 Ry                                                             
                                                                                                    
   TITEL  = PAW_PBE C_h 06Feb2004                                                                   
   LULTRA =        F    use ultrasoft PP ?                                                          
   IUNSCR =        1    unscreen: 0-lin 1-nonlin 2-no                                               
   RPACOR =    0.800    partial core radius                                                         
   POMASS =   12.011; ZVAL   =    4.000    mass and valenz                                          
   RCORE  =    1.100    outmost cutoff radius                                                       
   RWIGS  =    1.630; RWIGS  =    0.863    wigner-seitz radius (au A)                               
   ENMAX  =  700.000; ENMIN  =  500.000 eV                                                          
   ICORE  =        2    local potential                                                             
   LCOR   =        T    correct aug charges                                                         
   LPAW   =        T    paw PP                                                                      
   EAUG   =  946.768                                                                                
   DEXC   =    0.000                                                                                
   RMAX   =    1.128    core radius for proj-oper                                                   
   RAUG   =    1.300    factor for augmentation sphere                                              
   RDEP   =    1.162    radius for radial grids                                                     
   RDEPT  =    1.088    core radius for aug-charge                                                  
                                                                                                    
   Atomic configuration                                                                             
    4 entries                                                                                       
     n  l   j            E        occ.                                                              
     1  0  0.50      -273.3789   2.0000                                                             
     2  0  0.50       -13.7508   2.0000                                                             
     2  1  0.50        -5.2854   2.0000                                                             
     3  2  1.50        -5.4423   0.0000                                                             
   Description                                                                                      
     l       E           TYP  RCUT    TYP  RCUT                                                     
     0    -13.7508458     23  1.100                                                                 
     0     -8.2022199     23  1.100                                                                 
     1     -5.2854383     23  1.100                                                                 
     1      1.1560700     23  1.100                                                                 
     2     -5.4423304      7  1.100                                                                 
  local pseudopotential read in
  partial core-charges read in
  partial kinetic energy density read in
  atomic valenz-charges read in
  non local Contribution for L=           0  read in
    real space projection operators read in
  non local Contribution for L=           0  read in
    real space projection operators read in
  non local Contribution for L=           1  read in
    real space projection operators read in
  non local Contribution for L=           1  read in
    real space projection operators read in
    PAW grid and wavefunctions read in

   number of l-projection  operators is LMAX  =           4
   number of lm-projection operators is LMMAX =           8

 POTCAR:    PAW_PBE H_h 06Feb2004                 
   VRHFIN =H: ultrasoft test                                                                        
   LEXCH  = PE                                                                                      
   EATOM  =    12.4884 eV,    0.9179 Ry                                                             
                                                                                                    
   TITEL  = PAW_PBE H_h 06Feb2004                                                                   
   LULTRA =        F    use ultrasoft PP ?                                                          
   IUNSCR =        0    unscreen: 0-lin 1-nonlin 2-no                                               
   RPACOR =    0.000    partial core radius                                                         
   POMASS =    1.000; ZVAL   =    1.000    mass and valenz                                          
   RCORE  =    0.800    outmost cutoff radius                                                       
   RWIGS  =    0.700; RWIGS  =    0.370    wigner-seitz radius (au A)                               
   ENMAX  =  700.000; ENMIN  =  350.000 eV                                                          
   RCLOC  =    0.701    cutoff for local pot                                                        
   LCOR   =        T    correct aug charges                                                         
   LPAW   =        T    paw PP                                                                      
   EAUG   = 1000.000                                                                                
   RMAX   =    0.819    core radius for proj-oper                                                   
   RAUG   =    1.000    factor for augmentation sphere                                              
   RDEP   =    0.817    radius for radial grids                                                     
   RDEPT  =    0.817    core radius for aug-charge                                                  
                                                                                                    
   Atomic configuration                                                                             
    2 entries                                                                                       
     n  l   j            E        occ.                                                              
     1  0  0.50        -6.4927   1.0000                                                             
     2  1  0.50        -3.4015   0.0000                                                             
   Description                                                                                      
     l       E           TYP  RCUT    TYP  RCUT                                                     
     0     -6.4927493     23  0.800                                                                 
     0      6.8029130     23  0.800                                                                 
     1     -6.8029130     23  0.800                                                                 
  local pseudopotential read in
  atomic valenz-charges read in
  non local Contribution for L=           0  read in
    real space projection operators read in
  non local Contribution for L=           0  read in
    real space projection operators read in
  non local Contribution for L=           1  read in
    real space projection operators read in
    PAW grid and wavefunctions read in

   number of l-projection  operators is LMAX  =           3
   number of lm-projection operators is LMMAX =           5

 POTCAR:    PAW_PBE N_h 06Feb2004                 
   VRHFIN =N: s2p3                                                                                  
   LEXCH  = PE                                                                                      
   EATOM  =   264.5486 eV,   19.4438 Ry                                                             
                                                                                                    
   TITEL  = PAW_PBE N_h 06Feb2004                                                                   
   LULTRA =        F    use ultrasoft PP ?                                                          
   IUNSCR =        1    unscreen: 0-lin 1-nonlin 2-no                                               
   RPACOR =    0.800    partial core radius                                                         
   POMASS =   14.001; ZVAL   =    5.000    mass and valenz                                          
   RCORE  =    1.100    outmost cutoff radius                                                       
   RWIGS  =    1.480; RWIGS  =    0.783    wigner-seitz radius (au A)                               
   ENMAX  =  700.000; ENMIN  =  500.000 eV                                                          
   ICORE  =        2    local potential                                                             
   LCOR   =        T    correct aug charges                                                         
   LPAW   =        T    paw PP                                                                      
   EAUG   =  904.640                                                                                
   DEXC   =    0.000                                                                                
   RMAX   =    1.127    core radius for proj-oper                                                   
   RAUG   =    1.300    factor for augmentation sphere                                              
   RDEP   =    1.115    radius for radial grids                                                     
   RDEPT  =    1.106    core radius for aug-charge                                                  
                                                                                                    
   Atomic configuration                                                                             
    4 entries                                                                                       
     n  l   j            E        occ.                                                              
     1  0  0.50      -384.7179   2.0000                                                             
     2  0  0.50       -18.5828   2.0000                                                             
     2  1  0.50        -7.0898   3.0000                                                             
     3  2  1.50        -6.8029   0.0000                                                             
   Description                                                                                      
     l       E           TYP  RCUT    TYP  RCUT                                                     
     0    -18.5828117     23  1.100                                                                 
     0    -15.0750597     23  1.100                                                                 
     1     -7.0897851     23  1.100                                                                 
     1     -1.9663412     23  1.100                                                                 
     2     -6.8029130      7  1.100                                                                 
  local pseudopotential read in
  partial core-charges read in
  partial kinetic energy density read in
  kinetic energy density of atom read in
  atomic valenz-charges read in
  non local Contribution for L=           0  read in
    real space projection operators read in
  non local Contribution for L=           0  read in
    real space projection operators read in
  non local Contribution for L=           1  read in
    real space projection operators read in
  non local Contribution for L=           1  read in
    real space projection operators read in
    PAW grid and wavefunctions read in

   number of l-projection  operators is LMAX  =           4
   number of lm-projection operators is LMMAX =           8

 -----------------------------------------------------------------------------
|                                                                             |
|               ----> ADVICE to this user running VASP <----                  |
|                                                                             |
|     You enforced a specific xc type in the INCAR file but a different       |
|     type was found in the POTCAR file.                                      |
|     I HOPE YOU KNOW WHAT YOU ARE DOING!                                     |
|                                                                             |
 -----------------------------------------------------------------------------

  PAW_PBE C_h 06Feb2004                 :
 energy of atom  1       EATOM= -147.1560
 kinetic energy error for atom=    0.0031 (will be added to EATOM!!)
  PAW_PBE H_h 06Feb2004                 :
 energy of atom  2       EATOM=  -12.4884
 kinetic energy error for atom=    0.0006 (will be added to EATOM!!)
  PAW_PBE N_h 06Feb2004                 :
 energy of atom  3       EATOM= -264.5486
 kinetic energy error for atom=    0.0081 (will be added to EATOM!!)


 POSCAR:  C  H  N
  positions in cartesian coordinates
  No initial velocities read in
 exchange correlation table for  LEXCH =       40
   RHO(1)=    0.500       N(1)  =     2000
   RHO(2)=  100.500       N(2)  =     4000

 VTST: version 4.1, (05/19/21)

 CHAIN: initializing optimizer
 
 OPT: Using VASP Dynamics algorithm
 CHAIN: Read ICHAIN            0

 POSCAR:  C  H  N
  positions in cartesian coordinates
  No initial velocities read in



--------------------------------------------------------------------------------------------------------


 ion  position               nearest neighbor table
   1  0.532  0.452  0.520-   5 1.09   9 1.34   2 1.40
   2  0.468  0.452  0.520-   6 1.09  10 1.34   1 1.40
   3  0.468  0.548  0.480-   7 1.09  10 1.34   4 1.40
   4  0.532  0.548  0.480-   8 1.09   9 1.34   3 1.40
   5  0.557  0.413  0.536-   1 1.09
   6  0.443  0.413  0.536-   2 1.09
   7  0.443  0.587  0.464-   3 1.09
   8  0.557  0.587  0.464-   4 1.09
   9  0.564  0.500  0.500-   1 1.34   4 1.34
  10  0.436  0.500  0.500-   2 1.34   3 1.34

  LATTYP: Found a simple cubic cell.
 ALAT       =    22.0000000000
  
  Lattice vectors:
  
 A1 = (  22.0000000000,   0.0000000000,   0.0000000000)
 A2 = (   0.0000000000,  22.0000000000,   0.0000000000)
 A3 = (   0.0000000000,   0.0000000000,  22.0000000000)


Analysis of symmetry for initial positions (statically):
=====================================================================
 Subroutine PRICEL returns:
 Original cell was already a primitive cell.
 

 Routine SETGRP: Setting up the symmetry group for a 
 simple cubic supercell.


 Subroutine GETGRP returns: Found  1 space group operations
 (whereof  1 operations were pure point group operations)
 out of a pool of 48 trial point group operations.


The static configuration has the point symmetry C_1 .


Analysis of symmetry for dynamics (positions and initial velocities):
=====================================================================
 Subroutine PRICEL returns:
 Original cell was already a primitive cell.
 

 Routine SETGRP: Setting up the symmetry group for a 
 simple cubic supercell.


 Subroutine GETGRP returns: Found  1 space group operations
 (whereof  1 operations were pure point group operations)
 out of a pool of 48 trial point group operations.


The dynamic configuration has the point symmetry C_1 .


 Subroutine INISYM returns: Found  1 space group operations
 (whereof  1 operations are pure point group operations),
 and found     1 'primitive' translations


----------------------------------------------------------------------------------------

                                     Primitive cell                                     

  volume of cell :   10648.0000

  direct lattice vectors                    reciprocal lattice vectors
    22.000000000  0.000000000  0.000000000     0.045454545  0.000000000  0.000000000
     0.000000000 22.000000000  0.000000000     0.000000000  0.045454545  0.000000000
     0.000000000  0.000000000 22.000000000     0.000000000  0.000000000  0.045454545

  length of vectors
    22.000000000 22.000000000 22.000000000     0.045454545  0.045454545  0.045454545

  position of ions in fractional coordinates (direct lattice)
     0.531706591  0.452340909  0.519656818
     0.468291136  0.452340455  0.519660000
     0.468293409  0.547657727  0.480343636
     0.531711136  0.547660909  0.480346364
     0.557140682  0.413011364  0.535869091
     0.442882500  0.413004545  0.535877727
     0.442882500  0.586995455  0.464122273
     0.557139773  0.586987273  0.464126364
     0.564002955  0.500000455  0.500009545
     0.435997045  0.500001364  0.500008636

  ion indices of the primitive-cell ions
   primitive index   ion index
                 1           1
                 2           2
                 3           3
                 4           4
                 5           5
                 6           6
                 7           7
                 8           8
                 9           9
                10          10

----------------------------------------------------------------------------------------



 KPOINTS: auto                                    

Automatic generation of k-mesh.
 Grid dimensions read from file:
 generate k-points for:    1    1    1

 Generating k-lattice:

  Cartesian coordinates                     Fractional coordinates (reciprocal lattice)
     0.045454545  0.000000000  0.000000000     1.000000000  0.000000000  0.000000000
     0.000000000  0.045454545  0.000000000     0.000000000  1.000000000  0.000000000
     0.000000000  0.000000000  0.045454545     0.000000000  0.000000000  1.000000000

  Length of vectors
     0.045454545  0.045454545  0.045454545

  Shift w.r.t. Gamma in fractional coordinates (k-lattice)
     0.000000000  0.000000000  0.000000000

 
 Subroutine IBZKPT returns following result:
 ===========================================
 
 Found      1 irreducible k-points:
 
 Following reciprocal coordinates:
            Coordinates               Weight
  0.000000  0.000000  0.000000      1.000000
 
 Following cartesian coordinates:
            Coordinates               Weight
  0.000000  0.000000  0.000000      1.000000
 


--------------------------------------------------------------------------------------------------------




 Dimension of arrays:
   k-points           NKPTS =      1   k-points in BZ     NKDIM =      1   number of bands    NBANDS=     24
   number of dos      NEDOS =    301   number of ions     NIONS =     10
   non local maximal  LDIM  =      4   non local SUM 2l+1 LMDIM =      8
   total plane-waves  NPLWV = ******
   max r-space proj   IRMAX =      1   max aug-charges    IRDMAX=   9419
   dimension x,y,z NGX =   240 NGY =  240 NGZ =  240
   dimension x,y,z NGXF=   480 NGYF=  480 NGZF=  480
   support grid    NGXF=   480 NGYF=  480 NGZF=  480
   ions per type =               4   4   2
   NGX,Y,Z   is equivalent  to a cutoff of  18.14, 18.14, 18.14 a.u.
   NGXF,Y,Z  is equivalent  to a cutoff of  36.27, 36.27, 36.27 a.u.

 SYSTEM =  unknown system                          
 POSCAR =   C  H  N                                

 Startparameter for this run:
   NWRITE =      2    write-flag & timer
   PREC   = accura    normal or accurate (medium, high low for compatibility)
   ISTART =      0    job   : 0-new  1-cont  2-samecut
   ICHARG =      2    charge: 1-file 2-atom 10-const
   ISPIN  =      1    spin polarized calculation?
   LNONCOLLINEAR =      F non collinear calculations
   LSORBIT =      F    spin-orbit coupling
   INIWAV =      1    electr: 0-lowe 1-rand  2-diag
   LASPH  =      F    aspherical Exc in radial PAW
 Electronic Relaxation 1
   ENCUT  = 1000.0 eV  73.50 Ry    8.57 a.u.  56.73 56.73 56.73*2*pi/ulx,y,z
   ENINI  = 1000.0     initial cutoff
   ENAUG  = 1000.0 eV  augmentation charge cutoff
   NELM   =     60;   NELMIN=  2; NELMDL= -5     # of ELM steps 
   EDIFF  = 0.1E-06   stopping-criterion for ELM
   LREAL  =      F    real-space projection
   NLSPLINE    = F    spline interpolate recip. space projectors
   LCOMPAT=      F    compatible to vasp.4.4
   GGA_COMPAT  = T    GGA compatible to vasp.4.4-vasp.4.6
   LMAXPAW     = -100 max onsite density
   LMAXMIX     =    2 max onsite mixed and CHGCAR
   VOSKOWN=      0    Vosko Wilk Nusair interpolation
   ROPT   =    0.00000   0.00000   0.00000
 Ionic relaxation
   EDIFFG = 0.1E-05   stopping-criterion for IOM
   NSW    =      0    number of steps for IOM
   NBLOCK =      1;   KBLOCK =      1    inner block; outer block 
   IBRION =     -1    ionic relax: 0-MD 1-quasi-New 2-CG
   NFREE  =      0    steps in history (QN), initial steepest desc. (CG)
   ISIF   =      0    stress and relaxation
   IWAVPR =     10    prediction:  0-non 1-charg 2-wave 3-comb
   ISYM   =      2    0-nonsym 1-usesym 2-fastsym
   LCORR  =      T    Harris-Foulkes like correction to forces

   POTIM  = 0.5000    time-step for ionic-motion
   TEIN   =    0.0    initial temperature
   TEBEG  =    0.0;   TEEND  =   0.0 temperature during run
   SMASS  =  -3.00    Nose mass-parameter (am)
   estimated Nose-frequenzy (Omega)   =  0.10E-29 period in steps = 0.13E+47 mass=  -0.111E-25a.u.
   SCALEE = 1.0000    scale energy and forces
   NPACO  =    256;   APACO  = 10.0  distance and # of slots for P.C.
   PSTRESS=    0.0 pullay stress

  Mass of Ions in am
   POMASS =  12.01  1.00 14.00
  Ionic Valenz
   ZVAL   =   4.00  1.00  5.00
  Atomic Wigner-Seitz radii
   RWIGS  =  -1.00 -1.00 -1.00
  virtual crystal weights 
   VCA    =   1.00  1.00  1.00
   NELECT =      30.0000    total number of electrons
   NUPDOWN=      -1.0000    fix difference up-down

 DOS related values:
   EMIN   =  10.00;   EMAX   =-10.00  energy-range for DOS
   EFERMI =   0.00;   METHOD = LEGACY      
   ISMEAR =     0;   SIGMA  =   0.01  broadening in eV -4-tet -1-fermi 0-gaus

 Electronic relaxation 2 (details)
   IALGO  =     58    algorithm
   LDIAG  =      T    sub-space diagonalisation (order eigenvalues)
   LSUBROT=      F    optimize rotation matrix (better conditioning)
   TURBO    =      0    0=normal 1=particle mesh
   IRESTART =      0    0=no restart 2=restart with 2 vectors
   NREBOOT  =      0    no. of reboots
   NMIN     =      0    reboot dimension
   EREF     =   0.00    reference energy to select bands
   IMIX   =      4    mixing-type and parameters
     AMIX     =   0.40;   BMIX     =  1.00
     AMIX_MAG =   1.60;   BMIX_MAG =  1.00
     AMIN     =   0.10
     WC   =   100.;   INIMIX=   1;  MIXPRE=   1;  MAXMIX= -45

 Intra band minimization:
   WEIMIN = 0.0000     energy-eigenvalue tresh-hold
   EBREAK =  0.10E-08  absolut break condition
   DEPER  =   0.30     relativ break condition  

   TIME   =   0.40     timestep for ELM

  volume/ion in A,a.u.               =    1064.80      7185.63
  Fermi-wavevector in a.u.,A,eV,Ry     =   0.231220  0.436943  0.727406  0.053463
  Thomas-Fermi vector in A             =   1.025338

 Write flags
   LWAVE        =      F    write WAVECAR
   LDOWNSAMPLE  =      F    k-point downsampling of WAVECAR
   LCHARG       =      F    write CHGCAR
   LVTOT        =      F    write LOCPOT, total local potential
   LVHAR        =      F    write LOCPOT, Hartree potential only
   LELF         =      F    write electronic localiz. function (ELF)
   LORBIT       =      0    0 simple, 1 ext, 2 COOP (PROOUT), +10 PAW based schemes


 Dipole corrections
   LMONO  =      F    monopole corrections only (constant potential shift)
   LDIPOL =      F    correct potential (dipole corrections)
   IDIPOL =      0    1-x, 2-y, 3-z, 4-all directions 
   EPSILON=  1.0000000 bulk dielectric constant

 Exchange correlation treatment:
   GGA     =    RE    GGA type
   LEXCH   =    40    internal setting for exchange type
   LIBXC   =     F    Libxc                    
   VOSKOWN =     0    Vosko Wilk Nusair interpolation
   LHFCALC =     F    Hartree Fock is set to
   LHFONE  =     F    Hartree Fock one center treatment
   AEXX    =    0.0000 exact exchange contribution

 Linear response parameters
   LEPSILON=     F    determine dielectric tensor
   LRPA    =     F    only Hartree local field effects (RPA)
   LNABLA  =     F    use nabla operator in PAW spheres
   LVEL    =     F    velocity operator in full k-point grid
   CSHIFT  =0.1000    complex shift for real part using Kramers Kronig
   OMEGAMAX=  -1.0    maximum frequency
   DEG_THRESHOLD= 0.2000000E-02 threshold for treating states as degnerate
   RTIME   =   -0.100 relaxation time in fs
  (WPLASMAI=    0.000 imaginary part of plasma frequency in eV, 0.658/RTIME)
   DFIELD  = 0.0000000 0.0000000 0.0000000 field for delta impulse in time

  Optional k-point grid parameters
   LKPOINTS_OPT  =     F    use optional k-point grid
   KPOINTS_OPT_MODE=     1    mode for optional k-point grid

 Orbital magnetization related:
   ORBITALMAG=     F  switch on orbital magnetization
   LCHIMAG   =     F  perturbation theory with respect to B field
   DQ        =  0.001000  dq finite difference perturbation B field
   LLRAUG    =     F  two centre corrections for induced B field
   LBONE     =     F  B-component reconstruction in AE one-centre
   LVGVCALC  =     T  calculate vGv susceptibility
   LVGVAPPL  =     F  apply vGv susceptibility instead of pGv for G=0

 Random number generation:
   RANDOM_GENERATOR = DEFAULT
   PCG_SEED         = not used


--------------------------------------------------------------------------------------------------------


 Static calculation
 charge density and potential will be updated during run
 non-spin polarized calculation
 Conjugate gradient for all bands (Freysoldt, et al. PRB 79, 241103 (2009))
 preconditioned conjugated gradient                                        
 perform sub-space diagonalisation
    before iterative eigenvector-optimisation
 modified Broyden-mixing scheme, WC =      100.0
 initial mixing is a Kerker type mixing with AMIX =  0.4000 and BMIX =      1.0000
 Hartree-type preconditioning will be used
 using additional bands            9
 reciprocal scheme for non local part
 use partial core corrections
 no Harris-corrections to forces 
 use gradient corrections 
 use of overlap-Matrix (Vanderbilt PP)
 Gauss-broadening in eV      SIGMA  =   0.01


--------------------------------------------------------------------------------------------------------


  energy-cutoff  :     1000.00
  volume of cell :    10648.00
      direct lattice vectors                 reciprocal lattice vectors
    22.000000000  0.000000000  0.000000000     0.045454545  0.000000000  0.000000000
     0.000000000 22.000000000  0.000000000     0.000000000  0.045454545  0.000000000
     0.000000000  0.000000000 22.000000000     0.000000000  0.000000000  0.045454545

  length of vectors
    22.000000000 22.000000000 22.000000000     0.045454545  0.045454545  0.045454545



 k-points in units of 2pi/SCALE and weight: auto                                    
   0.00000000  0.00000000  0.00000000       1.000

 k-points in reciprocal lattice and weights: auto                                    
   0.00000000  0.00000000  0.00000000       1.000

 position of ions in fractional coordinates (direct lattice) 
   0.53170659  0.45234091  0.51965682
   0.46829114  0.45234045  0.51966000
   0.46829341  0.54765773  0.48034364
   0.53171114  0.54766091  0.48034636
   0.55714068  0.41301136  0.53586909
   0.44288250  0.41300455  0.53587773
   0.44288250  0.58699545  0.46412227
   0.55713977  0.58698727  0.46412636
   0.56400295  0.50000045  0.50000955
   0.43599705  0.50000136  0.50000864

 position of ions in cartesian coordinates  (Angst):
  11.69754500  9.95150000 11.43245000
  10.30240500  9.95149000 11.43252000
  10.30245500 12.04847000 10.56756000
  11.69764500 12.04854000 10.56762000
  12.25709500  9.08625000 11.78912000
   9.74341500  9.08610000 11.78931000
   9.74341500 12.91390000 10.21069000
  12.25707500 12.91372000 10.21078000
  12.40806500 11.00001000 11.00021000
   9.59193500 11.00003000 11.00019000



--------------------------------------------------------------------------------------------------------


 use parallel FFT for orbitals z direction half grid
 k-point   1 :   0.0000 0.0000 0.0000  plane waves:  381993

 maximum and minimum number of plane-waves per node :     11948    11928

 maximum number of plane-waves:    381993
 maximum index in each direction: 
   IXMAX=   56   IYMAX=   56   IZMAX=   56
   IXMIN=  -56   IYMIN=  -56   IZMIN=    0


 parallel 3D FFT for wavefunctions:
    minimum data exchange during FFTs selected (reduces bandwidth)
 parallel 3D FFT for charge:
    minimum data exchange during FFTs selected (reduces bandwidth)


 total amount of memory used by VASP MPI-rank0   108847. kBytes
=======================================================================

   base      :      30000. kBytes
   nonl-proj :       4201. kBytes
   fftplans  :      24880. kBytes
   grid      :      48046. kBytes
   one-center:          1. kBytes
   wavefun   :       1719. kBytes

     INWAV:  cpu time      0.0000: real time      0.0000
 Broyden mixing: mesh for mixing (old mesh)
   NGX =113   NGY =113   NGZ =113
  (NGX  =480   NGY  =480   NGZ  =480)
  gives a total of ****** points

 initial charge density was supplied:
 charge density of overlapping atoms calculated
 number of electron      30.0000000 magnetization 
 keeping initial charge density in first step


--------------------------------------------------------------------------------------------------------


 Maximum index for augmentation-charges          496 (set IRDMAX)


--------------------------------------------------------------------------------------------------------


 First call to EWALD:  gamma=   0.081
 Maximum number of real-space cells 3x 3x 3
 Maximum number of reciprocal cells 3x 3x 3

    FEWALD:  cpu time      0.0039: real time      0.0042


--------------------------------------- Ionic step        1  -------------------------------------------




--------------------------------------- Iteration      1(   1)  ---------------------------------------


    POTLOK:  cpu time      0.6082: real time      0.6100
    SETDIJ:  cpu time      0.0098: real time      0.0102
    TRIAL :  cpu time      0.7012: real time      0.7030
    CORREC:  cpu time      0.0010: real time      0.0010
    --------------------------------------------
      LOOP:  cpu time      1.3310: real time      1.3352

 eigenvalue-minimisations  :    64
 total energy-change (2. order) : 0.2511035E+03  (-0.8065816E+03)
 number of electron      30.0000000 magnetization 
 augmentation part       30.0000000 magnetization 

 Free energy of the ion-electron system (eV)
  ---------------------------------------------------
  alpha Z        PSCENC =         0.26547520
  Ewald energy   TEWEN  =      2045.38593121
  -Hartree energ DENC   =     -2857.63293210
  -exchange      EXHF   =         0.00000000
  -V(xc)+E(xc)   XCENC  =        69.42218977
  PAW double counting   =       876.58363114     -851.19984879
  entropy T*S    EENTRO =        -0.00000000
  eigenvalues    EBANDS =      -198.70616803
  atomic energy  EATOM  =      1166.98518439
  ---------------------------------------------------
  free energy    TOTEN  =       251.10346279 eV

  energy without entropy =      251.10346279  energy(sigma->0) =      251.10346279


--------------------------------------------------------------------------------------------------------




--------------------------------------- Iteration      1(   2)  ---------------------------------------


    TRIAL :  cpu time      0.8562: real time      0.8568
    CORREC:  cpu time      0.0002: real time      0.0002
    --------------------------------------------
      LOOP:  cpu time      0.8707: real time      0.8848

 eigenvalue-minimisations  :    88
 total energy-change (2. order) :-0.1517462E+03  (-0.1497123E+03)
 number of electron      30.0000000 magnetization 
 augmentation part       30.0000000 magnetization 

 Free energy of the ion-electron system (eV)
  ---------------------------------------------------
  alpha Z        PSCENC =         0.26547520
  Ewald energy   TEWEN  =      2045.38593121
  -Hartree energ DENC   =     -2857.63293210
  -exchange      EXHF   =         0.00000000
  -V(xc)+E(xc)   XCENC  =        69.42218977
  PAW double counting   =       876.58363114     -851.19984879
  entropy T*S    EENTRO =        -0.00000000
  eigenvalues    EBANDS =      -350.45233060
  atomic energy  EATOM  =      1166.98518439
  ---------------------------------------------------
  free energy    TOTEN  =        99.35730022 eV

  energy without entropy =       99.35730022  energy(sigma->0) =       99.35730022


--------------------------------------------------------------------------------------------------------




--------------------------------------- Iteration      1(   3)  ---------------------------------------


    TRIAL :  cpu time      0.7938: real time      0.7943
    CORREC:  cpu time      0.0001: real time      0.0001
    --------------------------------------------
      LOOP:  cpu time      0.8071: real time      0.8242

 eigenvalue-minimisations  :    80
 total energy-change (2. order) :-0.1172956E+03  (-0.1028406E+03)
 number of electron      30.0000000 magnetization 
 augmentation part       30.0000000 magnetization 

 Free energy of the ion-electron system (eV)
  ---------------------------------------------------
  alpha Z        PSCENC =         0.26547520
  Ewald energy   TEWEN  =      2045.38593121
  -Hartree energ DENC   =     -2857.63293210
  -exchange      EXHF   =         0.00000000
  -V(xc)+E(xc)   XCENC  =        69.42218977
  PAW double counting   =       876.58363114     -851.19984879
  entropy T*S    EENTRO =        -0.00000000
  eigenvalues    EBANDS =      -467.74794965
  atomic energy  EATOM  =      1166.98518439
  ---------------------------------------------------
  free energy    TOTEN  =       -17.93831883 eV

  energy without entropy =      -17.93831883  energy(sigma->0) =      -17.93831883


--------------------------------------------------------------------------------------------------------




--------------------------------------- Iteration      1(   4)  ---------------------------------------


    TRIAL :  cpu time      0.6739: real time      0.6742
    CORREC:  cpu time      0.0002: real time      0.0002
    --------------------------------------------
      LOOP:  cpu time      0.7036: real time      0.7041

 eigenvalue-minimisations  :    64
 total energy-change (2. order) :-0.4854693E+02  (-0.4843228E+02)
 number of electron      30.0000000 magnetization 
 augmentation part       30.0000000 magnetization 

 Free energy of the ion-electron system (eV)
  ---------------------------------------------------
  alpha Z        PSCENC =         0.26547520
  Ewald energy   TEWEN  =      2045.38593121
  -Hartree energ DENC   =     -2857.63293210
  -exchange      EXHF   =         0.00000000
  -V(xc)+E(xc)   XCENC  =        69.42218977
  PAW double counting   =       876.58363114     -851.19984879
  entropy T*S    EENTRO =        -0.00000000
  eigenvalues    EBANDS =      -516.29487624
  atomic energy  EATOM  =      1166.98518439
  ---------------------------------------------------
  free energy    TOTEN  =       -66.48524541 eV

  energy without entropy =      -66.48524541  energy(sigma->0) =      -66.48524541


--------------------------------------------------------------------------------------------------------




--------------------------------------- Iteration      1(   5)  ---------------------------------------


    TRIAL :  cpu time      0.6735: real time      0.6735
    CORREC:  cpu time      0.0002: real time      0.0002
    CHARGE:  cpu time      0.2082: real time      0.2094
    --------------------------------------------
      LOOP:  cpu time      0.8939: real time      0.9122

 eigenvalue-minimisations  :    64
 total energy-change (2. order) :-0.3973884E+01  (-0.3970506E+01)
 number of electron      30.0000000 magnetization 
 augmentation part       -0.0859261 magnetization 

 Free energy of the ion-electron system (eV)
  ---------------------------------------------------
  alpha Z        PSCENC =         0.26547520
  Ewald energy   TEWEN  =      2045.38593121
  -Hartree energ DENC   =     -2857.63293210
  -exchange      EXHF   =         0.00000000
  -V(xc)+E(xc)   XCENC  =        69.42218977
  PAW double counting   =       876.58363114     -851.19984879
  entropy T*S    EENTRO =        -0.00000000
  eigenvalues    EBANDS =      -520.26876035
  atomic energy  EATOM  =      1166.98518439
  ---------------------------------------------------
  free energy    TOTEN  =       -70.45912953 eV

  energy without entropy =      -70.45912953  energy(sigma->0) =      -70.45912953


--------------------------------------------------------------------------------------------------------




--------------------------------------- Iteration      1(   6)  ---------------------------------------


    POTLOK:  cpu time      0.6168: real time      0.6169
    SETDIJ:  cpu time      0.0033: real time      0.0033
    TRIAL :  cpu time      0.3949: real time      0.3964
    CORREC:  cpu time      0.9041: real time      0.9058
    CHARGE:  cpu time      0.1695: real time      0.1699
    --------------------------------------------
      LOOP:  cpu time      2.1052: real time      2.1218

 eigenvalue-minimisations  :     0
 total energy-change (2. order) : 0.9079445E+01  (-0.3147004E+01)
 number of electron      30.0000000 magnetization 
 augmentation part       -0.0894207 magnetization 

 Free energy of the ion-electron system (eV)
  ---------------------------------------------------
  alpha Z        PSCENC =         0.26547520
  Ewald energy   TEWEN  =      2045.38593121
  -Hartree energ DENC   =     -3087.10562097
  -exchange      EXHF   =         0.00000000
  -V(xc)+E(xc)   XCENC  =        78.83254448
  PAW double counting   =     11293.85979933   -11269.23744153
  entropy T*S    EENTRO =        -0.00000000
  eigenvalues    EBANDS =      -290.36555664
  atomic energy  EATOM  =      1166.98518439
  ---------------------------------------------------
  free energy    TOTEN  =       -61.37968453 eV

  energy without entropy =      -61.37968453  energy(sigma->0) =      -61.37968453


--------------------------------------------------------------------------------------------------------




--------------------------------------- Iteration      1(   7)  ---------------------------------------


    POTLOK:  cpu time      0.6157: real time      0.6159
    SETDIJ:  cpu time      0.0032: real time      0.0032
    TRIAL :  cpu time      0.3831: real time      0.3836
    CORREC:  cpu time      0.9006: real time      0.9011
    CHARGE:  cpu time      0.1692: real time      0.1693
    --------------------------------------------
      LOOP:  cpu time      2.1017: real time      2.1031

 eigenvalue-minimisations  :     0
 total energy-change (2. order) :-0.3174159E+01  (-0.3592554E+00)
 number of electron      30.0000000 magnetization 
 augmentation part       -0.0986603 magnetization 

 Free energy of the ion-electron system (eV)
  ---------------------------------------------------
  alpha Z        PSCENC =         0.26547520
  Ewald energy   TEWEN  =      2045.38593121
  -Hartree energ DENC   =     -2991.69924307
  -exchange      EXHF   =         0.00000000
  -V(xc)+E(xc)   XCENC  =        75.38023608
  PAW double counting   =     13389.41964499   -13364.47768940
  entropy T*S    EENTRO =        -0.00000000
  eigenvalues    EBANDS =      -385.81338277
  atomic energy  EATOM  =      1166.98518439
  ---------------------------------------------------
  free energy    TOTEN  =       -64.55384338 eV

  energy without entropy =      -64.55384338  energy(sigma->0) =      -64.55384338


--------------------------------------------------------------------------------------------------------




--------------------------------------- Iteration      1(   8)  ---------------------------------------


    POTLOK:  cpu time      0.6246: real time      0.6247
    SETDIJ:  cpu time      0.0024: real time      0.0024
    TRIAL :  cpu time      0.3855: real time      0.3861
    CORREC:  cpu time      0.9016: real time      0.9023
    CHARGE:  cpu time      0.1694: real time      0.1695
    --------------------------------------------
      LOOP:  cpu time      2.1113: real time      2.1162

 eigenvalue-minimisations  :     0
 total energy-change (2. order) :-0.3603132E+00  (-0.1278174E+00)
 number of electron      30.0000000 magnetization 
 augmentation part       -0.0990848 magnetization 

 Free energy of the ion-electron system (eV)
  ---------------------------------------------------
  alpha Z        PSCENC =         0.26547520
  Ewald energy   TEWEN  =      2045.38593121
  -Hartree energ DENC   =     -2989.99370971
  -exchange      EXHF   =         0.00000000
  -V(xc)+E(xc)   XCENC  =        75.30872506
  PAW double counting   =     14094.62245978   -14069.62984294
  entropy T*S    EENTRO =        -0.00000000
  eigenvalues    EBANDS =      -387.85837960
  atomic energy  EATOM  =      1166.98518439
  ---------------------------------------------------
  free energy    TOTEN  =       -64.91415662 eV

  energy without entropy =      -64.91415662  energy(sigma->0) =      -64.91415662


--------------------------------------------------------------------------------------------------------




--------------------------------------- Iteration      1(   9)  ---------------------------------------


    POTLOK:  cpu time      0.6144: real time      0.6148
    SETDIJ:  cpu time      0.0029: real time      0.0029
    TRIAL :  cpu time      0.3823: real time      0.3823
    CORREC:  cpu time      0.8993: real time      0.9000
    CHARGE:  cpu time      0.1698: real time      0.1699
    --------------------------------------------
      LOOP:  cpu time      2.0906: real time      2.1039

 eigenvalue-minimisations  :     0
 total energy-change (2. order) :-0.1274072E+00  (-0.6526723E-01)
 number of electron      30.0000000 magnetization 
 augmentation part       -0.0991981 magnetization 

 Free energy of the ion-electron system (eV)
  ---------------------------------------------------
  alpha Z        PSCENC =         0.26547520
  Ewald energy   TEWEN  =      2045.38593121
  -Hartree energ DENC   =     -2988.94848061
  -exchange      EXHF   =         0.00000000
  -V(xc)+E(xc)   XCENC  =        75.25300495
  PAW double counting   =     14319.16269775   -14294.14920480
  entropy T*S    EENTRO =        -0.00000000
  eigenvalues    EBANDS =      -388.99617186
  atomic energy  EATOM  =      1166.98518439
  ---------------------------------------------------
  free energy    TOTEN  =       -65.04156379 eV

  energy without entropy =      -65.04156379  energy(sigma->0) =      -65.04156379


--------------------------------------------------------------------------------------------------------




--------------------------------------- Iteration      1(  10)  ---------------------------------------


    POTLOK:  cpu time      0.6138: real time      0.6141
    SETDIJ:  cpu time      0.0042: real time      0.0042
    TRIAL :  cpu time      0.3822: real time      0.3823
    CORREC:  cpu time      0.8952: real time      0.8957
    CHARGE:  cpu time      0.1694: real time      0.1695
    --------------------------------------------
      LOOP:  cpu time      2.0953: real time      2.0965

 eigenvalue-minimisations  :     0
 total energy-change (2. order) :-0.6408915E-01  (-0.2315759E-01)
 number of electron      30.0000000 magnetization 
 augmentation part       -0.0991786 magnetization 

 Free energy of the ion-electron system (eV)
  ---------------------------------------------------
  alpha Z        PSCENC =         0.26547520
  Ewald energy   TEWEN  =      2045.38593121
  -Hartree energ DENC   =     -2985.90567982
  -exchange      EXHF   =         0.00000000
  -V(xc)+E(xc)   XCENC  =        75.16567855
  PAW double counting   =     14170.92314677   -14145.90515232
  entropy T*S    EENTRO =        -0.00000000
  eigenvalues    EBANDS =      -392.02023691
  atomic energy  EATOM  =      1166.98518439
  ---------------------------------------------------
  free energy    TOTEN  =       -65.10565294 eV

  energy without entropy =      -65.10565294  energy(sigma->0) =      -65.10565294


--------------------------------------------------------------------------------------------------------




--------------------------------------- Iteration      1(  11)  ---------------------------------------


    POTLOK:  cpu time      0.6105: real time      0.6109
    SETDIJ:  cpu time      0.0040: real time      0.0040
    TRIAL :  cpu time      0.3818: real time      0.3818
    CORREC:  cpu time      0.8826: real time      0.8832
    CHARGE:  cpu time      0.1709: real time      0.1710
    --------------------------------------------
      LOOP:  cpu time      2.0617: real time      2.0816

 eigenvalue-minimisations  :     0
 total energy-change (2. order) :-0.2295302E-01  (-0.6518642E-02)
 number of electron      30.0000000 magnetization 
 augmentation part       -0.0986614 magnetization 

 Free energy of the ion-electron system (eV)
  ---------------------------------------------------
  alpha Z        PSCENC =         0.26547520
  Ewald energy   TEWEN  =      2045.38593121
  -Hartree energ DENC   =     -2985.09826157
  -exchange      EXHF   =         0.00000000
  -V(xc)+E(xc)   XCENC  =        75.15234189
  PAW double counting   =     13953.82125062   -13928.81111458
  entropy T*S    EENTRO =        -0.00000000
  eigenvalues    EBANDS =      -392.82941312
  atomic energy  EATOM  =      1166.98518439
  ---------------------------------------------------
  free energy    TOTEN  =       -65.12860596 eV

  energy without entropy =      -65.12860596  energy(sigma->0) =      -65.12860596


--------------------------------------------------------------------------------------------------------




--------------------------------------- Iteration      1(  12)  ---------------------------------------


    POTLOK:  cpu time      0.6052: real time      0.6057
    SETDIJ:  cpu time      0.0030: real time      0.0030
    TRIAL :  cpu time      0.3816: real time      0.3817
    CORREC:  cpu time      0.8869: real time      0.8875
    CHARGE:  cpu time      0.1702: real time      0.1703
    --------------------------------------------
      LOOP:  cpu time      2.0630: real time      2.0793

 eigenvalue-minimisations  :     0
 total energy-change (2. order) :-0.6507185E-02  (-0.1905466E-02)
 number of electron      30.0000000 magnetization 
 augmentation part       -0.0983541 magnetization 

 Free energy of the ion-electron system (eV)
  ---------------------------------------------------
  alpha Z        PSCENC =         0.26547520
  Ewald energy   TEWEN  =      2045.38593121
  -Hartree energ DENC   =     -2984.89638147
  -exchange      EXHF   =         0.00000000
  -V(xc)+E(xc)   XCENC  =        75.14216877
  PAW double counting   =     13872.66237264   -13847.65733349
  entropy T*S    EENTRO =        -0.00000000
  eigenvalues    EBANDS =      -393.02253039
  atomic energy  EATOM  =      1166.98518439
  ---------------------------------------------------
  free energy    TOTEN  =       -65.13511314 eV

  energy without entropy =      -65.13511314  energy(sigma->0) =      -65.13511314


--------------------------------------------------------------------------------------------------------




--------------------------------------- Iteration      1(  13)  ---------------------------------------


    POTLOK:  cpu time      0.6041: real time      0.6045
    SETDIJ:  cpu time      0.0059: real time      0.0059
    TRIAL :  cpu time      0.3813: real time      0.3813
    CORREC:  cpu time      0.8863: real time      0.8869
    CHARGE:  cpu time      0.1706: real time      0.1707
    --------------------------------------------
      LOOP:  cpu time      2.0628: real time      2.0805

 eigenvalue-minimisations  :     0
 total energy-change (2. order) :-0.1907129E-02  (-0.6555841E-03)
 number of electron      30.0000000 magnetization 
 augmentation part       -0.0982094 magnetization 

 Free energy of the ion-electron system (eV)
  ---------------------------------------------------
  alpha Z        PSCENC =         0.26547520
  Ewald energy   TEWEN  =      2045.38593121
  -Hartree energ DENC   =     -2984.70600519
  -exchange      EXHF   =         0.00000000
  -V(xc)+E(xc)   XCENC  =        75.13165228
  PAW double counting   =     13873.48101834   -13848.47769492
  entropy T*S    EENTRO =        -0.00000000
  eigenvalues    EBANDS =      -393.20258158
  atomic energy  EATOM  =      1166.98518439
  ---------------------------------------------------
  free energy    TOTEN  =       -65.13702027 eV

  energy without entropy =      -65.13702027  energy(sigma->0) =      -65.13702027


--------------------------------------------------------------------------------------------------------




--------------------------------------- Iteration      1(  14)  ---------------------------------------


    POTLOK:  cpu time      0.6155: real time      0.6160
    SETDIJ:  cpu time      0.0027: real time      0.0027
    TRIAL :  cpu time      0.3812: real time      0.3812
    CORREC:  cpu time      0.8809: real time      0.8814
    CHARGE:  cpu time      0.1701: real time      0.1702
    --------------------------------------------
      LOOP:  cpu time      2.0662: real time      2.0817

 eigenvalue-minimisations  :     0
 total energy-change (2. order) :-0.6563488E-03  (-0.2938999E-03)
 number of electron      30.0000000 magnetization 
 augmentation part       -0.0980993 magnetization 

 Free energy of the ion-electron system (eV)
  ---------------------------------------------------
  alpha Z        PSCENC =         0.26547520
  Ewald energy   TEWEN  =      2045.38593121
  -Hartree energ DENC   =     -2984.88436692
  -exchange      EXHF   =         0.00000000
  -V(xc)+E(xc)   XCENC  =        75.13675809
  PAW double counting   =     13894.45874762   -13869.45651325
  entropy T*S    EENTRO =        -0.00000000
  eigenvalues    EBANDS =      -393.02889296
  atomic energy  EATOM  =      1166.98518439
  ---------------------------------------------------
  free energy    TOTEN  =       -65.13767662 eV

  energy without entropy =      -65.13767662  energy(sigma->0) =      -65.13767662


--------------------------------------------------------------------------------------------------------




--------------------------------------- Iteration      1(  15)  ---------------------------------------


    POTLOK:  cpu time      0.5957: real time      0.5961
    SETDIJ:  cpu time      0.0024: real time      0.0024
    TRIAL :  cpu time      0.3800: real time      0.3800
    CORREC:  cpu time      0.8715: real time      0.8722
    CHARGE:  cpu time      0.1696: real time      0.1702
    --------------------------------------------
      LOOP:  cpu time      2.0499: real time      2.0518

 eigenvalue-minimisations  :     0
 total energy-change (2. order) :-0.2946309E-03  (-0.1440857E-03)
 number of electron      30.0000000 magnetization 
 augmentation part       -0.0980103 magnetization 

 Free energy of the ion-electron system (eV)
  ---------------------------------------------------
  alpha Z        PSCENC =         0.26547520
  Ewald energy   TEWEN  =      2045.38593121
  -Hartree energ DENC   =     -2985.02723653
  -exchange      EXHF   =         0.00000000
  -V(xc)+E(xc)   XCENC  =        75.14123790
  PAW double counting   =     13914.59414287   -13889.59220220
  entropy T*S    EENTRO =        -0.00000000
  eigenvalues    EBANDS =      -392.89050409
  atomic energy  EATOM  =      1166.98518439
  ---------------------------------------------------
  free energy    TOTEN  =       -65.13797125 eV

  energy without entropy =      -65.13797125  energy(sigma->0) =      -65.13797125


--------------------------------------------------------------------------------------------------------




--------------------------------------- Iteration      1(  16)  ---------------------------------------


    POTLOK:  cpu time      0.5914: real time      0.5916
    SETDIJ:  cpu time      0.0010: real time      0.0010
    TRIAL :  cpu time      0.3822: real time      0.3826
    CORREC:  cpu time      0.8773: real time      0.8775
    CHARGE:  cpu time      0.1700: real time      0.1704
    --------------------------------------------
      LOOP:  cpu time      2.0385: real time      2.0563

 eigenvalue-minimisations  :     0
 total energy-change (2. order) :-0.1448275E-03  (-0.5383203E-04)
 number of electron      30.0000000 magnetization 
 augmentation part       -0.0979533 magnetization 

 Free energy of the ion-electron system (eV)
  ---------------------------------------------------
  alpha Z        PSCENC =         0.26547520
  Ewald energy   TEWEN  =      2045.38593121
  -Hartree energ DENC   =     -2985.04403606
  -exchange      EXHF   =         0.00000000
  -V(xc)+E(xc)   XCENC  =        75.14163010
  PAW double counting   =     13924.02376817   -13899.02157232
  entropy T*S    EENTRO =        -0.00000000
  eigenvalues    EBANDS =      -392.87449677
  atomic energy  EATOM  =      1166.98518439
  ---------------------------------------------------
  free energy    TOTEN  =       -65.13811608 eV

  energy without entropy =      -65.13811608  energy(sigma->0) =      -65.13811608


--------------------------------------------------------------------------------------------------------




--------------------------------------- Iteration      1(  17)  ---------------------------------------


    POTLOK:  cpu time      0.5865: real time      0.5866
    SETDIJ:  cpu time      0.0028: real time      0.0028
    TRIAL :  cpu time      0.3825: real time      0.3830
    CORREC:  cpu time      0.8694: real time      0.8697
    CHARGE:  cpu time      0.1708: real time      0.1712
    --------------------------------------------
      LOOP:  cpu time      2.0259: real time      2.0437

 eigenvalue-minimisations  :     0
 total energy-change (2. order) :-0.5409705E-04  (-0.1744958E-04)
 number of electron      30.0000000 magnetization 
 augmentation part       -0.0979357 magnetization 

 Free energy of the ion-electron system (eV)
  ---------------------------------------------------
  alpha Z        PSCENC =         0.26547520
  Ewald energy   TEWEN  =      2045.38593121
  -Hartree energ DENC   =     -2985.11146497
  -exchange      EXHF   =         0.00000000
  -V(xc)+E(xc)   XCENC  =        75.14421318
  PAW double counting   =     13922.82835896   -13897.82613839
  entropy T*S    EENTRO =        -0.00000000
  eigenvalues    EBANDS =      -392.80972976
  atomic energy  EATOM  =      1166.98518439
  ---------------------------------------------------
  free energy    TOTEN  =       -65.13817018 eV

  energy without entropy =      -65.13817018  energy(sigma->0) =      -65.13817018


--------------------------------------------------------------------------------------------------------




--------------------------------------- Iteration      1(  18)  ---------------------------------------


    POTLOK:  cpu time      0.5874: real time      0.5875
    SETDIJ:  cpu time      0.0007: real time      0.0007
    TRIAL :  cpu time      0.3815: real time      0.3819
    CORREC:  cpu time      0.8692: real time      0.8695
    CHARGE:  cpu time      0.1701: real time      0.1706
    --------------------------------------------
      LOOP:  cpu time      2.0413: real time      2.0428

 eigenvalue-minimisations  :     0
 total energy-change (2. order) :-0.1756063E-04  (-0.6577067E-05)
 number of electron      30.0000000 magnetization 
 augmentation part       -0.0979324 magnetization 

 Free energy of the ion-electron system (eV)
  ---------------------------------------------------
  alpha Z        PSCENC =         0.26547520
  Ewald energy   TEWEN  =      2045.38593121
  -Hartree energ DENC   =     -2985.10439126
  -exchange      EXHF   =         0.00000000
  -V(xc)+E(xc)   XCENC  =        75.14418296
  PAW double counting   =     13920.14690140   -13895.14460169
  entropy T*S    EENTRO =        -0.00000000
  eigenvalues    EBANDS =      -392.81686994
  atomic energy  EATOM  =      1166.98518439
  ---------------------------------------------------
  free energy    TOTEN  =       -65.13818774 eV

  energy without entropy =      -65.13818774  energy(sigma->0) =      -65.13818774


--------------------------------------------------------------------------------------------------------




--------------------------------------- Iteration      1(  19)  ---------------------------------------


    POTLOK:  cpu time      0.5841: real time      0.6127
    SETDIJ:  cpu time      0.0021: real time      0.0021
    TRIAL :  cpu time      0.3817: real time      0.3822
    CORREC:  cpu time      0.8746: real time      0.8751
    CHARGE:  cpu time      0.1705: real time      0.1706
    --------------------------------------------
      LOOP:  cpu time      2.0243: real time      2.0906

 eigenvalue-minimisations  :     0
 total energy-change (2. order) :-0.6584893E-05  (-0.2796382E-05)
 number of electron      30.0000000 magnetization 
 augmentation part       -0.0979348 magnetization 

 Free energy of the ion-electron system (eV)
  ---------------------------------------------------
  alpha Z        PSCENC =         0.26547520
  Ewald energy   TEWEN  =      2045.38593121
  -Hartree energ DENC   =     -2985.09408748
  -exchange      EXHF   =         0.00000000
  -V(xc)+E(xc)   XCENC  =        75.14391189
  PAW double counting   =     13918.35441091   -13893.35208663
  entropy T*S    EENTRO =        -0.00000000
  eigenvalues    EBANDS =      -392.82693381
  atomic energy  EATOM  =      1166.98518439
  ---------------------------------------------------
  free energy    TOTEN  =       -65.13819432 eV

  energy without entropy =      -65.13819432  energy(sigma->0) =      -65.13819432


--------------------------------------------------------------------------------------------------------




--------------------------------------- Iteration      1(  20)  ---------------------------------------


    POTLOK:  cpu time      0.5853: real time      0.5855
    SETDIJ:  cpu time      0.0063: real time      0.0063
    TRIAL :  cpu time      0.3830: real time      0.3833
    CORREC:  cpu time      0.8682: real time      0.8687
    CHARGE:  cpu time      0.1697: real time      0.1698
    --------------------------------------------
      LOOP:  cpu time      2.0277: real time      2.0442

 eigenvalue-minimisations  :     0
 total energy-change (2. order) :-0.2736388E-05  (-0.1026636E-05)
 number of electron      30.0000000 magnetization 
 augmentation part       -0.0979399 magnetization 

 Free energy of the ion-electron system (eV)
  ---------------------------------------------------
  alpha Z        PSCENC =         0.26547520
  Ewald energy   TEWEN  =      2045.38593121
  -Hartree energ DENC   =     -2985.09185278
  -exchange      EXHF   =         0.00000000
  -V(xc)+E(xc)   XCENC  =        75.14385318
  PAW double counting   =     13917.39308970   -13892.39078955
  entropy T*S    EENTRO =        -0.00000000
  eigenvalues    EBANDS =      -392.82908841
  atomic energy  EATOM  =      1166.98518439
  ---------------------------------------------------
  free energy    TOTEN  =       -65.13819706 eV

  energy without entropy =      -65.13819706  energy(sigma->0) =      -65.13819706


--------------------------------------------------------------------------------------------------------




--------------------------------------- Iteration      1(  21)  ---------------------------------------


    POTLOK:  cpu time      0.5847: real time      0.5848
    SETDIJ:  cpu time      0.0022: real time      0.0022
    TRIAL :  cpu time      0.3802: real time      0.3810
    CORREC:  cpu time      0.8670: real time      0.8677
    CHARGE:  cpu time      0.1698: real time      0.1699
    --------------------------------------------
      LOOP:  cpu time      2.0343: real time      2.0361

 eigenvalue-minimisations  :     0
 total energy-change (2. order) :-0.9975465E-06  (-0.3989638E-06)
 number of electron      30.0000000 magnetization 
 augmentation part       -0.0979426 magnetization 

 Free energy of the ion-electron system (eV)
  ---------------------------------------------------
  alpha Z        PSCENC =         0.26547520
  Ewald energy   TEWEN  =      2045.38593121
  -Hartree energ DENC   =     -2985.07993589
  -exchange      EXHF   =         0.00000000
  -V(xc)+E(xc)   XCENC  =        75.14342165
  PAW double counting   =     13917.04833636   -13892.04603752
  entropy T*S    EENTRO =        -0.00000000
  eigenvalues    EBANDS =      -392.84057345
  atomic energy  EATOM  =      1166.98518439
  ---------------------------------------------------
  free energy    TOTEN  =       -65.13819806 eV

  energy without entropy =      -65.13819806  energy(sigma->0) =      -65.13819806


--------------------------------------------------------------------------------------------------------




--------------------------------------- Iteration      1(  22)  ---------------------------------------


    POTLOK:  cpu time      0.5844: real time      0.5845
    SETDIJ:  cpu time      0.0019: real time      0.0019
    TRIAL :  cpu time      0.3809: real time      0.3812
    CORREC:  cpu time      0.8663: real time      0.8668
    CHARGE:  cpu time      0.1697: real time      0.1699
    --------------------------------------------
      LOOP:  cpu time      2.0180: real time      2.0345

 eigenvalue-minimisations  :     0
 total energy-change (2. order) :-0.3575897E-06  (-0.1396381E-06)
 number of electron      30.0000000 magnetization 
 augmentation part       -0.0979464 magnetization 

 Free energy of the ion-electron system (eV)
  ---------------------------------------------------
  alpha Z        PSCENC =         0.26547520
  Ewald energy   TEWEN  =      2045.38593121
  -Hartree energ DENC   =     -2985.08345768
  -exchange      EXHF   =         0.00000000
  -V(xc)+E(xc)   XCENC  =        75.14350854
  PAW double counting   =     13916.92221245   -13891.91993967
  entropy T*S    EENTRO =        -0.00000000
  eigenvalues    EBANDS =      -392.83711285
  atomic energy  EATOM  =      1166.98518439
  ---------------------------------------------------
  free energy    TOTEN  =       -65.13819841 eV

  energy without entropy =      -65.13819841  energy(sigma->0) =      -65.13819841


--------------------------------------------------------------------------------------------------------




--------------------------------------- Iteration      1(  23)  ---------------------------------------


    POTLOK:  cpu time      0.5840: real time      0.5842
    SETDIJ:  cpu time      0.0027: real time      0.0027
    TRIAL :  cpu time      0.3808: real time      0.3812
    CORREC:  cpu time      0.8662: real time      0.8667
    CHARGE:  cpu time      0.1711: real time      0.1712
    --------------------------------------------
      LOOP:  cpu time      2.0195: real time      2.0353

 eigenvalue-minimisations  :     0
 total energy-change (2. order) :-0.1263961E-06  (-0.8992728E-07)
 number of electron      30.0000000 magnetization 
 augmentation part       -0.0979489 magnetization 

 Free energy of the ion-electron system (eV)
  ---------------------------------------------------
  alpha Z        PSCENC =         0.26547520
  Ewald energy   TEWEN  =      2045.38593121
  -Hartree energ DENC   =     -2985.07977828
  -exchange      EXHF   =         0.00000000
  -V(xc)+E(xc)   XCENC  =        75.14335687
  PAW double counting   =     13917.08936594   -13892.08708586
  entropy T*S    EENTRO =        -0.00000000
  eigenvalues    EBANDS =      -392.84064800
  atomic energy  EATOM  =      1166.98518439
  ---------------------------------------------------
  free energy    TOTEN  =       -65.13819854 eV

  energy without entropy =      -65.13819854  energy(sigma->0) =      -65.13819854


--------------------------------------------------------------------------------------------------------




--------------------------------------- Iteration      1(  24)  ---------------------------------------


    POTLOK:  cpu time      0.5839: real time      0.5844
    SETDIJ:  cpu time      0.0060: real time      0.0060
    TRIAL :  cpu time      0.3816: real time      0.3817
    CORREC:  cpu time      0.8685: real time      0.8689
    EDDIAG:  cpu time      0.1714: real time      0.1724
    CHARGE:  cpu time      0.1700: real time      0.1701
    --------------------------------------------
      LOOP:  cpu time      2.1965: real time      2.2135

 eigenvalue-minimisations  :     0
 total energy-change (2. order) :-0.4865433E-07  (-0.4675843E-07)
 number of electron      30.0000000 magnetization 
 augmentation part       -0.0979488 magnetization 

 Free energy of the ion-electron system (eV)
  ---------------------------------------------------
  alpha Z        PSCENC =         0.26547520
  Ewald energy   TEWEN  =      2045.38593121
  -Hartree energ DENC   =     -2985.08431097
  -exchange      EXHF   =         0.00000000
  -V(xc)+E(xc)   XCENC  =        75.14350783
  PAW double counting   =     13917.40912597   -13892.40684711
  entropy T*S    EENTRO =        -0.00000000
  eigenvalues    EBANDS =      -392.83626510
  atomic energy  EATOM  =      1166.98518439
  ---------------------------------------------------
  free energy    TOTEN  =       -65.13819859 eV

  energy without entropy =      -65.13819859  energy(sigma->0) =      -65.13819859


--------------------------------------------------------------------------------------------------------


  average scaling for gradient   0.9249


 average (electrostatic) potential at core
  the test charge radii are     0.5770  0.4325  0.5902
  (the norm of the test charge is              1.0000)
       1 -87.5091       2 -87.5093       3 -87.5095       4 -87.5093       5 -45.6133
       6 -45.6148       7 -45.6140       8 -45.6142       9-104.1176      10-104.1181



 E-fermi :  -5.6981     XC(G=0):  -0.1606     alpha+bet : -0.0672

 Fermi energy:        -5.6981102694

 k-point     1 :       0.0000    0.0000    0.0000
  band No.  band energies     occupation 
      1     -24.6630      2.00000
      2     -22.7585      2.00000
      3     -19.4010      2.00000
      4     -16.3934      2.00000
      5     -16.3348      2.00000
      6     -12.9741      2.00000
      7     -12.7639      2.00000
      8     -11.9951      2.00000
      9     -10.6914      2.00000
     10     -10.6200      2.00000
     11      -9.4505      2.00000
     12      -8.3275      2.00000
     13      -7.2762      2.00000
     14      -7.0024      2.00000
     15      -5.7678      2.00000
     16      -2.5253      0.00000
     17      -1.7571      0.00000
     18      -0.5139      0.00000
     19      -0.1557      0.00000
     20       0.1060      0.00000
     21       0.1391      0.00000
     22       0.1956      0.00000
     23       0.4874      0.00000
     24       0.5891      0.00000


--------------------------------------------------------------------------------------------------------


 soft charge-density along one line, spin component           1
         0         1         2         3         4         5         6         7         8         9
 total charge-density along one line

 pseudopotential strength for first ion, spin component:           1
 12.787  21.521   0.006  -0.002   0.004   0.011  -0.004   0.007
 21.521  36.218   0.010  -0.004   0.006   0.018  -0.007   0.012
  0.006   0.010  -3.126  -0.000  -0.000  -5.604  -0.001  -0.001
 -0.002  -0.004  -0.000  -3.126   0.000  -0.001  -5.606   0.000
  0.004   0.006  -0.000   0.000  -3.125  -0.001   0.000  -5.603
  0.011   0.018  -5.604  -0.001  -0.001 -10.026  -0.001  -0.002
 -0.004  -0.007  -0.001  -5.606   0.000  -0.001 -10.028   0.001
  0.007   0.012  -0.001   0.000  -5.603  -0.002   0.001 -10.024
 total augmentation occupancy for first ion, spin component:           1
  8.466  -3.050   1.071  -0.441  -0.111  -0.518   0.213   0.031
 -3.050   1.147  -0.571   0.235   0.015   0.264  -0.109  -0.001
  1.071  -0.571   7.015  -1.543   0.640  -2.412   0.624  -0.317
 -0.441   0.235  -1.543   3.907  -0.264   0.624  -1.156   0.131
 -0.111   0.015   0.640  -0.264   7.909  -0.317   0.131  -2.756
 -0.518   0.264  -2.412   0.624  -0.317   0.847  -0.246   0.149
  0.213  -0.109   0.624  -1.156   0.131  -0.246   0.352  -0.061
  0.031  -0.001  -0.317   0.131  -2.756   0.149  -0.061   0.978


------------------------ aborting loop because EDIFF is reached ----------------------------------------


    FORLOC:  cpu time      0.0364: real time      0.0364
    FORNL :  cpu time      0.0263: real time      0.0267
    FORCOR:  cpu time      0.5237: real time      0.5239
    OFIELD:  cpu time      0.0064: real time      0.0066

 ---------------------------------------------------------------------------------------------

         DFTD3 V3.0 Rev 1        
 IVDW         = 11
 DF revpbe    
 parameters
 VDW_S6       =    1.0000
 VDW_S8       =    1.0100
 VDW_SR       =    0.9230
 rs18     =    1.0000
 alpha6   =   14.0000
 alpha8   =   16.0000
 k1-k3    =   16.0000    1.3333   -4.0000
 VDW_RADIUS   =   50.2022 A
 VDW_CNRADIUS =   21.1671 A
 Edisp (eV)   -0.18595

 E6    (eV) :    -0.1355
 E8    (eV) :    -0.0505
 % E8        : 27.16
    FORVDW:  cpu time      0.0744: real time      0.0792

 VOLUME and BASIS-vectors are now :
 -----------------------------------------------------------------------------
  energy-cutoff  :     1000.00
  volume of cell :    10648.00
      direct lattice vectors                 reciprocal lattice vectors
    22.000000000  0.000000000  0.000000000     0.045454545  0.000000000  0.000000000
     0.000000000 22.000000000  0.000000000     0.000000000  0.045454545  0.000000000
     0.000000000  0.000000000 22.000000000     0.000000000  0.000000000  0.045454545

  length of vectors
    22.000000000 22.000000000 22.000000000     0.045454545  0.045454545  0.045454545


 FORCES acting on ions:
    Electron-Ion                     Ewald-Force                    Non-Local-Force
 -----------------------------------------------------------------------------------------------
   -.836E+02 0.176E+03 -.725E+02   0.813E+02 -.179E+03 0.739E+02   0.248E+01 0.315E+01 -.130E+01
   0.836E+02 0.176E+03 -.725E+02   -.813E+02 -.179E+03 0.739E+02   -.247E+01 0.316E+01 -.130E+01
   0.836E+02 -.176E+03 0.726E+02   -.813E+02 0.179E+03 -.739E+02   -.248E+01 -.316E+01 0.130E+01
   -.836E+02 -.176E+03 0.726E+02   0.813E+02 0.179E+03 -.739E+02   0.248E+01 -.316E+01 0.130E+01
   -.420E+02 0.667E+02 -.275E+02   0.452E+02 -.715E+02 0.295E+02   -.304E+01 0.463E+01 -.191E+01
   0.420E+02 0.667E+02 -.275E+02   -.451E+02 -.715E+02 0.295E+02   0.304E+01 0.463E+01 -.191E+01
   0.420E+02 -.667E+02 0.275E+02   -.451E+02 0.715E+02 -.295E+02   0.304E+01 -.463E+01 0.191E+01
   -.420E+02 -.667E+02 0.275E+02   0.452E+02 0.715E+02 -.295E+02   -.304E+01 -.463E+01 0.191E+01
   -.279E+03 -.228E-01 -.393E-01   0.316E+03 0.238E-01 0.442E-01   -.375E+02 0.176E-02 -.693E-02
   0.279E+03 -.283E-01 -.339E-01   -.316E+03 0.320E-01 0.384E-01   0.375E+02 -.246E-02 -.594E-02
 -----------------------------------------------------------------------------------------------
   -.372E-02 0.110E-02 0.570E-02   -.568E-13 0.457E-13 -.822E-14   0.368E-02 -.112E-02 -.568E-02


 POSITION                                       TOTAL-FORCE (eV/Angst)
 -----------------------------------------------------------------------------------
     11.69754      9.95150     11.43245         0.127545     -0.127752      0.052947
     10.30241      9.95149     11.43252        -0.121734     -0.124942      0.050984
     10.30246     12.04847     10.56756        -0.122079      0.127001     -0.050866
     11.69764     12.04854     10.56762         0.123599      0.122912     -0.050583
     12.25710      9.08625     11.78912         0.069099     -0.102211      0.042508
      9.74342      9.08610     11.78931        -0.074289     -0.104049      0.043320
      9.74342     12.91390     10.21069        -0.072984      0.101841     -0.042399
     12.25708     12.91372     10.21078         0.070770      0.103299     -0.042540
     12.40807     11.00001     11.00021         0.382579      0.002626     -0.001990
      9.59193     11.00003     11.00019        -0.382505      0.001275     -0.001380
 -----------------------------------------------------------------------------------
    total drift:                               -0.000035     -0.000023      0.000028


--------------------------------------------------------------------------------------------------------



  FREE ENERGIE OF THE ION-ELECTRON SYSTEM (eV)
  ---------------------------------------------------
  free  energy   TOTEN  =       -65.32415314 eV

  energy  without entropy=      -65.32415314  energy(sigma->0) =      -65.32415314



--------------------------------------------------------------------------------------------------------


    POTLOK:  cpu time      0.5951: real time      0.5953


--------------------------------------------------------------------------------------------------------


 stress matrix after NEB project (eV)
      0.21938      0.00001     -0.00000
      0.00001      0.10949     -0.04518
     -0.00000     -0.04518      0.01858
  FORCES: max atom, RMS     0.382593    0.223139
  FORCE total and by dimension    0.705627    0.382579
  Stress total and by dimension    0.254050    0.219378
     LOOP+:  cpu time     45.1385: real time     45.4936
    4ORBIT:  cpu time      0.0000: real time      0.0000

 total amount of memory used by VASP MPI-rank0   108847. kBytes
=======================================================================

   base      :      30000. kBytes
   nonl-proj :       4201. kBytes
   fftplans  :      24880. kBytes
   grid      :      48046. kBytes
   one-center:          1. kBytes
   wavefun   :       1719. kBytes

  
  
 General timing and accounting informations for this job:
 ========================================================
  
                  Total CPU time used (sec):       73.344
                            User time (sec):       69.811
                          System time (sec):        3.534
                         Elapsed time (sec):       81.947
  
                   Maximum memory used (kb):      295504.
                   Average memory used (kb):          N/A
  
                          Minor page faults:       204336
                          Major page faults:          634
                 Voluntary context switches:         7107
