 vasp.6.4.1 05Apr23 (build Jun  6 2023 14:36:51) complex                         
 executed on        HPECrayEX_GCC date 2024.08.20  14:12:08
 running  256 mpi-ranks, with    1 threads/rank, on    2 nodes
 distrk:  each k-point on  256 cores,    1 groups
 distr:  one band on NCORE=   2 cores,  128 groups


--------------------------------------------------------------------------------------------------------


 INCAR:
   ALGO = Conjugate
   NCORE = 2
   PREC = Accurate
   EDIFF = 1E-7
   ENCUT = 1000
   ISMEAR = 0
   SIGMA = 0.01
   ISIF = 0
   SYMPREC = 1E-7
   GGA = RP
   IVDW = 11
   LWAVE = .FALSE.
   LCHARGE = .FALSE.
   LWAVE = .FALSE.
   LCHARGE = .FALSE.

 POTCAR:    PAW_PBE C_h 06Feb2004                 
 POTCAR:    PAW_PBE H_h 06Feb2004                 
 POTCAR:    PAW_PBE C_h 06Feb2004                 
   VRHFIN =C: s2p2                                                                                  
   LEXCH  = PE                                                                                      
   EATOM  =   147.1560 eV,   10.8157 Ry                                                             
                                                                                                    
   TITEL  = PAW_PBE C_h 06Feb2004                                                                   
   LULTRA =        F    use ultrasoft PP ?                                                          
   IUNSCR =        1    unscreen: 0-lin 1-nonlin 2-no                                               
   RPACOR =    0.800    partial core radius                                                         
   POMASS =   12.011; ZVAL   =    4.000    mass and valenz                                          
   RCORE  =    1.100    outmost cutoff radius                                                       
   RWIGS  =    1.630; RWIGS  =    0.863    wigner-seitz radius (au A)                               
   ENMAX  =  700.000; ENMIN  =  500.000 eV                                                          
   ICORE  =        2    local potential                                                             
   LCOR   =        T    correct aug charges                                                         
   LPAW   =        T    paw PP                                                                      
   EAUG   =  946.768                                                                                
   DEXC   =    0.000                                                                                
   RMAX   =    1.128    core radius for proj-oper                                                   
   RAUG   =    1.300    factor for augmentation sphere                                              
   RDEP   =    1.162    radius for radial grids                                                     
   RDEPT  =    1.088    core radius for aug-charge                                                  
                                                                                                    
   Atomic configuration                                                                             
    4 entries                                                                                       
     n  l   j            E        occ.                                                              
     1  0  0.50      -273.3789   2.0000                                                             
     2  0  0.50       -13.7508   2.0000                                                             
     2  1  0.50        -5.2854   2.0000                                                             
     3  2  1.50        -5.4423   0.0000                                                             
   Description                                                                                      
     l       E           TYP  RCUT    TYP  RCUT                                                     
     0    -13.7508458     23  1.100                                                                 
     0     -8.2022199     23  1.100                                                                 
     1     -5.2854383     23  1.100                                                                 
     1      1.1560700     23  1.100                                                                 
     2     -5.4423304      7  1.100                                                                 
  local pseudopotential read in
  partial core-charges read in
  partial kinetic energy density read in
  atomic valenz-charges read in
  non local Contribution for L=           0  read in
    real space projection operators read in
  non local Contribution for L=           0  read in
    real space projection operators read in
  non local Contribution for L=           1  read in
    real space projection operators read in
  non local Contribution for L=           1  read in
    real space projection operators read in
    PAW grid and wavefunctions read in

   number of l-projection  operators is LMAX  =           4
   number of lm-projection operators is LMMAX =           8

 POTCAR:    PAW_PBE H_h 06Feb2004                 
   VRHFIN =H: ultrasoft test                                                                        
   LEXCH  = PE                                                                                      
   EATOM  =    12.4884 eV,    0.9179 Ry                                                             
                                                                                                    
   TITEL  = PAW_PBE H_h 06Feb2004                                                                   
   LULTRA =        F    use ultrasoft PP ?                                                          
   IUNSCR =        0    unscreen: 0-lin 1-nonlin 2-no                                               
   RPACOR =    0.000    partial core radius                                                         
   POMASS =    1.000; ZVAL   =    1.000    mass and valenz                                          
   RCORE  =    0.800    outmost cutoff radius                                                       
   RWIGS  =    0.700; RWIGS  =    0.370    wigner-seitz radius (au A)                               
   ENMAX  =  700.000; ENMIN  =  350.000 eV                                                          
   RCLOC  =    0.701    cutoff for local pot                                                        
   LCOR   =        T    correct aug charges                                                         
   LPAW   =        T    paw PP                                                                      
   EAUG   = 1000.000                                                                                
   RMAX   =    0.819    core radius for proj-oper                                                   
   RAUG   =    1.000    factor for augmentation sphere                                              
   RDEP   =    0.817    radius for radial grids                                                     
   RDEPT  =    0.817    core radius for aug-charge                                                  
                                                                                                    
   Atomic configuration                                                                             
    2 entries                                                                                       
     n  l   j            E        occ.                                                              
     1  0  0.50        -6.4927   1.0000                                                             
     2  1  0.50        -3.4015   0.0000                                                             
   Description                                                                                      
     l       E           TYP  RCUT    TYP  RCUT                                                     
     0     -6.4927493     23  0.800                                                                 
     0      6.8029130     23  0.800                                                                 
     1     -6.8029130     23  0.800                                                                 
  local pseudopotential read in
  atomic valenz-charges read in
  non local Contribution for L=           0  read in
    real space projection operators read in
  non local Contribution for L=           0  read in
    real space projection operators read in
  non local Contribution for L=           1  read in
    real space projection operators read in
    PAW grid and wavefunctions read in

   number of l-projection  operators is LMAX  =           3
   number of lm-projection operators is LMMAX =           5

 -----------------------------------------------------------------------------
|                                                                             |
|               ----> ADVICE to this user running VASP <----                  |
|                                                                             |
|     You have a (more or less) 'large supercell' and for larger cells it     |
|     might be more efficient to use real-space projection operators.         |
|     Therefore, try LREAL= Auto in the INCAR file.                           |
|     Mind: For very accurate calculation, you might also keep the            |
|     reciprocal projection scheme (i.e. LREAL=.FALSE.).                      |
|                                                                             |
 -----------------------------------------------------------------------------

 -----------------------------------------------------------------------------
|                                                                             |
|               ----> ADVICE to this user running VASP <----                  |
|                                                                             |
|     You enforced a specific xc type in the INCAR file but a different       |
|     type was found in the POTCAR file.                                      |
|     I HOPE YOU KNOW WHAT YOU ARE DOING!                                     |
|                                                                             |
 -----------------------------------------------------------------------------

  PAW_PBE C_h 06Feb2004                 :
 energy of atom  1       EATOM= -147.1560
 kinetic energy error for atom=    0.0031 (will be added to EATOM!!)
  PAW_PBE H_h 06Feb2004                 :
 energy of atom  2       EATOM=  -12.4884
 kinetic energy error for atom=    0.0006 (will be added to EATOM!!)


 POSCAR:  C  H
  positions in cartesian coordinates
  No initial velocities read in
 exchange correlation table for  LEXCH =        9
   RHO(1)=    0.500       N(1)  =     2000
   RHO(2)=  100.500       N(2)  =     4000

 VTST: version 4.1, (05/19/21)

 CHAIN: initializing optimizer
 
 OPT: Using VASP Dynamics algorithm
 CHAIN: Read ICHAIN            0

 POSCAR:  C  H
  positions in cartesian coordinates
  No initial velocities read in



--------------------------------------------------------------------------------------------------------


 ion  position               nearest neighbor table
   1  0.940  0.141  0.994-  25 1.09   3 1.40   2 1.40
   2  0.862  0.045  0.126-  26 1.09   4 1.40   1 1.40
   3  0.077  0.095  0.868-  27 1.09   1 1.40   5 1.40
   4  0.923  0.905  0.132-  28 1.09   6 1.40   2 1.40
   5  0.138  0.955  0.874-  29 1.09   3 1.40   6 1.40
   6  0.060  0.859  0.006-  30 1.09   4 1.40   5 1.40
   7  0.560  0.641  0.994-  31 1.09  19 1.40  13 1.40
   8  0.940  0.359  0.494-  32 1.09  20 1.40  14 1.40
   9  0.560  0.859  0.494-  33 1.09  21 1.40  15 1.40
  10  0.440  0.359  0.006-  34 1.09  22 1.40  16 1.40
  11  0.060  0.641  0.506-  35 1.09  23 1.40  17 1.40
  12  0.440  0.141  0.506-  36 1.09  24 1.40  18 1.40
  13  0.638  0.545  0.126-  37 1.09  22 1.40   7 1.40
  14  0.862  0.455  0.626-  38 1.09  23 1.40   8 1.40
  15  0.638  0.955  0.626-  39 1.09  24 1.40   9 1.40
  16  0.362  0.455  0.874-  40 1.09  19 1.40  10 1.40
  17  0.138  0.545  0.374-  41 1.09  20 1.40  11 1.40
  18  0.362  0.045  0.374-  42 1.09  21 1.40  12 1.40
  19  0.423  0.595  0.868-  43 1.09   7 1.40  16 1.40
  20  0.077  0.405  0.368-  44 1.09   8 1.40  17 1.40
  21  0.423  0.905  0.368-  45 1.09   9 1.40  18 1.40
  22  0.577  0.405  0.132-  46 1.09  10 1.40  13 1.40
  23  0.923  0.595  0.632-  47 1.09  11 1.40  14 1.40
  24  0.577  0.095  0.632-  48 1.09  12 1.40  15 1.40
  25  0.894  0.250  0.988-   1 1.09
  26  0.754  0.079  0.224-   2 1.09
  27  0.137  0.169  0.763-   3 1.09
  28  0.863  0.831  0.237-   4 1.09
  29  0.246  0.921  0.776-   5 1.09
  30  0.106  0.750  0.012-   6 1.09
  31  0.606  0.750  0.988-   7 1.09
  32  0.894  0.250  0.488-   8 1.09
  33  0.606  0.750  0.488-   9 1.09
  34  0.394  0.250  0.012-  10 1.09
  35  0.106  0.750  0.512-  11 1.09
  36  0.394  0.250  0.512-  12 1.09
  37  0.746  0.579  0.224-  13 1.09
  38  0.754  0.421  0.724-  14 1.09
  39  0.746  0.921  0.724-  15 1.09
  40  0.254  0.421  0.776-  16 1.09
  41  0.246  0.579  0.276-  17 1.09
  42  0.254  0.079  0.276-  18 1.09
  43  0.363  0.669  0.763-  19 1.09
  44  0.137  0.331  0.263-  20 1.09
  45  0.363  0.831  0.263-  21 1.09
  46  0.637  0.331  0.237-  22 1.09
  47  0.863  0.669  0.737-  23 1.09
  48  0.637  0.169  0.737-  24 1.09

  LATTYP: Found a simple orthorhombic cell.
 ALAT       =     6.8100000000
 B/A-ratio  =     1.0851688693
 C/A-ratio  =     1.3832599119
  
  Lattice vectors:
  
 A1 = (   0.0000000000,   0.0000000000,   6.8100000000)
 A2 = (   7.3900000000,   0.0000000000,   0.0000000000)
 A3 = (   0.0000000000,   9.4200000000,   0.0000000000)


Analysis of symmetry for initial positions (statically):
=====================================================================
 Subroutine PRICEL returns:
 Original cell was already a primitive cell.
 

 Routine SETGRP: Setting up the symmetry group for a 
 simple orthorhombic supercell.


 Subroutine GETGRP returns: Found  8 space group operations
 (whereof  2 operations were pure point group operations)
 out of a pool of  8 trial point group operations.


The static configuration has the point symmetry S_2 .
 The point group associated with its full space group is D_2h.


Analysis of symmetry for dynamics (positions and initial velocities):
=====================================================================
 Subroutine PRICEL returns:
 Original cell was already a primitive cell.
 

 Routine SETGRP: Setting up the symmetry group for a 
 simple orthorhombic supercell.


 Subroutine GETGRP returns: Found  8 space group operations
 (whereof  2 operations were pure point group operations)
 out of a pool of  8 trial point group operations.


The dynamic configuration has the point symmetry S_2 .
 The point group associated with its full space group is D_2h.


 Subroutine INISYM returns: Found  8 space group operations
 (whereof  2 operations are pure point group operations),
 and found     1 'primitive' translations


----------------------------------------------------------------------------------------

                                     Primitive cell                                     

  volume of cell :     474.0700

  direct lattice vectors                    reciprocal lattice vectors
     7.390000000  0.000000000  0.000000000     0.135317997  0.000000000  0.000000000
     0.000000000  9.420000000  0.000000000     0.000000000  0.106157113  0.000000000
     0.000000000  0.000000000  6.810000000     0.000000000  0.000000000  0.146842878

  length of vectors
     7.390000000  9.420000000  6.810000000     0.135317997  0.106157113  0.146842878

  position of ions in fractional coordinates (direct lattice)
     0.939965748  0.140638731  0.993606209
     0.862030042  0.045245888  0.126129911
     0.077486319  0.095246789  0.867533964
     0.922513685  0.904753210  0.132466047
     0.137969958  0.954754112  0.873870093
     0.060034259  0.859361269  0.006393801
     0.560034252  0.640638712  0.993606208
     0.939965742  0.359361274  0.493606194
     0.560034239  0.859361268  0.493606227
     0.439965754  0.359361285  0.006393791
     0.060034252  0.640638726  0.506393804
     0.439965756  0.140638729  0.506393782
     0.637969954  0.545245885  0.126129906
     0.862030046  0.454754108  0.626129912
     0.637969968  0.954754108  0.626129917
     0.362030046  0.454754112  0.873870099
     0.137969954  0.545245892  0.373870092
     0.362030033  0.045245889  0.373870086
     0.422513687  0.595246769  0.867533975
     0.077486310  0.404753218  0.367533955
     0.422513672  0.904753212  0.367533983
     0.577486317  0.404753229  0.132466023
     0.922513687  0.595246781  0.632466042
     0.577486325  0.095246786  0.632466028
     0.893622965  0.250489199  0.988332432
     0.753677989  0.079290863  0.224073273
     0.137258568  0.169150403  0.763033654
     0.862741433  0.830849596  0.236966350
     0.246322011  0.920709136  0.775926731
     0.106377036  0.749510799  0.011667572
     0.606377034  0.750489211  0.988332430
     0.893622961  0.249510795  0.488332423
     0.606377041  0.749510789  0.488332433
     0.393622966  0.249510788  0.011667574
     0.106377039  0.750489203  0.511667581
     0.393622959  0.250489210  0.511667571
     0.746321999  0.579290863  0.224073263
     0.753677995  0.420709131  0.724073263
     0.746322000  0.920709137  0.724073257
     0.253678001  0.420709135  0.775926741
     0.246322006  0.579290868  0.275926741
     0.253678001  0.079290861  0.275926747
     0.362741433  0.669150397  0.763033648
     0.137258570  0.330849605  0.263033644
     0.362741424  0.830849591  0.263033641
     0.637258567  0.330849600  0.236966356
     0.862741431  0.669150394  0.736966360
     0.637258576  0.169150407  0.736966362

  ion indices of the primitive-cell ions
   primitive index   ion index
                 1           1
                 2           2
                 3           3
                 4           4
                 5           5
                 6           6
                 7           7
                 8           8
                 9           9
                10          10
                11          11
                12          12
                13          13
                14          14
                15          15
                16          16
                17          17
                18          18
                19          19
                20          20
                21          21
                22          22
                23          23
                24          24
                25          25
                26          26
                27          27
                28          28
                29          29
                30          30
                31          31
                32          32
                33          33
                34          34
                35          35
                36          36
                37          37
                38          38
                39          39
                40          40
                41          41
                42          42
                43          43
                44          44
                45          45
                46          46
                47          47
                48          48

----------------------------------------------------------------------------------------



 KPOINTS: auto                                    

Automatic generation of k-mesh.
 Grid dimensions read from file:
 generate k-points for:    4    3    4

 Generating k-lattice:

  Cartesian coordinates                     Fractional coordinates (reciprocal lattice)
     0.033829499  0.000000000  0.000000000     0.250000000  0.000000000  0.000000000
     0.000000000  0.035385704  0.000000000     0.000000000  0.333333333  0.000000000
     0.000000000  0.000000000  0.036710720     0.000000000  0.000000000  0.250000000

  Length of vectors
     0.033829499  0.035385704  0.036710720

  Shift w.r.t. Gamma in fractional coordinates (k-lattice)
     0.000000000  0.000000000  0.000000000

 
 Subroutine IBZKPT returns following result:
 ===========================================
 
 Found     18 irreducible k-points:
 
 Following reciprocal coordinates:
            Coordinates               Weight
  0.000000  0.000000  0.000000      1.000000
  0.250000  0.000000  0.000000      2.000000
  0.500000  0.000000  0.000000      1.000000
  0.000000  0.333333  0.000000      2.000000
  0.250000  0.333333  0.000000      4.000000
  0.500000  0.333333  0.000000      2.000000
  0.000000  0.000000  0.250000      2.000000
  0.250000  0.000000  0.250000      4.000000
  0.500000  0.000000  0.250000      2.000000
  0.000000  0.333333  0.250000      4.000000
  0.250000  0.333333  0.250000      8.000000
  0.500000  0.333333  0.250000      4.000000
  0.000000  0.000000  0.500000      1.000000
  0.250000  0.000000  0.500000      2.000000
  0.500000  0.000000  0.500000      1.000000
  0.000000  0.333333  0.500000      2.000000
  0.250000  0.333333  0.500000      4.000000
  0.500000  0.333333  0.500000      2.000000
 
 Following cartesian coordinates:
            Coordinates               Weight
  0.000000  0.000000  0.000000      1.000000
  0.033829  0.000000  0.000000      2.000000
  0.067659  0.000000  0.000000      1.000000
  0.000000  0.035386  0.000000      2.000000
  0.033829  0.035386  0.000000      4.000000
  0.067659  0.035386  0.000000      2.000000
  0.000000  0.000000  0.036711      2.000000
  0.033829  0.000000  0.036711      4.000000
  0.067659  0.000000  0.036711      2.000000
  0.000000  0.035386  0.036711      4.000000
  0.033829  0.035386  0.036711      8.000000
  0.067659  0.035386  0.036711      4.000000
  0.000000  0.000000  0.073421      1.000000
  0.033829  0.000000  0.073421      2.000000
  0.067659  0.000000  0.073421      1.000000
  0.000000  0.035386  0.073421      2.000000
  0.033829  0.035386  0.073421      4.000000
  0.067659  0.035386  0.073421      2.000000
 


--------------------------------------------------------------------------------------------------------




 Dimension of arrays:
   k-points           NKPTS =     18   k-points in BZ     NKDIM =     18   number of bands    NBANDS=    128
   number of dos      NEDOS =    301   number of ions     NIONS =     48
   non local maximal  LDIM  =      4   non local SUM 2l+1 LMDIM =      8
   total plane-waves  NPLWV = 548800
   max r-space proj   IRMAX =      1   max aug-charges    IRDMAX=   7878
   dimension x,y,z NGX =    80 NGY =   98 NGZ =   70
   dimension x,y,z NGXF=   160 NGYF=  196 NGZF=  140
   support grid    NGXF=   160 NGYF=  196 NGZF=  140
   ions per type =              24  24
   NGX,Y,Z   is equivalent  to a cutoff of  18.00, 17.30, 17.09 a.u.
   NGXF,Y,Z  is equivalent  to a cutoff of  35.99, 34.59, 34.18 a.u.

 SYSTEM =  unknown system                          
 POSCAR =   C  H                                   

 Startparameter for this run:
   NWRITE =      2    write-flag & timer
   PREC   = accura    normal or accurate (medium, high low for compatibility)
   ISTART =      0    job   : 0-new  1-cont  2-samecut
   ICHARG =      2    charge: 1-file 2-atom 10-const
   ISPIN  =      1    spin polarized calculation?
   LNONCOLLINEAR =      F non collinear calculations
   LSORBIT =      F    spin-orbit coupling
   INIWAV =      1    electr: 0-lowe 1-rand  2-diag
   LASPH  =      F    aspherical Exc in radial PAW
 Electronic Relaxation 1
   ENCUT  = 1000.0 eV  73.50 Ry    8.57 a.u.  19.05 24.29 17.56*2*pi/ulx,y,z
   ENINI  = 1000.0     initial cutoff
   ENAUG  = 1000.0 eV  augmentation charge cutoff
   NELM   =     60;   NELMIN=  2; NELMDL= -5     # of ELM steps 
   EDIFF  = 0.1E-06   stopping-criterion for ELM
   LREAL  =      F    real-space projection
   NLSPLINE    = F    spline interpolate recip. space projectors
   LCOMPAT=      F    compatible to vasp.4.4
   GGA_COMPAT  = T    GGA compatible to vasp.4.4-vasp.4.6
   LMAXPAW     = -100 max onsite density
   LMAXMIX     =    2 max onsite mixed and CHGCAR
   VOSKOWN=      0    Vosko Wilk Nusair interpolation
   ROPT   =    0.00000   0.00000
 Ionic relaxation
   EDIFFG = 0.1E-05   stopping-criterion for IOM
   NSW    =      0    number of steps for IOM
   NBLOCK =      1;   KBLOCK =      1    inner block; outer block 
   IBRION =     -1    ionic relax: 0-MD 1-quasi-New 2-CG
   NFREE  =      0    steps in history (QN), initial steepest desc. (CG)
   ISIF   =      0    stress and relaxation
   IWAVPR =     10    prediction:  0-non 1-charg 2-wave 3-comb
   ISYM   =      2    0-nonsym 1-usesym 2-fastsym
   LCORR  =      T    Harris-Foulkes like correction to forces

   POTIM  = 0.5000    time-step for ionic-motion
   TEIN   =    0.0    initial temperature
   TEBEG  =    0.0;   TEEND  =   0.0 temperature during run
   SMASS  =  -3.00    Nose mass-parameter (am)
   estimated Nose-frequenzy (Omega)   =  0.10E-29 period in steps = 0.13E+47 mass=  -0.125E-26a.u.
   SCALEE = 1.0000    scale energy and forces
   NPACO  =    256;   APACO  = 10.0  distance and # of slots for P.C.
   PSTRESS=    0.0 pullay stress

  Mass of Ions in am
   POMASS =  12.01  1.00
  Ionic Valenz
   ZVAL   =   4.00  1.00
  Atomic Wigner-Seitz radii
   RWIGS  =  -1.00 -1.00
  virtual crystal weights 
   VCA    =   1.00  1.00
   NELECT =     120.0000    total number of electrons
   NUPDOWN=      -1.0000    fix difference up-down

 DOS related values:
   EMIN   =  10.00;   EMAX   =-10.00  energy-range for DOS
   EFERMI =   0.00;   METHOD = LEGACY      
   ISMEAR =     0;   SIGMA  =   0.01  broadening in eV -4-tet -1-fermi 0-gaus

 Electronic relaxation 2 (details)
   IALGO  =     58    algorithm
   LDIAG  =      T    sub-space diagonalisation (order eigenvalues)
   LSUBROT=      F    optimize rotation matrix (better conditioning)
   TURBO    =      0    0=normal 1=particle mesh
   IRESTART =      0    0=no restart 2=restart with 2 vectors
   NREBOOT  =      0    no. of reboots
   NMIN     =      0    reboot dimension
   EREF     =   0.00    reference energy to select bands
   IMIX   =      4    mixing-type and parameters
     AMIX     =   0.40;   BMIX     =  1.00
     AMIX_MAG =   1.60;   BMIX_MAG =  1.00
     AMIN     =   0.10
     WC   =   100.;   INIMIX=   1;  MIXPRE=   1;  MAXMIX= -45

 Intra band minimization:
   WEIMIN = 0.0000     energy-eigenvalue tresh-hold
   EBREAK =  0.20E-09  absolut break condition
   DEPER  =   0.30     relativ break condition  

   TIME   =   0.40     timestep for ELM

  volume/ion in A,a.u.               =       9.88        66.65
  Fermi-wavevector in a.u.,A,eV,Ry     =   1.035590  1.956981 14.591517  1.072446
  Thomas-Fermi vector in A             =   2.169940

 Write flags
   LWAVE        =      F    write WAVECAR
   LDOWNSAMPLE  =      F    k-point downsampling of WAVECAR
   LCHARG       =      T    write CHGCAR
   LVTOT        =      F    write LOCPOT, total local potential
   LVHAR        =      F    write LOCPOT, Hartree potential only
   LELF         =      F    write electronic localiz. function (ELF)
   LORBIT       =      0    0 simple, 1 ext, 2 COOP (PROOUT), +10 PAW based schemes


 Dipole corrections
   LMONO  =      F    monopole corrections only (constant potential shift)
   LDIPOL =      F    correct potential (dipole corrections)
   IDIPOL =      0    1-x, 2-y, 3-z, 4-all directions 
   EPSILON=  1.0000000 bulk dielectric constant

 Exchange correlation treatment:
   GGA     =    RP    GGA type
   LEXCH   =     9    internal setting for exchange type
   LIBXC   =     F    Libxc                    
   VOSKOWN =     0    Vosko Wilk Nusair interpolation
   LHFCALC =     F    Hartree Fock is set to
   LHFONE  =     F    Hartree Fock one center treatment
   AEXX    =    0.0000 exact exchange contribution

 Linear response parameters
   LEPSILON=     F    determine dielectric tensor
   LRPA    =     F    only Hartree local field effects (RPA)
   LNABLA  =     F    use nabla operator in PAW spheres
   LVEL    =     F    velocity operator in full k-point grid
   CSHIFT  =0.1000    complex shift for real part using Kramers Kronig
   OMEGAMAX=  -1.0    maximum frequency
   DEG_THRESHOLD= 0.2000000E-02 threshold for treating states as degnerate
   RTIME   =   -0.100 relaxation time in fs
  (WPLASMAI=    0.000 imaginary part of plasma frequency in eV, 0.658/RTIME)
   DFIELD  = 0.0000000 0.0000000 0.0000000 field for delta impulse in time

  Optional k-point grid parameters
   LKPOINTS_OPT  =     F    use optional k-point grid
   KPOINTS_OPT_MODE=     1    mode for optional k-point grid

 Orbital magnetization related:
   ORBITALMAG=     F  switch on orbital magnetization
   LCHIMAG   =     F  perturbation theory with respect to B field
   DQ        =  0.001000  dq finite difference perturbation B field
   LLRAUG    =     F  two centre corrections for induced B field
   LBONE     =     F  B-component reconstruction in AE one-centre
   LVGVCALC  =     T  calculate vGv susceptibility
   LVGVAPPL  =     F  apply vGv susceptibility instead of pGv for G=0

 Random number generation:
   RANDOM_GENERATOR = DEFAULT
   PCG_SEED         = not used


--------------------------------------------------------------------------------------------------------


 Static calculation
 charge density and potential will be updated during run
 non-spin polarized calculation
 Conjugate gradient for all bands (Freysoldt, et al. PRB 79, 241103 (2009))
 preconditioned conjugated gradient                                        
 perform sub-space diagonalisation
    before iterative eigenvector-optimisation
 modified Broyden-mixing scheme, WC =      100.0
 initial mixing is a Kerker type mixing with AMIX =  0.4000 and BMIX =      1.0000
 Hartree-type preconditioning will be used
 using additional bands           68
 reciprocal scheme for non local part
 use partial core corrections
 no Harris-corrections to forces 
 use gradient corrections 
 use of overlap-Matrix (Vanderbilt PP)
 Gauss-broadening in eV      SIGMA  =   0.01


--------------------------------------------------------------------------------------------------------


  energy-cutoff  :     1000.00
  volume of cell :      474.07
      direct lattice vectors                 reciprocal lattice vectors
     7.390000000  0.000000000  0.000000000     0.135317997  0.000000000  0.000000000
     0.000000000  9.420000000  0.000000000     0.000000000  0.106157113  0.000000000
     0.000000000  0.000000000  6.810000000     0.000000000  0.000000000  0.146842878

  length of vectors
     7.390000000  9.420000000  6.810000000     0.135317997  0.106157113  0.146842878



 k-points in units of 2pi/SCALE and weight: auto                                    
   0.00000000  0.00000000  0.00000000       0.021
   0.03382950  0.00000000  0.00000000       0.042
   0.06765900  0.00000000  0.00000000       0.021
   0.00000000  0.03538570  0.00000000       0.042
   0.03382950  0.03538570  0.00000000       0.083
   0.06765900  0.03538570  0.00000000       0.042
   0.00000000  0.00000000  0.03671072       0.042
   0.03382950  0.00000000  0.03671072       0.083
   0.06765900  0.00000000  0.03671072       0.042
   0.00000000  0.03538570  0.03671072       0.083
   0.03382950  0.03538570  0.03671072       0.167
   0.06765900  0.03538570  0.03671072       0.083
   0.00000000  0.00000000  0.07342144       0.021
   0.03382950  0.00000000  0.07342144       0.042
   0.06765900  0.00000000  0.07342144       0.021
   0.00000000  0.03538570  0.07342144       0.042
   0.03382950  0.03538570  0.07342144       0.083
   0.06765900  0.03538570  0.07342144       0.042

 k-points in reciprocal lattice and weights: auto                                    
   0.00000000  0.00000000  0.00000000       0.021
   0.25000000  0.00000000  0.00000000       0.042
   0.50000000  0.00000000  0.00000000       0.021
   0.00000000  0.33333333  0.00000000       0.042
   0.25000000  0.33333333  0.00000000       0.083
   0.50000000  0.33333333  0.00000000       0.042
   0.00000000  0.00000000  0.25000000       0.042
   0.25000000  0.00000000  0.25000000       0.083
   0.50000000  0.00000000  0.25000000       0.042
   0.00000000  0.33333333  0.25000000       0.083
   0.25000000  0.33333333  0.25000000       0.167
   0.50000000  0.33333333  0.25000000       0.083
   0.00000000  0.00000000  0.50000000       0.021
   0.25000000  0.00000000  0.50000000       0.042
   0.50000000  0.00000000  0.50000000       0.021
   0.00000000  0.33333333  0.50000000       0.042
   0.25000000  0.33333333  0.50000000       0.083
   0.50000000  0.33333333  0.50000000       0.042

 position of ions in fractional coordinates (direct lattice) 
   0.93996575  0.14063873  0.99360621
   0.86203004  0.04524589  0.12612991
   0.07748632  0.09524679  0.86753396
   0.92251369  0.90475321  0.13246605
   0.13796996  0.95475411  0.87387009
   0.06003426  0.85936127  0.00639380
   0.56003425  0.64063871  0.99360621
   0.93996574  0.35936127  0.49360619
   0.56003424  0.85936127  0.49360623
   0.43996575  0.35936128  0.00639379
   0.06003425  0.64063873  0.50639380
   0.43996576  0.14063873  0.50639378
   0.63796995  0.54524589  0.12612991
   0.86203005  0.45475411  0.62612991
   0.63796997  0.95475411  0.62612992
   0.36203005  0.45475411  0.87387010
   0.13796995  0.54524589  0.37387009
   0.36203003  0.04524589  0.37387009
   0.42251369  0.59524677  0.86753397
   0.07748631  0.40475322  0.36753396
   0.42251367  0.90475321  0.36753398
   0.57748632  0.40475323  0.13246602
   0.92251369  0.59524678  0.63246604
   0.57748632  0.09524679  0.63246603
   0.89362296  0.25048920  0.98833243
   0.75367799  0.07929086  0.22407327
   0.13725857  0.16915040  0.76303365
   0.86274143  0.83084960  0.23696635
   0.24632201  0.92070914  0.77592673
   0.10637704  0.74951080  0.01166757
   0.60637703  0.75048921  0.98833243
   0.89362296  0.24951080  0.48833242
   0.60637704  0.74951079  0.48833243
   0.39362297  0.24951079  0.01166757
   0.10637704  0.75048920  0.51166758
   0.39362296  0.25048921  0.51166757
   0.74632200  0.57929086  0.22407326
   0.75367799  0.42070913  0.72407326
   0.74632200  0.92070914  0.72407326
   0.25367800  0.42070914  0.77592674
   0.24632201  0.57929087  0.27592674
   0.25367800  0.07929086  0.27592675
   0.36274143  0.66915040  0.76303365
   0.13725857  0.33084960  0.26303364
   0.36274142  0.83084959  0.26303364
   0.63725857  0.33084960  0.23696636
   0.86274143  0.66915039  0.73696636
   0.63725858  0.16915041  0.73696636

 position of ions in cartesian coordinates  (Angst):
   6.94634688  1.32481685  6.76645828
   6.37040201  0.42621627  0.85894469
   0.57262390  0.89722475  5.90790629
   6.81737613  8.52277523  0.90209378
   1.01959799  8.99378373  5.95105534
   0.44365317  8.09518316  0.04354179
   4.13865312  6.03481667  6.76645828
   6.94634683  3.38518320  3.36145818
   4.13865302  8.09518314  3.36145840
   3.25134692  3.38518330  0.04354172
   0.44365312  6.03481680  3.44854181
   3.25134694  1.32481683  3.44854166
   4.71459796  5.13621624  0.85894466
   6.37040204  4.28378370  4.26394470
   4.71459806  8.99378370  4.26394474
   2.67540204  4.28378373  5.95105538
   1.01959796  5.13621630  2.54605532
   2.67540194  0.42621627  2.54605529
   3.12237615  5.60722456  5.90790637
   0.57262383  3.81277531  2.50290624
   3.12237604  8.52277526  2.50290643
   4.26762388  3.81277542  0.90209362
   6.81737614  5.60722467  4.30709374
   4.26762394  0.89722472  4.30709365
   6.60387371  2.35960826  6.73054386
   5.56968034  0.74691993  1.52593899
   1.01434081  1.59339679  5.19625918
   6.37565919  7.82660320  1.61374085
   1.82031966  8.67308006  5.28406104
   0.78612630  7.06039173  0.07945617
   4.48112628  7.06960836  6.73054385
   6.60387368  2.35039169  3.32554380
   4.48112633  7.06039163  3.32554387
   2.90887372  2.35039162  0.07945618
   0.78612632  7.06960829  3.48445623
   2.90887367  2.35960835  3.48445616
   5.51531957  5.45691993  1.52593892
   5.56968038  3.96308001  4.93093892
   5.51531958  8.67308007  4.93093888
   1.87468043  3.96308005  5.28406111
   1.82031962  5.45691998  1.87906111
   1.87468042  0.74691991  1.87906115
   2.68065919  6.30339674  5.19625914
   1.01434083  3.11660328  1.79125911
   2.68065912  7.82660315  1.79125910
   4.70934081  3.11660323  1.61374088
   6.37565917  6.30339671  5.01874091
   4.70934088  1.59339683  5.01874093



--------------------------------------------------------------------------------------------------------


 k-point   1 :   0.0000 0.0000 0.0000  plane waves:   33969
 k-point   2 :   0.2500 0.0000 0.0000  plane waves:   34052
 k-point   3 :   0.5000 0.0000 0.0000  plane waves:   34066
 k-point   4 :   0.0000 0.3333 0.0000  plane waves:   33996
 k-point   5 :   0.2500 0.3333 0.0000  plane waves:   34055
 k-point   6 :   0.5000 0.3333 0.0000  plane waves:   34066
 k-point   7 :   0.0000 0.0000 0.2500  plane waves:   34069
 k-point   8 :   0.2500 0.0000 0.2500  plane waves:   34038
 k-point   9 :   0.5000 0.0000 0.2500  plane waves:   34076
 k-point  10 :   0.0000 0.3333 0.2500  plane waves:   34040
 k-point  11 :   0.2500 0.3333 0.2500  plane waves:   34059
 k-point  12 :   0.5000 0.3333 0.2500  plane waves:   34026
 k-point  13 :   0.0000 0.0000 0.5000  plane waves:   34016
 k-point  14 :   0.2500 0.0000 0.5000  plane waves:   34052
 k-point  15 :   0.5000 0.0000 0.5000  plane waves:   34052
 k-point  16 :   0.0000 0.3333 0.5000  plane waves:   34014
 k-point  17 :   0.2500 0.3333 0.5000  plane waves:   34012
 k-point  18 :   0.5000 0.3333 0.5000  plane waves:   34040

 maximum and minimum number of plane-waves per node :     17058    16976

 maximum number of plane-waves:     34076
 maximum index in each direction: 
   IXMAX=   19   IYMAX=   24   IZMAX=   17
   IXMIN=  -19   IYMIN=  -24   IZMIN=  -18


 parallel 3D FFT for wavefunctions:
    minimum data exchange during FFTs selected (reduces bandwidth)
 parallel 3D FFT for charge:
    minimum data exchange during FFTs selected (reduces bandwidth)


 total amount of memory used by VASP MPI-rank0   119490. kBytes
=======================================================================

   base      :      30000. kBytes
   nonl-proj :      52690. kBytes
   fftplans  :       9097. kBytes
   grid      :      12591. kBytes
   one-center:         73. kBytes
   wavefun   :      15039. kBytes

     INWAV:  cpu time      0.0002: real time      0.0003
 Broyden mixing: mesh for mixing (old mesh)
   NGX = 39   NGY = 49   NGZ = 35
  (NGX  =160   NGY  =196   NGZ  =140)
  gives a total of  66885 points

 initial charge density was supplied:
 charge density of overlapping atoms calculated
 number of electron     120.0000000 magnetization 
 keeping initial charge density in first step


--------------------------------------------------------------------------------------------------------


 Maximum index for augmentation-charges          186 (set IRDMAX)


--------------------------------------------------------------------------------------------------------


 First call to EWALD:  gamma=   0.227
 Maximum number of real-space cells 3x 2x 3
 Maximum number of reciprocal cells 3x 3x 2

    FEWALD:  cpu time      0.0028: real time      0.0029


--------------------------------------- Ionic step        1  -------------------------------------------




--------------------------------------- Iteration      1(   1)  ---------------------------------------


    POTLOK:  cpu time      0.0734: real time      0.0743
    SETDIJ:  cpu time      0.0083: real time      0.0088
    TRIAL :  cpu time     12.3585: real time     12.3646
    CORREC:  cpu time      0.0034: real time      0.0034
    --------------------------------------------
      LOOP:  cpu time     12.4532: real time     12.4606

 eigenvalue-minimisations  :  4608
 total energy-change (2. order) : 0.4535349E+03  (-0.9478983E+04)
 number of electron     120.0000000 magnetization 
 augmentation part      120.0000000 magnetization 

 Free energy of the ion-electron system (eV)
  ---------------------------------------------------
  alpha Z        PSCENC =        97.96435000
  Ewald energy   TEWEN  =     -1690.83155021
  -Hartree energ DENC   =     -1677.15023986
  -exchange      EXHF   =         0.00000000
  -V(xc)+E(xc)   XCENC  =       222.78250839
  PAW double counting   =      2767.29629322    -2639.21743348
  entropy T*S    EENTRO =        -0.00073991
  eigenvalues    EBANDS =      -461.81791130
  atomic energy  EATOM  =      3834.50962290
  ---------------------------------------------------
  free energy    TOTEN  =       453.53489974 eV

  energy without entropy =      453.53563965  energy(sigma->0) =      453.53526969


--------------------------------------------------------------------------------------------------------




--------------------------------------- Iteration      1(   2)  ---------------------------------------


    TRIAL :  cpu time     30.6306: real time     30.6507
    CORREC:  cpu time      0.0003: real time      0.0003
    --------------------------------------------
      LOOP:  cpu time     30.6444: real time     30.6797

 eigenvalue-minimisations  :  6912
 total energy-change (2. order) :-0.7446391E+03  (-0.7429234E+03)
 number of electron     120.0000000 magnetization 
 augmentation part      120.0000000 magnetization 

 Free energy of the ion-electron system (eV)
  ---------------------------------------------------
  alpha Z        PSCENC =        97.96435000
  Ewald energy   TEWEN  =     -1690.83155021
  -Hartree energ DENC   =     -1677.15023986
  -exchange      EXHF   =         0.00000000
  -V(xc)+E(xc)   XCENC  =       222.78250839
  PAW double counting   =      2767.29629322    -2639.21743348
  entropy T*S    EENTRO =        -0.00000000
  eigenvalues    EBANDS =     -1206.45770270
  atomic energy  EATOM  =      3834.50962290
  ---------------------------------------------------
  free energy    TOTEN  =      -291.10415175 eV

  energy without entropy =     -291.10415175  energy(sigma->0) =     -291.10415175


--------------------------------------------------------------------------------------------------------




--------------------------------------- Iteration      1(   3)  ---------------------------------------


    TRIAL :  cpu time     24.7958: real time     24.8119
    CORREC:  cpu time      0.0003: real time      0.0003
    --------------------------------------------
      LOOP:  cpu time     24.8090: real time     24.8406

 eigenvalue-minimisations  :  6016
 total energy-change (2. order) :-0.3323961E+02  (-0.3323961E+02)
 number of electron     120.0000000 magnetization 
 augmentation part      120.0000000 magnetization 

 Free energy of the ion-electron system (eV)
  ---------------------------------------------------
  alpha Z        PSCENC =        97.96435000
  Ewald energy   TEWEN  =     -1690.83155021
  -Hartree energ DENC   =     -1677.15023986
  -exchange      EXHF   =         0.00000000
  -V(xc)+E(xc)   XCENC  =       222.78250839
  PAW double counting   =      2767.29629322    -2639.21743348
  entropy T*S    EENTRO =        -0.00000000
  eigenvalues    EBANDS =     -1239.69731234
  atomic energy  EATOM  =      3834.50962290
  ---------------------------------------------------
  free energy    TOTEN  =      -324.34376139 eV

  energy without entropy =     -324.34376139  energy(sigma->0) =     -324.34376139


--------------------------------------------------------------------------------------------------------




--------------------------------------- Iteration      1(   4)  ---------------------------------------


    TRIAL :  cpu time     58.7022: real time     58.7313
    CORREC:  cpu time      0.0002: real time      0.0002
    --------------------------------------------
      LOOP:  cpu time     58.7311: real time     58.7604

 eigenvalue-minimisations  :  8960
 total energy-change (2. order) :-0.1638375E+00  (-0.1638375E+00)
 number of electron     120.0000000 magnetization 
 augmentation part      120.0000000 magnetization 

 Free energy of the ion-electron system (eV)
  ---------------------------------------------------
  alpha Z        PSCENC =        97.96435000
  Ewald energy   TEWEN  =     -1690.83155021
  -Hartree energ DENC   =     -1677.15023986
  -exchange      EXHF   =         0.00000000
  -V(xc)+E(xc)   XCENC  =       222.78250839
  PAW double counting   =      2767.29629322    -2639.21743348
  entropy T*S    EENTRO =        -0.00000000
  eigenvalues    EBANDS =     -1239.86114986
  atomic energy  EATOM  =      3834.50962290
  ---------------------------------------------------
  free energy    TOTEN  =      -324.50759891 eV

  energy without entropy =     -324.50759891  energy(sigma->0) =     -324.50759891


--------------------------------------------------------------------------------------------------------




--------------------------------------- Iteration      1(   5)  ---------------------------------------


    TRIAL :  cpu time     15.8078: real time     15.8157
    CORREC:  cpu time      0.0003: real time      0.0003
    CHARGE:  cpu time      0.4108: real time      0.4127
    --------------------------------------------
      LOOP:  cpu time     16.2463: real time     16.2572

 eigenvalue-minimisations  :  4864
 total energy-change (2. order) :-0.1530347E-04  (-0.1530346E-04)
 number of electron     120.0000001 magnetization 
 augmentation part       -0.0669645 magnetization 

 Free energy of the ion-electron system (eV)
  ---------------------------------------------------
  alpha Z        PSCENC =        97.96435000
  Ewald energy   TEWEN  =     -1690.83155021
  -Hartree energ DENC   =     -1677.15023986
  -exchange      EXHF   =         0.00000000
  -V(xc)+E(xc)   XCENC  =       222.78250839
  PAW double counting   =      2767.29629322    -2639.21743348
  entropy T*S    EENTRO =        -0.00000000
  eigenvalues    EBANDS =     -1239.86116516
  atomic energy  EATOM  =      3834.50962290
  ---------------------------------------------------
  free energy    TOTEN  =      -324.50761422 eV

  energy without entropy =     -324.50761422  energy(sigma->0) =     -324.50761422


--------------------------------------------------------------------------------------------------------




--------------------------------------- Iteration      1(   6)  ---------------------------------------


    POTLOK:  cpu time      0.0323: real time      0.0323
    SETDIJ:  cpu time      0.0023: real time      0.0023
    TRIAL :  cpu time      3.0854: real time      3.0882
    CORREC:  cpu time      1.2455: real time      1.2461
    CHARGE:  cpu time      0.3465: real time      0.3468
    --------------------------------------------
      LOOP:  cpu time      4.7252: real time      4.7428

 eigenvalue-minimisations  :     0
 total energy-change (2. order) : 0.4823014E+02  (-0.1779478E+02)
 number of electron     120.0000001 magnetization 
 augmentation part       -0.1020998 magnetization 

 Free energy of the ion-electron system (eV)
  ---------------------------------------------------
  alpha Z        PSCENC =        97.96435000
  Ewald energy   TEWEN  =     -1690.83155021
  -Hartree energ DENC   =     -2364.88426887
  -exchange      EXHF   =         0.00000000
  -V(xc)+E(xc)   XCENC  =       261.93946902
  PAW double counting   =     43509.07589106   -43383.90735733
  entropy T*S    EENTRO =        -0.00000000
  eigenvalues    EBANDS =      -540.14362930
  atomic energy  EATOM  =      3834.50962290
  ---------------------------------------------------
  free energy    TOTEN  =      -276.27747273 eV

  energy without entropy =     -276.27747273  energy(sigma->0) =     -276.27747273


--------------------------------------------------------------------------------------------------------




--------------------------------------- Iteration      1(   7)  ---------------------------------------


    POTLOK:  cpu time      0.0293: real time      0.0293
    SETDIJ:  cpu time      0.0024: real time      0.0024
    TRIAL :  cpu time      2.9526: real time      2.9542
    CORREC:  cpu time      1.2409: real time      1.2413
    CHARGE:  cpu time      0.3477: real time      0.3477
    --------------------------------------------
      LOOP:  cpu time      4.6023: real time      4.6045

 eigenvalue-minimisations  :     0
 total energy-change (2. order) :-0.1770990E+02  (-0.2810432E+01)
 number of electron     120.0000000 magnetization 
 augmentation part       -0.1396693 magnetization 

 Free energy of the ion-electron system (eV)
  ---------------------------------------------------
  alpha Z        PSCENC =        97.96435000
  Ewald energy   TEWEN  =     -1690.83155021
  -Hartree energ DENC   =     -2099.98232186
  -exchange      EXHF   =         0.00000000
  -V(xc)+E(xc)   XCENC  =       249.36245225
  PAW double counting   =     56793.30944489   -56666.68986776
  entropy T*S    EENTRO =        -0.00000000
  eigenvalues    EBANDS =      -811.62950267
  atomic energy  EATOM  =      3834.50962290
  ---------------------------------------------------
  free energy    TOTEN  =      -293.98737245 eV

  energy without entropy =     -293.98737245  energy(sigma->0) =     -293.98737245


--------------------------------------------------------------------------------------------------------




--------------------------------------- Iteration      1(   8)  ---------------------------------------


    POTLOK:  cpu time      0.0294: real time      0.0294
    SETDIJ:  cpu time      0.0024: real time      0.0023
    TRIAL :  cpu time      3.0356: real time      3.0377
    CORREC:  cpu time      1.2307: real time      1.2318
    CHARGE:  cpu time      0.3515: real time      0.3524
    --------------------------------------------
      LOOP:  cpu time      4.6613: real time      4.6826

 eigenvalue-minimisations  :     0
 total energy-change (2. order) :-0.2775733E+01  (-0.7021363E+00)
 number of electron     120.0000000 magnetization 
 augmentation part       -0.1350421 magnetization 

 Free energy of the ion-electron system (eV)
  ---------------------------------------------------
  alpha Z        PSCENC =        97.96435000
  Ewald energy   TEWEN  =     -1690.83155021
  -Hartree energ DENC   =     -2065.01130171
  -exchange      EXHF   =         0.00000000
  -V(xc)+E(xc)   XCENC  =       247.70761262
  PAW double counting   =     57603.54856947   -57476.76459423
  entropy T*S    EENTRO =        -0.00000000
  eigenvalues    EBANDS =      -847.88581422
  atomic energy  EATOM  =      3834.50962290
  ---------------------------------------------------
  free energy    TOTEN  =      -296.76310539 eV

  energy without entropy =     -296.76310539  energy(sigma->0) =     -296.76310539


--------------------------------------------------------------------------------------------------------




--------------------------------------- Iteration      1(   9)  ---------------------------------------


    POTLOK:  cpu time      0.0293: real time      0.0293
    SETDIJ:  cpu time      0.0023: real time      0.0023
    TRIAL :  cpu time      2.9498: real time      2.9516
    CORREC:  cpu time      1.2335: real time      1.2340
    CHARGE:  cpu time      0.3448: real time      0.3448
    --------------------------------------------
      LOOP:  cpu time      4.5740: real time      4.5914

 eigenvalue-minimisations  :     0
 total energy-change (2. order) :-0.6977880E+00  (-0.1352977E+00)
 number of electron     120.0000000 magnetization 
 augmentation part       -0.1324847 magnetization 

 Free energy of the ion-electron system (eV)
  ---------------------------------------------------
  alpha Z        PSCENC =        97.96435000
  Ewald energy   TEWEN  =     -1690.83155021
  -Hartree energ DENC   =     -2051.78353962
  -exchange      EXHF   =         0.00000000
  -V(xc)+E(xc)   XCENC  =       246.81152787
  PAW double counting   =     55237.36426346   -55110.57706020
  entropy T*S    EENTRO =        -0.00000000
  eigenvalues    EBANDS =      -860.91850758
  atomic energy  EATOM  =      3834.50962290
  ---------------------------------------------------
  free energy    TOTEN  =      -297.46089338 eV

  energy without entropy =     -297.46089338  energy(sigma->0) =     -297.46089338


--------------------------------------------------------------------------------------------------------




--------------------------------------- Iteration      1(  10)  ---------------------------------------


    POTLOK:  cpu time      0.0295: real time      0.0295
    SETDIJ:  cpu time      0.0023: real time      0.0023
    TRIAL :  cpu time      2.9514: real time      2.9538
    CORREC:  cpu time      1.2284: real time      1.2300
    CHARGE:  cpu time      0.3486: real time      0.3486
    --------------------------------------------
      LOOP:  cpu time      4.5891: real time      4.5933

 eigenvalue-minimisations  :     0
 total energy-change (2. order) :-0.1352109E+00  (-0.2295078E-01)
 number of electron     120.0000000 magnetization 
 augmentation part       -0.1326158 magnetization 

 Free energy of the ion-electron system (eV)
  ---------------------------------------------------
  alpha Z        PSCENC =        97.96435000
  Ewald energy   TEWEN  =     -1690.83155021
  -Hartree energ DENC   =     -2049.45644802
  -exchange      EXHF   =         0.00000000
  -V(xc)+E(xc)   XCENC  =       246.59343202
  PAW double counting   =     53883.76213556   -53757.01405003
  entropy T*S    EENTRO =        -0.00000000
  eigenvalues    EBANDS =      -863.12359654
  atomic energy  EATOM  =      3834.50962290
  ---------------------------------------------------
  free energy    TOTEN  =      -297.59610432 eV

  energy without entropy =     -297.59610432  energy(sigma->0) =     -297.59610432


--------------------------------------------------------------------------------------------------------




--------------------------------------- Iteration      1(  11)  ---------------------------------------


    POTLOK:  cpu time      0.0293: real time      0.0293
    SETDIJ:  cpu time      0.0024: real time      0.0024
    TRIAL :  cpu time      2.9709: real time      2.9728
    CORREC:  cpu time      1.2286: real time      1.2296
    CHARGE:  cpu time      0.3466: real time      0.3474
    --------------------------------------------
      LOOP:  cpu time      4.6041: real time      4.6111

 eigenvalue-minimisations  :     0
 total energy-change (2. order) :-0.2293312E-01  (-0.4466488E-02)
 number of electron     120.0000000 magnetization 
 augmentation part       -0.1323563 magnetization 

 Free energy of the ion-electron system (eV)
  ---------------------------------------------------
  alpha Z        PSCENC =        97.96435000
  Ewald energy   TEWEN  =     -1690.83155021
  -Hartree energ DENC   =     -2050.41004488
  -exchange      EXHF   =         0.00000000
  -V(xc)+E(xc)   XCENC  =       246.59334719
  PAW double counting   =     53740.86588059   -53614.13490842
  entropy T*S    EENTRO =        -0.00000000
  eigenvalues    EBANDS =      -862.17573461
  atomic energy  EATOM  =      3834.50962290
  ---------------------------------------------------
  free energy    TOTEN  =      -297.61903744 eV

  energy without entropy =     -297.61903744  energy(sigma->0) =     -297.61903744


--------------------------------------------------------------------------------------------------------




--------------------------------------- Iteration      1(  12)  ---------------------------------------


    POTLOK:  cpu time      0.0299: real time      0.0299
    SETDIJ:  cpu time      0.0023: real time      0.0023
    TRIAL :  cpu time      2.9908: real time      2.9928
    CORREC:  cpu time      1.2249: real time      1.2254
    CHARGE:  cpu time      0.3452: real time      0.3453
    --------------------------------------------
      LOOP:  cpu time      4.6091: real time      4.6242

 eigenvalue-minimisations  :     0
 total energy-change (2. order) :-0.4471432E-02  (-0.9047823E-03)
 number of electron     120.0000000 magnetization 
 augmentation part       -0.1321031 magnetization 

 Free energy of the ion-electron system (eV)
  ---------------------------------------------------
  alpha Z        PSCENC =        97.96435000
  Ewald energy   TEWEN  =     -1690.83155021
  -Hartree energ DENC   =     -2050.25749691
  -exchange      EXHF   =         0.00000000
  -V(xc)+E(xc)   XCENC  =       246.57136045
  PAW double counting   =     53909.87399918   -53783.14042814
  entropy T*S    EENTRO =        -0.00000000
  eigenvalues    EBANDS =      -862.31336615
  atomic energy  EATOM  =      3834.50962290
  ---------------------------------------------------
  free energy    TOTEN  =      -297.62350887 eV

  energy without entropy =     -297.62350887  energy(sigma->0) =     -297.62350887


--------------------------------------------------------------------------------------------------------




--------------------------------------- Iteration      1(  13)  ---------------------------------------


    POTLOK:  cpu time      0.0295: real time      0.0295
    SETDIJ:  cpu time      0.0023: real time      0.0023
    TRIAL :  cpu time      2.9536: real time      2.9557
    CORREC:  cpu time      1.2196: real time      1.2203
    CHARGE:  cpu time      0.3464: real time      0.3472
    --------------------------------------------
      LOOP:  cpu time      4.5651: real time      4.5845

 eigenvalue-minimisations  :     0
 total energy-change (2. order) :-0.9072994E-03  (-0.1649924E-03)
 number of electron     120.0000000 magnetization 
 augmentation part       -0.1320009 magnetization 

 Free energy of the ion-electron system (eV)
  ---------------------------------------------------
  alpha Z        PSCENC =        97.96435000
  Ewald energy   TEWEN  =     -1690.83155021
  -Hartree energ DENC   =     -2050.51470196
  -exchange      EXHF   =         0.00000000
  -V(xc)+E(xc)   XCENC  =       246.58188174
  PAW double counting   =     53961.12865868   -53834.39447890
  entropy T*S    EENTRO =        -0.00000000
  eigenvalues    EBANDS =      -862.06819842
  atomic energy  EATOM  =      3834.50962290
  ---------------------------------------------------
  free energy    TOTEN  =      -297.62441617 eV

  energy without entropy =     -297.62441617  energy(sigma->0) =     -297.62441617


--------------------------------------------------------------------------------------------------------




--------------------------------------- Iteration      1(  14)  ---------------------------------------


    POTLOK:  cpu time      0.0292: real time      0.0292
    SETDIJ:  cpu time      0.0024: real time      0.0024
    TRIAL :  cpu time      2.9778: real time      2.9800
    CORREC:  cpu time      1.2194: real time      1.2200
    CHARGE:  cpu time      0.3445: real time      0.3446
    --------------------------------------------
      LOOP:  cpu time      4.5853: real time      4.6065

 eigenvalue-minimisations  :     0
 total energy-change (2. order) :-0.1659670E-03  (-0.2862093E-04)
 number of electron     120.0000000 magnetization 
 augmentation part       -0.1320166 magnetization 

 Free energy of the ion-electron system (eV)
  ---------------------------------------------------
  alpha Z        PSCENC =        97.96435000
  Ewald energy   TEWEN  =     -1690.83155021
  -Hartree energ DENC   =     -2050.61901597
  -exchange      EXHF   =         0.00000000
  -V(xc)+E(xc)   XCENC  =       246.58551604
  PAW double counting   =     53950.89154432   -53824.15725443
  entropy T*S    EENTRO =        -0.00000000
  eigenvalues    EBANDS =      -861.96779479
  atomic energy  EATOM  =      3834.50962290
  ---------------------------------------------------
  free energy    TOTEN  =      -297.62458214 eV

  energy without entropy =     -297.62458214  energy(sigma->0) =     -297.62458214


--------------------------------------------------------------------------------------------------------




--------------------------------------- Iteration      1(  15)  ---------------------------------------


    POTLOK:  cpu time      0.0296: real time      0.0297
    SETDIJ:  cpu time      0.0023: real time      0.0023
    TRIAL :  cpu time      3.0108: real time      3.0128
    CORREC:  cpu time      1.2453: real time      1.2468
    CHARGE:  cpu time      0.3559: real time      0.3560
    --------------------------------------------
      LOOP:  cpu time      4.6732: real time      4.6769

 eigenvalue-minimisations  :     0
 total energy-change (2. order) :-0.2880046E-04  (-0.5881845E-05)
 number of electron     120.0000000 magnetization 
 augmentation part       -0.1320586 magnetization 

 Free energy of the ion-electron system (eV)
  ---------------------------------------------------
  alpha Z        PSCENC =        97.96435000
  Ewald energy   TEWEN  =     -1690.83155021
  -Hartree energ DENC   =     -2050.59733156
  -exchange      EXHF   =         0.00000000
  -V(xc)+E(xc)   XCENC  =       246.58420518
  PAW double counting   =     53946.20455893   -53819.47000497
  entropy T*S    EENTRO =        -0.00000000
  eigenvalues    EBANDS =      -861.98846121
  atomic energy  EATOM  =      3834.50962290
  ---------------------------------------------------
  free energy    TOTEN  =      -297.62461094 eV

  energy without entropy =     -297.62461094  energy(sigma->0) =     -297.62461094


--------------------------------------------------------------------------------------------------------




--------------------------------------- Iteration      1(  16)  ---------------------------------------


    POTLOK:  cpu time      0.0296: real time      0.0296
    SETDIJ:  cpu time      0.0023: real time      0.0023
    TRIAL :  cpu time      2.9842: real time      2.9870
    CORREC:  cpu time      1.2222: real time      1.2227
    CHARGE:  cpu time      0.3461: real time      0.3469
    --------------------------------------------
      LOOP:  cpu time      4.5973: real time      4.6183

 eigenvalue-minimisations  :     0
 total energy-change (2. order) :-0.5298039E-05  (-0.1235769E-05)
 number of electron     120.0000000 magnetization 
 augmentation part       -0.1320787 magnetization 

 Free energy of the ion-electron system (eV)
  ---------------------------------------------------
  alpha Z        PSCENC =        97.96435000
  Ewald energy   TEWEN  =     -1690.83155021
  -Hartree energ DENC   =     -2050.61257936
  -exchange      EXHF   =         0.00000000
  -V(xc)+E(xc)   XCENC  =       246.58514420
  PAW double counting   =     53947.76503562   -53821.03051436
  entropy T*S    EENTRO =        -0.00000000
  eigenvalues    EBANDS =      -861.97412502
  atomic energy  EATOM  =      3834.50962290
  ---------------------------------------------------
  free energy    TOTEN  =      -297.62461624 eV

  energy without entropy =     -297.62461624  energy(sigma->0) =     -297.62461624


--------------------------------------------------------------------------------------------------------




--------------------------------------- Iteration      1(  17)  ---------------------------------------


    POTLOK:  cpu time      0.0294: real time      0.0294
    SETDIJ:  cpu time      0.0024: real time      0.0024
    TRIAL :  cpu time      2.9406: real time      2.9429
    CORREC:  cpu time      1.2196: real time      1.2202
    CHARGE:  cpu time      0.3428: real time      0.3428
    --------------------------------------------
      LOOP:  cpu time      4.5645: real time      4.5677

 eigenvalue-minimisations  :     0
 total energy-change (2. order) :-0.1071669E-05  (-0.2855308E-06)
 number of electron     120.0000000 magnetization 
 augmentation part       -0.1320761 magnetization 

 Free energy of the ion-electron system (eV)
  ---------------------------------------------------
  alpha Z        PSCENC =        97.96435000
  Ewald energy   TEWEN  =     -1690.83155021
  -Hartree energ DENC   =     -2050.60187986
  -exchange      EXHF   =         0.00000000
  -V(xc)+E(xc)   XCENC  =       246.58482779
  PAW double counting   =     53949.32439481   -53822.58983085
  entropy T*S    EENTRO =        -0.00000000
  eigenvalues    EBANDS =      -861.98455188
  atomic energy  EATOM  =      3834.50962290
  ---------------------------------------------------
  free energy    TOTEN  =      -297.62461731 eV

  energy without entropy =     -297.62461731  energy(sigma->0) =     -297.62461731


--------------------------------------------------------------------------------------------------------




--------------------------------------- Iteration      1(  18)  ---------------------------------------


    POTLOK:  cpu time      0.0292: real time      0.0292
    SETDIJ:  cpu time      0.0024: real time      0.0024
    TRIAL :  cpu time      2.9589: real time      2.9615
    CORREC:  cpu time      1.2211: real time      1.2226
    CHARGE:  cpu time      0.3426: real time      0.3426
    --------------------------------------------
      LOOP:  cpu time      4.5825: real time      4.5870

 eigenvalue-minimisations  :     0
 total energy-change (2. order) :-0.2759480E-06  (-0.3196763E-07)
 number of electron     120.0000000 magnetization 
 augmentation part       -0.1320741 magnetization 

 Free energy of the ion-electron system (eV)
  ---------------------------------------------------
  alpha Z        PSCENC =        97.96435000
  Ewald energy   TEWEN  =     -1690.83155021
  -Hartree energ DENC   =     -2050.60460074
  -exchange      EXHF   =         0.00000000
  -V(xc)+E(xc)   XCENC  =       246.58494349
  PAW double counting   =     53948.30351171   -53821.56898308
  entropy T*S    EENTRO =        -0.00000000
  eigenvalues    EBANDS =      -861.98191164
  atomic energy  EATOM  =      3834.50962290
  ---------------------------------------------------
  free energy    TOTEN  =      -297.62461758 eV

  energy without entropy =     -297.62461758  energy(sigma->0) =     -297.62461758


--------------------------------------------------------------------------------------------------------




--------------------------------------- Iteration      1(  19)  ---------------------------------------


    POTLOK:  cpu time      0.0294: real time      0.0294
    SETDIJ:  cpu time      0.0023: real time      0.0023
    TRIAL :  cpu time      2.9934: real time      2.9953
    CORREC:  cpu time      1.2529: real time      1.2538
    EDDIAG:  cpu time      1.0667: real time      1.0682
    CHARGE:  cpu time      0.3739: real time      0.3745
    --------------------------------------------
      LOOP:  cpu time      5.7313: real time      5.7523

 eigenvalue-minimisations  :     0
 total energy-change (2. order) :-0.2573506E-07  (-0.1093226E-07)
 number of electron     120.0000000 magnetization 
 augmentation part       -0.1320732 magnetization 

 Free energy of the ion-electron system (eV)
  ---------------------------------------------------
  alpha Z        PSCENC =        97.96435000
  Ewald energy   TEWEN  =     -1690.83155021
  -Hartree energ DENC   =     -2050.60420805
  -exchange      EXHF   =         0.00000000
  -V(xc)+E(xc)   XCENC  =       246.58491429
  PAW double counting   =     53947.99002261   -53821.25549658
  entropy T*S    EENTRO =        -0.00000000
  eigenvalues    EBANDS =      -861.98227258
  atomic energy  EATOM  =      3834.50962290
  ---------------------------------------------------
  free energy    TOTEN  =      -297.62461761 eV

  energy without entropy =     -297.62461761  energy(sigma->0) =     -297.62461761


--------------------------------------------------------------------------------------------------------


  average scaling for gradient   1.0334


 average (electrostatic) potential at core
  the test charge radii are     0.5770  0.4325
  (the norm of the test charge is              1.0000)
       1 -81.4820       2 -81.4764       3 -81.4685       4 -81.4685       5 -81.4764
       6 -81.4820       7 -81.4820       8 -81.4820       9 -81.4820      10 -81.4820
      11 -81.4820      12 -81.4820      13 -81.4764      14 -81.4764      15 -81.4764
      16 -81.4764      17 -81.4764      18 -81.4764      19 -81.4685      20 -81.4685
      21 -81.4685      22 -81.4685      23 -81.4685      24 -81.4685      25 -40.2990
      26 -40.2596      27 -40.2819      28 -40.2819      29 -40.2596      30 -40.2990
      31 -40.2990      32 -40.2990      33 -40.2990      34 -40.2990      35 -40.2990
      36 -40.2990      37 -40.2596      38 -40.2596      39 -40.2596      40 -40.2596
      41 -40.2596      42 -40.2596      43 -40.2819      44 -40.2819      45 -40.2819
      46 -40.2819      47 -40.2819      48 -40.2819



 E-fermi :  -0.9972     XC(G=0):  -7.4134     alpha+bet : -6.7107

 Fermi energy:        -0.9972421725

 k-point     1 :       0.0000    0.0000    0.0000
  band No.  band energies     occupation 
      1     -16.4789      2.00000
      2     -16.3810      2.00000
      3     -16.3169      2.00000
      4     -16.3050      2.00000
      5     -13.7629      2.00000
      6     -13.6411      2.00000
      7     -13.6019      2.00000
      8     -13.5741      2.00000
      9     -13.5380      2.00000
     10     -13.5129      2.00000
     11     -13.5103      2.00000
     12     -13.4902      2.00000
     13     -10.0684      2.00000
     14     -10.0413      2.00000
     15      -9.9931      2.00000
     16      -9.9486      2.00000
     17      -9.9207      2.00000
     18      -9.8948      2.00000
     19      -9.8608      2.00000
     20      -9.7055      2.00000
     21      -8.2980      2.00000
     22      -7.9026      2.00000
     23      -7.8988      2.00000
     24      -7.6322      2.00000
     25      -6.5906      2.00000
     26      -6.4212      2.00000
     27      -6.2400      2.00000
     28      -6.0970      2.00000
     29      -5.9930      2.00000
     30      -5.9734      2.00000
     31      -5.9146      2.00000
     32      -5.8987      2.00000
     33      -5.6363      2.00000
     34      -5.6344      2.00000
     35      -5.5798      2.00000
     36      -5.1958      2.00000
     37      -5.1948      2.00000
     38      -5.1702      2.00000
     39      -5.1441      2.00000
     40      -5.0031      2.00000
     41      -4.1140      2.00000
     42      -4.0411      2.00000
     43      -3.9547      2.00000
     44      -3.9246      2.00000
     45      -3.5512      2.00000
     46      -3.4852      2.00000
     47      -3.4751      2.00000
     48      -3.3777      2.00000
     49      -3.2230      2.00000
     50      -3.2040      2.00000
     51      -3.1969      2.00000
     52      -3.0286      2.00000
     53      -1.7417      2.00000
     54      -1.7308      2.00000
     55      -1.6135      2.00000
     56      -1.5147      2.00000
     57      -1.3431      2.00000
     58      -1.2505      2.00000
     59      -1.1570      2.00000
     60      -1.1208      2.00000
     61       3.4011      0.00000
     62       3.4641      0.00000
     63       3.5258      0.00000
     64       3.6998      0.00000
     65       3.7328      0.00000
     66       3.7862      0.00000
     67       3.9473      0.00000
     68       4.0656      0.00000
     69       4.7584      0.00000
     70       5.9703      0.00000
     71       6.1087      0.00000
     72       6.7550      0.00000
     73       6.8888      0.00000
     74       6.9607      0.00000
     75       7.0468      0.00000
     76       7.2495      0.00000
     77       7.3861      0.00000
     78       7.3872      0.00000
     79       7.4015      0.00000
     80       7.4527      0.00000
     81       7.7014      0.00000
     82       7.9332      0.00000
     83       8.1117      0.00000
     84       8.1809      0.00000
     85       8.3451      0.00000
     86       8.6481      0.00000
     87       8.7513      0.00000
     88       8.8576      0.00000
     89       9.0203      0.00000
     90       9.1022      0.00000
     91       9.2923      0.00000
     92       9.3691      0.00000
     93       9.4210      0.00000
     94       9.5158      0.00000
     95       9.5833      0.00000
     96       9.6523      0.00000
     97       9.8881      0.00000
     98      10.0794      0.00000
     99      10.2132      0.00000
    100      10.3032      0.00000
    101      10.5763      0.00000
    102      10.8629      0.00000
    103      10.9053      0.00000
    104      11.0031      0.00000
    105      11.2868      0.00000
    106      11.3403      0.00000
    107      11.3803      0.00000
    108      11.3847      0.00000
    109      11.6064      0.00000
    110      11.7694      0.00000
    111      11.7757      0.00000
    112      11.8272      0.00000
    113      12.0031      0.00000
    114      12.0232      0.00000
    115      12.0469      0.00000
    116      12.1543      0.00000
    117      12.3995      0.00000
    118      12.4788      0.00000
    119      13.0061      0.00000
    120      13.0669      0.00000
    121      13.1650      0.00000
    122      13.3026      0.00000
    123      13.4479      0.00000
    124      13.5541      0.00000
    125      13.6629      0.00000
    126      13.6970      0.00000
    127      13.8978      0.00000
    128      14.4261      0.00000

 k-point     2 :       0.2500    0.0000    0.0000
  band No.  band energies     occupation 
      1     -16.4564      2.00000
      2     -16.3700      2.00000
      3     -16.3419      2.00000
      4     -16.3162      2.00000
      5     -13.7350      2.00000
      6     -13.6312      2.00000
      7     -13.5942      2.00000
      8     -13.5724      2.00000
      9     -13.5619      2.00000
     10     -13.5246      2.00000
     11     -13.5153      2.00000
     12     -13.4971      2.00000
     13     -10.0162      2.00000
     14     -10.0140      2.00000
     15      -9.9902      2.00000
     16      -9.9582      2.00000
     17      -9.9163      2.00000
     18      -9.8977      2.00000
     19      -9.8881      2.00000
     20      -9.7575      2.00000
     21      -8.2643      2.00000
     22      -7.9888      2.00000
     23      -7.8676      2.00000
     24      -7.6780      2.00000
     25      -6.5598      2.00000
     26      -6.4388      2.00000
     27      -6.1819      2.00000
     28      -6.0771      2.00000
     29      -5.9828      2.00000
     30      -5.9670      2.00000
     31      -5.9088      2.00000
     32      -5.8963      2.00000
     33      -5.6092      2.00000
     34      -5.5234      2.00000
     35      -5.4848      2.00000
     36      -5.2792      2.00000
     37      -5.1922      2.00000
     38      -5.1638      2.00000
     39      -5.1579      2.00000
     40      -5.0363      2.00000
     41      -4.2435      2.00000
     42      -4.1734      2.00000
     43      -4.0377      2.00000
     44      -4.0214      2.00000
     45      -3.4557      2.00000
     46      -3.3929      2.00000
     47      -3.3879      2.00000
     48      -3.3570      2.00000
     49      -3.2082      2.00000
     50      -3.2081      2.00000
     51      -3.1755      2.00000
     52      -3.0599      2.00000
     53      -1.6592      2.00000
     54      -1.6590      2.00000
     55      -1.6019      2.00000
     56      -1.5313      2.00000
     57      -1.3293      2.00000
     58      -1.2917      2.00000
     59      -1.2245      2.00000
     60      -1.2168      2.00000
     61       3.4556      0.00000
     62       3.5239      0.00000
     63       3.5542      0.00000
     64       3.7001      0.00000
     65       3.7256      0.00000
     66       3.7258      0.00000
     67       3.8581      0.00000
     68       3.9569      0.00000
     69       4.9860      0.00000
     70       6.0727      0.00000
     71       6.1942      0.00000
     72       6.4068      0.00000
     73       6.6983      0.00000
     74       6.9180      0.00000
     75       7.2097      0.00000
     76       7.2185      0.00000
     77       7.2602      0.00000
     78       7.3734      0.00000
     79       7.5190      0.00000
     80       7.6183      0.00000
     81       7.7553      0.00000
     82       7.9963      0.00000
     83       8.0177      0.00000
     84       8.3020      0.00000
     85       8.3237      0.00000
     86       8.6295      0.00000
     87       8.9326      0.00000
     88       8.9682      0.00000
     89       9.0073      0.00000
     90       9.0381      0.00000
     91       9.0769      0.00000
     92       9.1672      0.00000
     93       9.3163      0.00000
     94       9.4495      0.00000
     95       9.6476      0.00000
     96       9.7987      0.00000
     97      10.1091      0.00000
     98      10.1968      0.00000
     99      10.2325      0.00000
    100      10.3769      0.00000
    101      10.4268      0.00000
    102      10.6542      0.00000
    103      10.8860      0.00000
    104      10.9474      0.00000
    105      11.0518      0.00000
    106      11.2207      0.00000
    107      11.2462      0.00000
    108      11.2788      0.00000
    109      11.6059      0.00000
    110      11.6215      0.00000
    111      11.7577      0.00000
    112      11.8283      0.00000
    113      11.9233      0.00000
    114      12.1115      0.00000
    115      12.2751      0.00000
    116      12.2873      0.00000
    117      12.3551      0.00000
    118      12.7063      0.00000
    119      12.7096      0.00000
    120      13.0900      0.00000
    121      13.2793      0.00000
    122      13.3085      0.00000
    123      13.3291      0.00000
    124      13.5114      0.00000
    125      13.7203      0.00000
    126      14.0458      0.00000
    127      14.0536      0.00000
    128      14.2638      0.00000

 k-point     3 :       0.5000    0.0000    0.0000
  band No.  band energies     occupation 
      1     -16.4004      2.00000
      2     -16.4004      2.00000
      3     -16.3432      2.00000
      4     -16.3432      2.00000
      5     -13.6679      2.00000
      6     -13.6679      2.00000
      7     -13.5785      2.00000
      8     -13.5785      2.00000
      9     -13.5586      2.00000
     10     -13.5586      2.00000
     11     -13.5110      2.00000
     12     -13.5110      2.00000
     13      -9.9791      2.00000
     14      -9.9791      2.00000
     15      -9.9517      2.00000
     16      -9.9517      2.00000
     17      -9.9071      2.00000
     18      -9.9071      2.00000
     19      -9.8838      2.00000
     20      -9.8838      2.00000
     21      -8.1529      2.00000
     22      -8.1529      2.00000
     23      -7.7779      2.00000
     24      -7.7779      2.00000
     25      -6.4934      2.00000
     26      -6.4934      2.00000
     27      -6.0944      2.00000
     28      -6.0944      2.00000
     29      -5.9667      2.00000
     30      -5.9667      2.00000
     31      -5.8988      2.00000
     32      -5.8988      2.00000
     33      -5.4945      2.00000
     34      -5.4945      2.00000
     35      -5.2885      2.00000
     36      -5.2885      2.00000
     37      -5.2612      2.00000
     38      -5.2612      2.00000
     39      -5.1088      2.00000
     40      -5.1088      2.00000
     41      -4.3247      2.00000
     42      -4.3247      2.00000
     43      -4.1197      2.00000
     44      -4.1197      2.00000
     45      -3.3655      2.00000
     46      -3.3655      2.00000
     47      -3.2620      2.00000
     48      -3.2620      2.00000
     49      -3.2481      2.00000
     50      -3.2481      2.00000
     51      -3.1241      2.00000
     52      -3.1241      2.00000
     53      -1.5746      2.00000
     54      -1.5746      2.00000
     55      -1.4741      2.00000
     56      -1.4741      2.00000
     57      -1.4398      2.00000
     58      -1.4398      2.00000
     59      -1.2901      2.00000
     60      -1.2901      2.00000
     61       3.5876      0.00000
     62       3.5876      0.00000
[...]
     99      10.3399      0.00000
    100      10.3399      0.00000
    101      10.7776      0.00000
    102      10.7776      0.00000
    103      10.8360      0.00000
    104      10.8360      0.00000
    105      11.2861      0.00000
    106      11.2861      0.00000
    107      11.4307      0.00000
    108      11.4307      0.00000
    109      11.6120      0.00000
    110      11.6120      0.00000
    111      11.7533      0.00000
    112      11.7533      0.00000
    113      12.1840      0.00000
    114      12.1840      0.00000
    115      12.3535      0.00000
    116      12.3535      0.00000
    117      12.7080      0.00000
    118      12.7080      0.00000
    119      12.9568      0.00000
    120      12.9570      0.00000
    121      13.1933      0.00000
    122      13.1935      0.00000
    123      13.3816      0.00000
    124      13.3881      0.00000
    125      13.5777      0.00000
    126      13.5791      0.00000
    127      13.7898      0.00000
    128      13.7906      0.00000

 k-point    18 :       0.5000    0.3333    0.5000
  band No.  band energies     occupation 
      1     -16.3703      2.00000
      2     -16.3703      2.00000
      3     -16.3703      2.00000
      4     -16.3703      2.00000
      5     -13.6527      2.00000
      6     -13.6527      2.00000
      7     -13.6527      2.00000
      8     -13.6527      2.00000
      9     -13.5097      2.00000
     10     -13.5097      2.00000
     11     -13.5097      2.00000
     12     -13.5097      2.00000
     13     -10.0216      2.00000
     14     -10.0216      2.00000
     15     -10.0216      2.00000
     16     -10.0216      2.00000
     17      -9.8419      2.00000
     18      -9.8419      2.00000
     19      -9.8419      2.00000
     20      -9.8419      2.00000
     21      -7.9327      2.00000
     22      -7.9327      2.00000
     23      -7.9327      2.00000
     24      -7.9327      2.00000
     25      -6.3411      2.00000
     26      -6.3411      2.00000
     27      -6.3411      2.00000
     28      -6.3411      2.00000
     29      -5.9330      2.00000
     30      -5.9330      2.00000
     31      -5.9330      2.00000
     32      -5.9330      2.00000
     33      -5.5714      2.00000
     34      -5.5714      2.00000
     35      -5.5714      2.00000
     36      -5.5714      2.00000
     37      -5.0864      2.00000
     38      -5.0864      2.00000
     39      -5.0864      2.00000
     40      -5.0864      2.00000
     41      -4.0172      2.00000
     42      -4.0172      2.00000
     43      -4.0172      2.00000
     44      -4.0172      2.00000
     45      -3.4137      2.00000
     46      -3.4137      2.00000
     47      -3.4137      2.00000
     48      -3.4137      2.00000
     49      -3.1791      2.00000
     50      -3.1791      2.00000
     51      -3.1791      2.00000
     52      -3.1791      2.00000
     53      -1.5160      2.00000
     54      -1.5160      2.00000
     55      -1.5160      2.00000
     56      -1.5160      2.00000
     57      -1.3326      2.00000
     58      -1.3326      2.00000
     59      -1.3326      2.00000
     60      -1.3326      2.00000
     61       3.3805      0.00000
     62       3.3805      0.00000
     63       3.3805      0.00000
     64       3.3805      0.00000
     65       3.9352      0.00000
     66       3.9352      0.00000
     67       3.9352      0.00000
     68       3.9352      0.00000
     69       5.9438      0.00000
     70       5.9438      0.00000
     71       5.9438      0.00000
     72       5.9438      0.00000
     73       6.6729      0.00000
     74       6.6729      0.00000
     75       6.6729      0.00000
     76       6.6729      0.00000
     77       7.3909      0.00000
     78       7.3909      0.00000
     79       7.3909      0.00000
     80       7.3909      0.00000
     81       7.8387      0.00000
     82       7.8387      0.00000
     83       7.8387      0.00000
     84       7.8387      0.00000
     85       8.4686      0.00000
     86       8.4686      0.00000
     87       8.4686      0.00000
     88       8.4686      0.00000
     89       9.4838      0.00000
     90       9.4838      0.00000
     91       9.4838      0.00000
     92       9.4838      0.00000
     93       9.7626      0.00000
     94       9.7626      0.00000
     95       9.7626      0.00000
     96       9.7626      0.00000
     97      10.4364      0.00000
     98      10.4364      0.00000
     99      10.4364      0.00000
    100      10.4364      0.00000
    101      10.7402      0.00000
    102      10.7402      0.00000
    103      10.7402      0.00000
    104      10.7402      0.00000
    105      11.3008      0.00000
    106      11.3008      0.00000
    107      11.3008      0.00000
    108      11.3008      0.00000
    109      11.7758      0.00000
    110      11.7758      0.00000
    111      11.7758      0.00000
    112      11.7758      0.00000
    113      12.3827      0.00000
    114      12.3827      0.00000
    115      12.3827      0.00000
    116      12.3827      0.00000
    117      12.8798      0.00000
    118      12.8798      0.00000
    119      12.8799      0.00000
    120      12.8799      0.00000
    121      13.0365      0.00000
    122      13.0366      0.00000
    123      13.0366      0.00000
    124      13.0366      0.00000
    125      13.5606      0.00000
    126      13.5610      0.00000
    127      13.5612      0.00000
    128      13.5613      0.00000


--------------------------------------------------------------------------------------------------------


 soft charge-density along one line, spin component           1
         0         1         2         3         4         5         6         7         8         9
 total charge-density along one line

 pseudopotential strength for first ion, spin component:           1
 12.566  21.143  -0.000   0.000   0.000  -0.001   0.000   0.000
 21.143  35.574  -0.001   0.000   0.000  -0.001   0.000   0.001
 -0.000  -0.001  -3.016  -0.000  -0.000  -5.402  -0.000  -0.000
  0.000   0.000  -0.000  -3.017  -0.001  -0.000  -5.402  -0.001
  0.000   0.000  -0.000  -0.001  -3.017  -0.000  -0.001  -5.402
 -0.001  -0.001  -5.402  -0.000  -0.000  -9.650  -0.001  -0.001
  0.000   0.000  -0.000  -5.402  -0.001  -0.001  -9.652  -0.002
  0.000   0.001  -0.000  -0.001  -5.402  -0.001  -0.002  -9.652
 total augmentation occupancy for first ion, spin component:           1
  8.412  -2.984  -0.730   0.022   0.246   0.334  -0.010  -0.113
 -2.984   1.085   0.353  -0.011  -0.120  -0.158   0.005   0.053
 -0.730   0.353   7.031  -0.771  -0.540  -2.373   0.308   0.207
  0.022  -0.011  -0.771   5.905  -2.187   0.308  -1.948   0.875
  0.246  -0.120  -0.540  -2.187   5.829   0.207   0.875  -1.915
  0.334  -0.158  -2.373   0.308   0.207   0.809  -0.120  -0.077
 -0.010   0.005   0.308  -1.948   0.875  -0.120   0.656  -0.341
 -0.113   0.053   0.207   0.875  -1.915  -0.077  -0.341   0.641


------------------------ aborting loop because EDIFF is reached ----------------------------------------


    FORLOC:  cpu time      0.0049: real time      0.0049
    FORNL :  cpu time      1.9370: real time      1.9381
    FORCOR:  cpu time      0.0273: real time      0.0279
    OFIELD:  cpu time      0.0027: real time      0.0029

 ---------------------------------------------------------------------------------------------

         DFTD3 V3.0 Rev 1        
 IVDW         = 11
 DF rpbe      
 parameters
 VDW_S6       =    1.0000
 VDW_S8       =    0.5140
 VDW_SR       =    0.8720
 rs18     =    1.0000
 alpha6   =   14.0000
 alpha8   =   16.0000
 k1-k3    =   16.0000    1.3333   -4.0000
 VDW_RADIUS   =   50.2022 A
 VDW_CNRADIUS =   21.1671 A
 Edisp (eV)   -4.33257

 E6    (eV) :    -3.6955
 E8    (eV) :    -0.6371
 % E8        : 14.71
    FORVDW:  cpu time      0.6490: real time      0.6500

 VOLUME and BASIS-vectors are now :
 -----------------------------------------------------------------------------
  energy-cutoff  :     1000.00
  volume of cell :      474.07
      direct lattice vectors                 reciprocal lattice vectors
     7.390000000  0.000000000  0.000000000     0.135317997  0.000000000  0.000000000
     0.000000000  9.420000000  0.000000000     0.000000000  0.106157113  0.000000000
     0.000000000  0.000000000  6.810000000     0.000000000  0.000000000  0.146842878

  length of vectors
     7.390000000  9.420000000  6.810000000     0.135317997  0.106157113  0.146842878


 FORCES acting on ions:
    Electron-Ion                     Ewald-Force                    Non-Local-Force
 -----------------------------------------------------------------------------------------------
   0.338E+02 -.108E+03 0.202E+01   -.339E+02 0.108E+03 -.209E+01   0.168E-01 0.204E+00 0.603E-01
   0.805E+02 -.346E+02 -.690E+02   -.806E+02 0.346E+02 0.692E+02   -.270E-02 0.785E-01 -.491E-02
   -.446E+02 -.708E+02 0.729E+02   0.446E+02 0.708E+02 -.731E+02   0.131E-01 0.907E-01 0.437E-01
   0.446E+02 0.708E+02 -.729E+02   -.446E+02 -.708E+02 0.731E+02   -.131E-01 -.907E-01 -.437E-01
   -.805E+02 0.346E+02 0.690E+02   0.806E+02 -.346E+02 -.692E+02   0.270E-02 -.785E-01 0.491E-02
   -.338E+02 0.108E+03 -.202E+01   0.339E+02 -.108E+03 0.209E+01   -.168E-01 -.204E+00 -.603E-01
   -.338E+02 -.108E+03 0.202E+01   0.339E+02 0.108E+03 -.209E+01   -.168E-01 0.204E+00 0.603E-01
   0.338E+02 0.108E+03 0.202E+01   -.339E+02 -.108E+03 -.209E+01   0.168E-01 -.204E+00 0.603E-01
   -.338E+02 0.108E+03 0.202E+01   0.339E+02 -.108E+03 -.209E+01   -.168E-01 -.204E+00 0.603E-01
   0.338E+02 0.108E+03 -.202E+01   -.339E+02 -.108E+03 0.209E+01   0.168E-01 -.204E+00 -.603E-01
   -.338E+02 -.108E+03 -.202E+01   0.339E+02 0.108E+03 0.209E+01   -.168E-01 0.204E+00 -.603E-01
   0.338E+02 -.108E+03 -.202E+01   -.339E+02 0.108E+03 0.209E+01   0.168E-01 0.204E+00 -.603E-01
   -.805E+02 -.346E+02 -.690E+02   0.806E+02 0.346E+02 0.692E+02   0.270E-02 0.785E-01 -.491E-02
   0.805E+02 0.346E+02 -.690E+02   -.806E+02 -.346E+02 0.692E+02   -.270E-02 -.785E-01 -.491E-02
   -.805E+02 0.346E+02 -.690E+02   0.806E+02 -.346E+02 0.692E+02   0.270E-02 -.785E-01 -.491E-02
   0.805E+02 0.346E+02 0.690E+02   -.806E+02 -.346E+02 -.692E+02   -.270E-02 -.785E-01 0.491E-02
   -.805E+02 -.346E+02 0.690E+02   0.806E+02 0.346E+02 -.692E+02   0.270E-02 0.785E-01 0.491E-02
   0.805E+02 -.346E+02 0.690E+02   -.806E+02 0.346E+02 -.692E+02   -.270E-02 0.785E-01 0.491E-02
   0.446E+02 -.708E+02 0.729E+02   -.446E+02 0.708E+02 -.731E+02   -.131E-01 0.907E-01 0.437E-01
   -.446E+02 0.708E+02 0.729E+02   0.446E+02 -.708E+02 -.731E+02   0.131E-01 -.907E-01 0.437E-01
   0.446E+02 0.708E+02 0.729E+02   -.446E+02 -.708E+02 -.731E+02   -.131E-01 -.907E-01 0.437E-01
   -.446E+02 0.708E+02 -.729E+02   0.446E+02 -.708E+02 0.731E+02   0.131E-01 -.907E-01 -.437E-01
   0.446E+02 -.708E+02 -.729E+02   -.446E+02 0.708E+02 0.731E+02   -.131E-01 0.907E-01 -.437E-01
   -.446E+02 -.708E+02 -.729E+02   0.446E+02 0.708E+02 0.731E+02   0.131E-01 0.907E-01 -.437E-01
   0.141E+02 -.498E+02 0.183E+01   -.159E+02 0.553E+02 -.201E+01   0.181E+01 -.549E+01 0.182E+00
   0.344E+02 -.165E+02 -.272E+02   -.386E+02 0.181E+02 0.307E+02   0.427E+01 -.166E+01 -.355E+01
   -.187E+02 -.319E+02 0.328E+02   0.210E+02 0.355E+02 -.366E+02   -.235E+01 -.369E+01 0.382E+01
   0.187E+02 0.319E+02 -.328E+02   -.210E+02 -.355E+02 0.366E+02   0.235E+01 0.369E+01 -.382E+01
   -.344E+02 0.165E+02 0.272E+02   0.386E+02 -.181E+02 -.307E+02   -.427E+01 0.166E+01 0.355E+01
   -.141E+02 0.498E+02 -.183E+01   0.159E+02 -.553E+02 0.201E+01   -.181E+01 0.549E+01 -.182E+00
   -.141E+02 -.498E+02 0.183E+01   0.159E+02 0.553E+02 -.201E+01   -.181E+01 -.549E+01 0.182E+00
   0.141E+02 0.498E+02 0.183E+01   -.159E+02 -.553E+02 -.201E+01   0.181E+01 0.549E+01 0.182E+00
   -.141E+02 0.498E+02 0.183E+01   0.159E+02 -.553E+02 -.201E+01   -.181E+01 0.549E+01 0.182E+00
   0.141E+02 0.498E+02 -.183E+01   -.159E+02 -.553E+02 0.201E+01   0.181E+01 0.549E+01 -.182E+00
   -.141E+02 -.498E+02 -.183E+01   0.159E+02 0.553E+02 0.201E+01   -.181E+01 -.549E+01 -.182E+00
   0.141E+02 -.498E+02 -.183E+01   -.159E+02 0.553E+02 0.201E+01   0.181E+01 -.549E+01 -.182E+00
   -.344E+02 -.165E+02 -.272E+02   0.386E+02 0.181E+02 0.307E+02   -.427E+01 -.166E+01 -.355E+01
   0.344E+02 0.165E+02 -.272E+02   -.386E+02 -.181E+02 0.307E+02   0.427E+01 0.166E+01 -.355E+01
   -.344E+02 0.165E+02 -.272E+02   0.386E+02 -.181E+02 0.307E+02   -.427E+01 0.166E+01 -.355E+01
   0.344E+02 0.165E+02 0.272E+02   -.386E+02 -.181E+02 -.307E+02   0.427E+01 0.166E+01 0.355E+01
   -.344E+02 -.165E+02 0.272E+02   0.386E+02 0.181E+02 -.307E+02   -.427E+01 -.166E+01 0.355E+01
   0.344E+02 -.165E+02 0.272E+02   -.386E+02 0.181E+02 -.307E+02   0.427E+01 -.166E+01 0.355E+01
   0.187E+02 -.319E+02 0.328E+02   -.210E+02 0.355E+02 -.366E+02   0.235E+01 -.369E+01 0.382E+01
   -.187E+02 0.319E+02 0.328E+02   0.210E+02 -.355E+02 -.366E+02   -.235E+01 0.369E+01 0.382E+01
   0.187E+02 0.319E+02 0.328E+02   -.210E+02 -.355E+02 -.366E+02   0.235E+01 0.369E+01 0.382E+01
   -.187E+02 0.319E+02 -.328E+02   0.210E+02 -.355E+02 0.366E+02   -.235E+01 0.369E+01 -.382E+01
   0.187E+02 -.319E+02 -.328E+02   -.210E+02 0.355E+02 0.366E+02   0.235E+01 -.369E+01 -.382E+01
   -.187E+02 -.319E+02 -.328E+02   0.210E+02 0.355E+02 0.366E+02   -.235E+01 -.369E+01 -.382E+01
 -----------------------------------------------------------------------------------------------
   -.219E-03 0.485E-03 0.322E-03   0.114E-12 0.711E-14 0.213E-13   0.000E+00 0.444E-15 0.222E-14


 POSITION                                       TOTAL-FORCE (eV/Angst)
 -----------------------------------------------------------------------------------
      6.94635      1.32482      6.76646        -0.085051      0.265069     -0.005495
      6.37040      0.42622      0.85894        -0.200482      0.085738      0.162505
      0.57262      0.89722      5.90791         0.112348      0.180452     -0.180888
      6.81738      8.52278      0.90209        -0.112348     -0.180452      0.180888
      1.01960      8.99378      5.95106         0.200482     -0.085738     -0.162505
      0.44365      8.09518      0.04354         0.085051     -0.265069      0.005495
      4.13865      6.03482      6.76646         0.085051      0.265069     -0.005495
      6.94635      3.38518      3.36146        -0.085051     -0.265069     -0.005495
      4.13865      8.09518      3.36146         0.085051     -0.265069     -0.005495
      3.25135      3.38518      0.04354        -0.085051     -0.265069      0.005495
      0.44365      6.03482      3.44854         0.085051      0.265069      0.005495
      3.25135      1.32482      3.44854        -0.085051      0.265069      0.005495
      4.71460      5.13622      0.85894         0.200482      0.085738      0.162505
      6.37040      4.28378      4.26394        -0.200482     -0.085738      0.162505
      4.71460      8.99378      4.26394         0.200482     -0.085738      0.162505
      2.67540      4.28378      5.95106        -0.200482     -0.085738     -0.162505
      1.01960      5.13622      2.54606         0.200482      0.085738     -0.162505
      2.67540      0.42622      2.54606        -0.200482      0.085738     -0.162505
      3.12238      5.60722      5.90791        -0.112348      0.180452     -0.180888
      0.57262      3.81278      2.50291         0.112348     -0.180452     -0.180888
      3.12238      8.52278      2.50291        -0.112348     -0.180452     -0.180888
      4.26762      3.81278      0.90209         0.112348     -0.180452      0.180888
      6.81738      5.60722      4.30709        -0.112348      0.180452      0.180888
      4.26762      0.89722      4.30709         0.112348      0.180452      0.180888
      6.60387      2.35961      6.73054        -0.013528      0.002197      0.000195
      5.56968      0.74692      1.52594        -0.011993      0.001287      0.022799
      1.01434      1.59340      5.19626         0.012925      0.011259     -0.006542
      6.37566      7.82660      1.61374        -0.012925     -0.011259      0.006542
      1.82032      8.67308      5.28406         0.011993     -0.001287     -0.022799
      0.78613      7.06039      0.07946         0.013528     -0.002197     -0.000195
      4.48113      7.06961      6.73054         0.013528      0.002197      0.000195
      6.60387      2.35039      3.32554        -0.013528     -0.002197      0.000195
      4.48113      7.06039      3.32554         0.013528     -0.002197      0.000195
      2.90887      2.35039      0.07946        -0.013528     -0.002197     -0.000195
      0.78613      7.06961      3.48446         0.013528      0.002197     -0.000195
      2.90887      2.35961      3.48446        -0.013528      0.002197     -0.000195
      5.51532      5.45692      1.52594         0.011993      0.001287      0.022799
      5.56968      3.96308      4.93094        -0.011993     -0.001287      0.022799
      5.51532      8.67308      4.93094         0.011993     -0.001287      0.022799
      1.87468      3.96308      5.28406        -0.011993     -0.001287     -0.022799
      1.82032      5.45692      1.87906         0.011993      0.001287     -0.022799
      1.87468      0.74692      1.87906        -0.011993      0.001287     -0.022799
      2.68066      6.30340      5.19626        -0.012925      0.011259     -0.006542
      1.01434      3.11660      1.79126         0.012925     -0.011259     -0.006542
      2.68066      7.82660      1.79126        -0.012925     -0.011259     -0.006542
      4.70934      3.11660      1.61374         0.012925     -0.011259      0.006542
      6.37566      6.30340      5.01874        -0.012925      0.011259      0.006542
      4.70934      1.59340      5.01874         0.012925      0.011259      0.006542
 -----------------------------------------------------------------------------------
    total drift:                               -0.000219      0.000485      0.000322


--------------------------------------------------------------------------------------------------------



  FREE ENERGIE OF THE ION-ELECTRON SYSTEM (eV)
  ---------------------------------------------------
  free  energy   TOTEN  =      -301.95718434 eV

  energy  without entropy=     -301.95718434  energy(sigma->0) =     -301.95718434



--------------------------------------------------------------------------------------------------------


    POTLOK:  cpu time      0.0422: real time      0.0422


--------------------------------------------------------------------------------------------------------


 stress matrix after NEB project (eV)
     -5.82149      0.00000      0.00000
      0.00000     -4.06555      0.00000
      0.00000      0.00000     -5.77022
  FORCES: max atom, RMS     0.279116    0.196033
  FORCE total and by dimension    1.358153    0.265069
  Stress total and by dimension    9.149527    5.821487
     LOOP+:  cpu time    217.9578: real time    218.2651
    4ORBIT:  cpu time      0.0000: real time      0.0000

 total amount of memory used by VASP MPI-rank0   119490. kBytes
=======================================================================

   base      :      30000. kBytes
   nonl-proj :      52690. kBytes
   fftplans  :       9097. kBytes
   grid      :      12591. kBytes
   one-center:         73. kBytes
   wavefun   :      15039. kBytes

  
  
 General timing and accounting informations for this job:
 ========================================================
  
                  Total CPU time used (sec):      278.325
                            User time (sec):      247.235
                          System time (sec):       31.090
                         Elapsed time (sec):      336.000
  
                   Maximum memory used (kb):      392360.
                   Average memory used (kb):          N/A
  
                          Minor page faults:        80146
                          Major page faults:         1167
                 Voluntary context switches:       202247
