 vasp.6.4.1 05Apr23 (build Jun  6 2023 14:36:51) complex                         
 executed on        HPECrayEX_GCC date 2024.08.20  14:32:52
 running  256 mpi-ranks, with    1 threads/rank, on    2 nodes
 distrk:  each k-point on  256 cores,    1 groups
 distr:  one band on NCORE=  64 cores,    4 groups


--------------------------------------------------------------------------------------------------------


 INCAR:
   ALGO = Conjugate
   NPAR = 4
   ISMEAR = 0
   SIGMA = 0.01
   PREC = Accurate
   EDIFF = 1E-7
   ENCUT = 1000
   ISIF = 0
   GGA = OR
   LUSE_VDW = .TRUE.
   AGGAC = 0.0000
   LASPH = .TRUE.
   LWAVE = .FALSE.
   LCHARGE = .FALSE.

 POTCAR:    PAW_PBE C_h 06Feb2004                 
 POTCAR:    PAW_PBE H_h 06Feb2004                 
 -----------------------------------------------------------------------------
|                                                                             |
|               ----> ADVICE to this user running VASP <----                  |
|                                                                             |
|     You have switched on vdW-DFT.                                           |
|     This routine was written and supplied by Jiri Klimes. We recommend      |
|     that you carefully read and cite the following publications:            |
|       J. Klimes, D.R. Bowler, A. Michelides                                 |
|          J. Phys.: Cond Matt. 22 022201 (2010)                              |
|       J. Klimes, D.R. Bowler, A. Michelides                                 |
|          Phys. Rev. B. 83, 195131 (2011)                                    |
|     and references therein.                                                 |
|                                                                             |
 -----------------------------------------------------------------------------

 POTCAR:    PAW_PBE C_h 06Feb2004                 
   VRHFIN =C: s2p2                                                                                  
   LEXCH  = PE                                                                                      
   EATOM  =   147.1560 eV,   10.8157 Ry                                                             
                                                                                                    
   TITEL  = PAW_PBE C_h 06Feb2004                                                                   
   LULTRA =        F    use ultrasoft PP ?                                                          
   IUNSCR =        1    unscreen: 0-lin 1-nonlin 2-no                                               
   RPACOR =    0.800    partial core radius                                                         
   POMASS =   12.011; ZVAL   =    4.000    mass and valenz                                          
   RCORE  =    1.100    outmost cutoff radius                                                       
   RWIGS  =    1.630; RWIGS  =    0.863    wigner-seitz radius (au A)                               
   ENMAX  =  700.000; ENMIN  =  500.000 eV                                                          
   ICORE  =        2    local potential                                                             
   LCOR   =        T    correct aug charges                                                         
   LPAW   =        T    paw PP                                                                      
   EAUG   =  946.768                                                                                
   DEXC   =    0.000                                                                                
   RMAX   =    1.128    core radius for proj-oper                                                   
   RAUG   =    1.300    factor for augmentation sphere                                              
   RDEP   =    1.162    radius for radial grids                                                     
   RDEPT  =    1.088    core radius for aug-charge                                                  
                                                                                                    
   Atomic configuration                                                                             
    4 entries                                                                                       
     n  l   j            E        occ.                                                              
     1  0  0.50      -273.3789   2.0000                                                             
     2  0  0.50       -13.7508   2.0000                                                             
     2  1  0.50        -5.2854   2.0000                                                             
     3  2  1.50        -5.4423   0.0000                                                             
   Description                                                                                      
     l       E           TYP  RCUT    TYP  RCUT                                                     
     0    -13.7508458     23  1.100                                                                 
     0     -8.2022199     23  1.100                                                                 
     1     -5.2854383     23  1.100                                                                 
     1      1.1560700     23  1.100                                                                 
     2     -5.4423304      7  1.100                                                                 
  local pseudopotential read in
  partial core-charges read in
  partial kinetic energy density read in
  atomic valenz-charges read in
  non local Contribution for L=           0  read in
    real space projection operators read in
  non local Contribution for L=           0  read in
    real space projection operators read in
  non local Contribution for L=           1  read in
    real space projection operators read in
  non local Contribution for L=           1  read in
    real space projection operators read in
    PAW grid and wavefunctions read in

   number of l-projection  operators is LMAX  =           4
   number of lm-projection operators is LMMAX =           8

 POTCAR:    PAW_PBE H_h 06Feb2004                 
   VRHFIN =H: ultrasoft test                                                                        
   LEXCH  = PE                                                                                      
   EATOM  =    12.4884 eV,    0.9179 Ry                                                             
                                                                                                    
   TITEL  = PAW_PBE H_h 06Feb2004                                                                   
   LULTRA =        F    use ultrasoft PP ?                                                          
   IUNSCR =        0    unscreen: 0-lin 1-nonlin 2-no                                               
   RPACOR =    0.000    partial core radius                                                         
   POMASS =    1.000; ZVAL   =    1.000    mass and valenz                                          
   RCORE  =    0.800    outmost cutoff radius                                                       
   RWIGS  =    0.700; RWIGS  =    0.370    wigner-seitz radius (au A)                               
   ENMAX  =  700.000; ENMIN  =  350.000 eV                                                          
   RCLOC  =    0.701    cutoff for local pot                                                        
   LCOR   =        T    correct aug charges                                                         
   LPAW   =        T    paw PP                                                                      
   EAUG   = 1000.000                                                                                
   RMAX   =    0.819    core radius for proj-oper                                                   
   RAUG   =    1.000    factor for augmentation sphere                                              
   RDEP   =    0.817    radius for radial grids                                                     
   RDEPT  =    0.817    core radius for aug-charge                                                  
                                                                                                    
   Atomic configuration                                                                             
    2 entries                                                                                       
     n  l   j            E        occ.                                                              
     1  0  0.50        -6.4927   1.0000                                                             
     2  1  0.50        -3.4015   0.0000                                                             
   Description                                                                                      
     l       E           TYP  RCUT    TYP  RCUT                                                     
     0     -6.4927493     23  0.800                                                                 
     0      6.8029130     23  0.800                                                                 
     1     -6.8029130     23  0.800                                                                 
  local pseudopotential read in
  atomic valenz-charges read in
  non local Contribution for L=           0  read in
    real space projection operators read in
  non local Contribution for L=           0  read in
    real space projection operators read in
  non local Contribution for L=           1  read in
    real space projection operators read in
    PAW grid and wavefunctions read in

   number of l-projection  operators is LMAX  =           3
   number of lm-projection operators is LMMAX =           5

 -----------------------------------------------------------------------------
|                                                                             |
|               ----> ADVICE to this user running VASP <----                  |
|                                                                             |
|     You have a (more or less) 'large supercell' and for larger cells it     |
|     might be more efficient to use real-space projection operators.         |
|     Therefore, try LREAL= Auto in the INCAR file.                           |
|     Mind: For very accurate calculation, you might also keep the            |
|     reciprocal projection scheme (i.e. LREAL=.FALSE.).                      |
|                                                                             |
 -----------------------------------------------------------------------------

 -----------------------------------------------------------------------------
|                                                                             |
|               ----> ADVICE to this user running VASP <----                  |
|                                                                             |
|     You enforced a specific xc type in the INCAR file but a different       |
|     type was found in the POTCAR file.                                      |
|     I HOPE YOU KNOW WHAT YOU ARE DOING!                                     |
|                                                                             |
 -----------------------------------------------------------------------------

  PAW_PBE C_h 06Feb2004                 :
 energy of atom  1       EATOM= -147.1560
 kinetic energy error for atom=    0.0031 (will be added to EATOM!!)
  PAW_PBE H_h 06Feb2004                 :
 energy of atom  2       EATOM=  -12.4884
 kinetic energy error for atom=    0.0006 (will be added to EATOM!!)


 POSCAR:  C  H
  positions in cartesian coordinates
  No initial velocities read in
 exchange correlation table for  LEXCH =       41
   RHO(1)=    0.500       N(1)  =     2000
   RHO(2)=  100.500       N(2)  =     4000

 VTST: version 4.1, (05/19/21)

 CHAIN: initializing optimizer
 
 OPT: Using VASP Dynamics algorithm
 CHAIN: Read ICHAIN            0

 POSCAR:  C  H
  positions in cartesian coordinates
  No initial velocities read in



--------------------------------------------------------------------------------------------------------


 ion  position               nearest neighbor table
   1  0.940  0.141  0.994-  25 1.09   3 1.40   2 1.40
   2  0.862  0.045  0.126-  26 1.09   4 1.40   1 1.40
   3  0.077  0.095  0.868-  27 1.09   1 1.40   5 1.40
   4  0.923  0.905  0.132-  28 1.09   6 1.40   2 1.40
   5  0.138  0.955  0.874-  29 1.09   3 1.40   6 1.40
   6  0.060  0.859  0.006-  30 1.09   4 1.40   5 1.40
   7  0.560  0.641  0.994-  31 1.09  19 1.40  13 1.40
   8  0.940  0.359  0.494-  32 1.09  20 1.40  14 1.40
   9  0.560  0.859  0.494-  33 1.09  21 1.40  15 1.40
  10  0.440  0.359  0.006-  34 1.09  22 1.40  16 1.40
  11  0.060  0.641  0.506-  35 1.09  23 1.40  17 1.40
  12  0.440  0.141  0.506-  36 1.09  24 1.40  18 1.40
  13  0.638  0.545  0.126-  37 1.09  22 1.40   7 1.40
  14  0.862  0.455  0.626-  38 1.09  23 1.40   8 1.40
  15  0.638  0.955  0.626-  39 1.09  24 1.40   9 1.40
  16  0.362  0.455  0.874-  40 1.09  19 1.40  10 1.40
  17  0.138  0.545  0.374-  41 1.09  20 1.40  11 1.40
  18  0.362  0.045  0.374-  42 1.09  21 1.40  12 1.40
  19  0.423  0.595  0.868-  43 1.09   7 1.40  16 1.40
  20  0.077  0.405  0.368-  44 1.09   8 1.40  17 1.40
  21  0.423  0.905  0.368-  45 1.09   9 1.40  18 1.40
  22  0.577  0.405  0.132-  46 1.09  10 1.40  13 1.40
  23  0.923  0.595  0.632-  47 1.09  11 1.40  14 1.40
  24  0.577  0.095  0.632-  48 1.09  12 1.40  15 1.40
  25  0.894  0.250  0.988-   1 1.09
  26  0.754  0.079  0.224-   2 1.09
  27  0.137  0.169  0.763-   3 1.09
  28  0.863  0.831  0.237-   4 1.09
  29  0.246  0.921  0.776-   5 1.09
  30  0.106  0.750  0.012-   6 1.09
  31  0.606  0.750  0.988-   7 1.09
  32  0.894  0.250  0.488-   8 1.09
  33  0.606  0.750  0.488-   9 1.09
  34  0.394  0.250  0.012-  10 1.09
  35  0.106  0.750  0.512-  11 1.09
  36  0.394  0.250  0.512-  12 1.09
  37  0.746  0.579  0.224-  13 1.09
  38  0.754  0.421  0.724-  14 1.09
  39  0.746  0.921  0.724-  15 1.09
  40  0.254  0.421  0.776-  16 1.09
  41  0.246  0.579  0.276-  17 1.09
  42  0.254  0.079  0.276-  18 1.09
  43  0.363  0.669  0.763-  19 1.09
  44  0.137  0.331  0.263-  20 1.09
  45  0.363  0.831  0.263-  21 1.09
  46  0.637  0.331  0.237-  22 1.09
  47  0.863  0.669  0.737-  23 1.09
  48  0.637  0.169  0.737-  24 1.09

  LATTYP: Found a simple orthorhombic cell.
 ALAT       =     6.8100000000
 B/A-ratio  =     1.0851688693
 C/A-ratio  =     1.3832599119
  
  Lattice vectors:
  
 A1 = (   0.0000000000,   0.0000000000,   6.8100000000)
 A2 = (   7.3900000000,   0.0000000000,   0.0000000000)
 A3 = (   0.0000000000,   9.4200000000,   0.0000000000)


Analysis of symmetry for initial positions (statically):
=====================================================================
 Subroutine PRICEL returns:
 Original cell was already a primitive cell.
 

 Routine SETGRP: Setting up the symmetry group for a 
 simple orthorhombic supercell.


 Subroutine GETGRP returns: Found  8 space group operations
 (whereof  2 operations were pure point group operations)
 out of a pool of  8 trial point group operations.


The static configuration has the point symmetry S_2 .
 The point group associated with its full space group is D_2h.


Analysis of symmetry for dynamics (positions and initial velocities):
=====================================================================
 Subroutine PRICEL returns:
 Original cell was already a primitive cell.
 

 Routine SETGRP: Setting up the symmetry group for a 
 simple orthorhombic supercell.


 Subroutine GETGRP returns: Found  8 space group operations
 (whereof  2 operations were pure point group operations)
 out of a pool of  8 trial point group operations.


The dynamic configuration has the point symmetry S_2 .
 The point group associated with its full space group is D_2h.


 Subroutine INISYM returns: Found  8 space group operations
 (whereof  2 operations are pure point group operations),
 and found     1 'primitive' translations


----------------------------------------------------------------------------------------

                                     Primitive cell                                     

  volume of cell :     474.0700

  direct lattice vectors                    reciprocal lattice vectors
     7.390000000  0.000000000  0.000000000     0.135317997  0.000000000  0.000000000
     0.000000000  9.420000000  0.000000000     0.000000000  0.106157113  0.000000000
     0.000000000  0.000000000  6.810000000     0.000000000  0.000000000  0.146842878

  length of vectors
     7.390000000  9.420000000  6.810000000     0.135317997  0.106157113  0.146842878

  position of ions in fractional coordinates (direct lattice)
     0.939965748  0.140638731  0.993606209
     0.862030042  0.045245888  0.126129911
     0.077486319  0.095246789  0.867533964
     0.922513685  0.904753210  0.132466047
     0.137969958  0.954754112  0.873870093
     0.060034259  0.859361269  0.006393801
     0.560034252  0.640638712  0.993606208
     0.939965742  0.359361274  0.493606194
     0.560034239  0.859361268  0.493606227
     0.439965754  0.359361285  0.006393791
     0.060034252  0.640638726  0.506393804
     0.439965756  0.140638729  0.506393782
     0.637969954  0.545245885  0.126129906
     0.862030046  0.454754108  0.626129912
     0.637969968  0.954754108  0.626129917
     0.362030046  0.454754112  0.873870099
     0.137969954  0.545245892  0.373870092
     0.362030033  0.045245889  0.373870086
     0.422513687  0.595246769  0.867533975
     0.077486310  0.404753218  0.367533955
     0.422513672  0.904753212  0.367533983
     0.577486317  0.404753229  0.132466023
     0.922513687  0.595246781  0.632466042
     0.577486325  0.095246786  0.632466028
     0.893622965  0.250489199  0.988332432
     0.753677989  0.079290863  0.224073273
     0.137258568  0.169150403  0.763033654
     0.862741433  0.830849596  0.236966350
     0.246322011  0.920709136  0.775926731
     0.106377036  0.749510799  0.011667572
     0.606377034  0.750489211  0.988332430
     0.893622961  0.249510795  0.488332423
     0.606377041  0.749510789  0.488332433
     0.393622966  0.249510788  0.011667574
     0.106377039  0.750489203  0.511667581
     0.393622959  0.250489210  0.511667571
     0.746321999  0.579290863  0.224073263
     0.753677995  0.420709131  0.724073263
     0.746322000  0.920709137  0.724073257
     0.253678001  0.420709135  0.775926741
     0.246322006  0.579290868  0.275926741
     0.253678001  0.079290861  0.275926747
     0.362741433  0.669150397  0.763033648
     0.137258570  0.330849605  0.263033644
     0.362741424  0.830849591  0.263033641
     0.637258567  0.330849600  0.236966356
     0.862741431  0.669150394  0.736966360
     0.637258576  0.169150407  0.736966362

  ion indices of the primitive-cell ions
   primitive index   ion index
                 1           1
                 2           2
                 3           3
                 4           4
                 5           5
                 6           6
                 7           7
                 8           8
                 9           9
                10          10
                11          11
                12          12
                13          13
                14          14
                15          15
                16          16
                17          17
                18          18
                19          19
                20          20
                21          21
                22          22
                23          23
                24          24
                25          25
                26          26
                27          27
                28          28
                29          29
                30          30
                31          31
                32          32
                33          33
                34          34
                35          35
                36          36
                37          37
                38          38
                39          39
                40          40
                41          41
                42          42
                43          43
                44          44
                45          45
                46          46
                47          47
                48          48

----------------------------------------------------------------------------------------



 KPOINTS: auto                                    

Automatic generation of k-mesh.
 Grid dimensions read from file:
 generate k-points for:    4    3    4

 Generating k-lattice:

  Cartesian coordinates                     Fractional coordinates (reciprocal lattice)
     0.033829499  0.000000000  0.000000000     0.250000000  0.000000000  0.000000000
     0.000000000  0.035385704  0.000000000     0.000000000  0.333333333  0.000000000
     0.000000000  0.000000000  0.036710720     0.000000000  0.000000000  0.250000000

  Length of vectors
     0.033829499  0.035385704  0.036710720

  Shift w.r.t. Gamma in fractional coordinates (k-lattice)
     0.000000000  0.000000000  0.000000000

 
 Subroutine IBZKPT returns following result:
 ===========================================
 
 Found     18 irreducible k-points:
 
 Following reciprocal coordinates:
            Coordinates               Weight
  0.000000  0.000000  0.000000      1.000000
  0.250000  0.000000  0.000000      2.000000
  0.500000  0.000000  0.000000      1.000000
  0.000000  0.333333  0.000000      2.000000
  0.250000  0.333333  0.000000      4.000000
  0.500000  0.333333  0.000000      2.000000
  0.000000  0.000000  0.250000      2.000000
  0.250000  0.000000  0.250000      4.000000
  0.500000  0.000000  0.250000      2.000000
  0.000000  0.333333  0.250000      4.000000
  0.250000  0.333333  0.250000      8.000000
  0.500000  0.333333  0.250000      4.000000
  0.000000  0.000000  0.500000      1.000000
  0.250000  0.000000  0.500000      2.000000
  0.500000  0.000000  0.500000      1.000000
  0.000000  0.333333  0.500000      2.000000
  0.250000  0.333333  0.500000      4.000000
  0.500000  0.333333  0.500000      2.000000
 
 Following cartesian coordinates:
            Coordinates               Weight
  0.000000  0.000000  0.000000      1.000000
  0.033829  0.000000  0.000000      2.000000
  0.067659  0.000000  0.000000      1.000000
  0.000000  0.035386  0.000000      2.000000
  0.033829  0.035386  0.000000      4.000000
  0.067659  0.035386  0.000000      2.000000
  0.000000  0.000000  0.036711      2.000000
  0.033829  0.000000  0.036711      4.000000
  0.067659  0.000000  0.036711      2.000000
  0.000000  0.035386  0.036711      4.000000
  0.033829  0.035386  0.036711      8.000000
  0.067659  0.035386  0.036711      4.000000
  0.000000  0.000000  0.073421      1.000000
  0.033829  0.000000  0.073421      2.000000
  0.067659  0.000000  0.073421      1.000000
  0.000000  0.035386  0.073421      2.000000
  0.033829  0.035386  0.073421      4.000000
  0.067659  0.035386  0.073421      2.000000
 


--------------------------------------------------------------------------------------------------------




 Dimension of arrays:
   k-points           NKPTS =     18   k-points in BZ     NKDIM =     18   number of bands    NBANDS=     88
   number of dos      NEDOS =    301   number of ions     NIONS =     48
   non local maximal  LDIM  =      4   non local SUM 2l+1 LMDIM =      8
   total plane-waves  NPLWV = 548800
   max r-space proj   IRMAX =      1   max aug-charges    IRDMAX=   7878
   dimension x,y,z NGX =    80 NGY =   98 NGZ =   70
   dimension x,y,z NGXF=   160 NGYF=  196 NGZF=  140
   support grid    NGXF=   160 NGYF=  196 NGZF=  140
   ions per type =              24  24
   NGX,Y,Z   is equivalent  to a cutoff of  18.00, 17.30, 17.09 a.u.
   NGXF,Y,Z  is equivalent  to a cutoff of  35.99, 34.59, 34.18 a.u.

 SYSTEM =  unknown system                          
 POSCAR =   C  H                                   

 Startparameter for this run:
   NWRITE =      2    write-flag & timer
   PREC   = accura    normal or accurate (medium, high low for compatibility)
   ISTART =      0    job   : 0-new  1-cont  2-samecut
   ICHARG =      2    charge: 1-file 2-atom 10-const
   ISPIN  =      1    spin polarized calculation?
   LNONCOLLINEAR =      F non collinear calculations
   LSORBIT =      F    spin-orbit coupling
   INIWAV =      1    electr: 0-lowe 1-rand  2-diag
   LASPH  =      T    aspherical Exc in radial PAW
 Electronic Relaxation 1
   ENCUT  = 1000.0 eV  73.50 Ry    8.57 a.u.  19.05 24.29 17.56*2*pi/ulx,y,z
   ENINI  = 1000.0     initial cutoff
   ENAUG  = 1000.0 eV  augmentation charge cutoff
   NELM   =     60;   NELMIN=  2; NELMDL= -5     # of ELM steps 
   EDIFF  = 0.1E-06   stopping-criterion for ELM
   LREAL  =      F    real-space projection
   NLSPLINE    = F    spline interpolate recip. space projectors
   LCOMPAT=      F    compatible to vasp.4.4
   GGA_COMPAT  = T    GGA compatible to vasp.4.4-vasp.4.6
   LMAXPAW     = -100 max onsite density
   LMAXMIX     =    2 max onsite mixed and CHGCAR
   VOSKOWN=      0    Vosko Wilk Nusair interpolation
   ROPT   =    0.00000   0.00000
 Ionic relaxation
   EDIFFG = 0.1E-05   stopping-criterion for IOM
   NSW    =      0    number of steps for IOM
   NBLOCK =      1;   KBLOCK =      1    inner block; outer block 
   IBRION =     -1    ionic relax: 0-MD 1-quasi-New 2-CG
   NFREE  =      0    steps in history (QN), initial steepest desc. (CG)
   ISIF   =      0    stress and relaxation
   IWAVPR =     10    prediction:  0-non 1-charg 2-wave 3-comb
   ISYM   =      2    0-nonsym 1-usesym 2-fastsym
   LCORR  =      T    Harris-Foulkes like correction to forces

   POTIM  = 0.5000    time-step for ionic-motion
   TEIN   =    0.0    initial temperature
   TEBEG  =    0.0;   TEEND  =   0.0 temperature during run
   SMASS  =  -3.00    Nose mass-parameter (am)
   estimated Nose-frequenzy (Omega)   =  0.10E-29 period in steps = 0.13E+47 mass=  -0.125E-26a.u.
   SCALEE = 1.0000    scale energy and forces
   NPACO  =    256;   APACO  = 10.0  distance and # of slots for P.C.
   PSTRESS=    0.0 pullay stress

  Mass of Ions in am
   POMASS =  12.01  1.00
  Ionic Valenz
   ZVAL   =   4.00  1.00
  Atomic Wigner-Seitz radii
   RWIGS  =  -1.00 -1.00
  virtual crystal weights 
   VCA    =   1.00  1.00
   NELECT =     120.0000    total number of electrons
   NUPDOWN=      -1.0000    fix difference up-down

 DOS related values:
   EMIN   =  10.00;   EMAX   =-10.00  energy-range for DOS
   EFERMI =   0.00;   METHOD = LEGACY      
   ISMEAR =     0;   SIGMA  =   0.01  broadening in eV -4-tet -1-fermi 0-gaus

 Electronic relaxation 2 (details)
   IALGO  =     58    algorithm
   LDIAG  =      T    sub-space diagonalisation (order eigenvalues)
   LSUBROT=      F    optimize rotation matrix (better conditioning)
   TURBO    =      0    0=normal 1=particle mesh
   IRESTART =      0    0=no restart 2=restart with 2 vectors
   NREBOOT  =      0    no. of reboots
   NMIN     =      0    reboot dimension
   EREF     =   0.00    reference energy to select bands
   IMIX   =      4    mixing-type and parameters
     AMIX     =   0.40;   BMIX     =  1.00
     AMIX_MAG =   1.60;   BMIX_MAG =  1.00
     AMIN     =   0.10
     WC   =   100.;   INIMIX=   1;  MIXPRE=   1;  MAXMIX= -45

 Intra band minimization:
   WEIMIN = 0.0000     energy-eigenvalue tresh-hold
   EBREAK =  0.28E-09  absolut break condition
   DEPER  =   0.30     relativ break condition  

   TIME   =   0.40     timestep for ELM

  volume/ion in A,a.u.               =       9.88        66.65
  Fermi-wavevector in a.u.,A,eV,Ry     =   1.035590  1.956981 14.591517  1.072446
  Thomas-Fermi vector in A             =   2.169940

 Write flags
   LWAVE        =      F    write WAVECAR
   LDOWNSAMPLE  =      F    k-point downsampling of WAVECAR
   LCHARG       =      T    write CHGCAR
   LVTOT        =      F    write LOCPOT, total local potential
   LVHAR        =      F    write LOCPOT, Hartree potential only
   LELF         =      F    write electronic localiz. function (ELF)
   LORBIT       =      0    0 simple, 1 ext, 2 COOP (PROOUT), +10 PAW based schemes


 Dipole corrections
   LMONO  =      F    monopole corrections only (constant potential shift)
   LDIPOL =      F    correct potential (dipole corrections)
   IDIPOL =      0    1-x, 2-y, 3-z, 4-all directions 
   EPSILON=  1.0000000 bulk dielectric constant

 Exchange correlation treatment:
   GGA     =    OR    GGA type
   LEXCH   =    41    internal setting for exchange type
   LIBXC   =     F    Libxc                    
   VOSKOWN =     0    Vosko Wilk Nusair interpolation
   LHFCALC =     F    Hartree Fock is set to
   LHFONE  =     F    Hartree Fock one center treatment
   AEXX    =    0.0000 exact exchange contribution

 vdW DFT:
   LUSE_VDW   =     T    switch on vdW DFT
   IVDW_NL    =     1    kernel type
   LSPIN_VDW  =     F    use spin-polarized vdW DFT
   Zab_VDW    =-.8491    correlation parameter
   PARAM1     =0.1234
   PARAM2     =1.0000
   PARAM3     =0.0000
   -- rVV10 --
   BPARAM     = 6.3000
   CPARAM     = 0.0093

 Linear response parameters
   LEPSILON=     F    determine dielectric tensor
   LRPA    =     F    only Hartree local field effects (RPA)
   LNABLA  =     F    use nabla operator in PAW spheres
   LVEL    =     F    velocity operator in full k-point grid
   CSHIFT  =0.1000    complex shift for real part using Kramers Kronig
   OMEGAMAX=  -1.0    maximum frequency
   DEG_THRESHOLD= 0.2000000E-02 threshold for treating states as degnerate
   RTIME   =   -0.100 relaxation time in fs
  (WPLASMAI=    0.000 imaginary part of plasma frequency in eV, 0.658/RTIME)
   DFIELD  = 0.0000000 0.0000000 0.0000000 field for delta impulse in time

  Optional k-point grid parameters
   LKPOINTS_OPT  =     F    use optional k-point grid
   KPOINTS_OPT_MODE=     1    mode for optional k-point grid

 Orbital magnetization related:
   ORBITALMAG=     F  switch on orbital magnetization
   LCHIMAG   =     F  perturbation theory with respect to B field
   DQ        =  0.001000  dq finite difference perturbation B field
   LLRAUG    =     F  two centre corrections for induced B field
   LBONE     =     F  B-component reconstruction in AE one-centre
   LVGVCALC  =     T  calculate vGv susceptibility
   LVGVAPPL  =     F  apply vGv susceptibility instead of pGv for G=0

 Random number generation:
   RANDOM_GENERATOR = DEFAULT
   PCG_SEED         = not used


--------------------------------------------------------------------------------------------------------


 Static calculation
 charge density and potential will be updated during run
 non-spin polarized calculation
 Conjugate gradient for all bands (Freysoldt, et al. PRB 79, 241103 (2009))
 preconditioned conjugated gradient                                        
 perform sub-space diagonalisation
    before iterative eigenvector-optimisation
 modified Broyden-mixing scheme, WC =      100.0
 initial mixing is a Kerker type mixing with AMIX =  0.4000 and BMIX =      1.0000
 Hartree-type preconditioning will be used
 using additional bands           28
 reciprocal scheme for non local part
 use partial core corrections
 no Harris-corrections to forces 
 use gradient corrections 
 use of overlap-Matrix (Vanderbilt PP)
 Gauss-broadening in eV      SIGMA  =   0.01


--------------------------------------------------------------------------------------------------------


  energy-cutoff  :     1000.00
  volume of cell :      474.07
      direct lattice vectors                 reciprocal lattice vectors
     7.390000000  0.000000000  0.000000000     0.135317997  0.000000000  0.000000000
     0.000000000  9.420000000  0.000000000     0.000000000  0.106157113  0.000000000
     0.000000000  0.000000000  6.810000000     0.000000000  0.000000000  0.146842878

  length of vectors
     7.390000000  9.420000000  6.810000000     0.135317997  0.106157113  0.146842878



 k-points in units of 2pi/SCALE and weight: auto                                    
   0.00000000  0.00000000  0.00000000       0.021
   0.03382950  0.00000000  0.00000000       0.042
   0.06765900  0.00000000  0.00000000       0.021
   0.00000000  0.03538570  0.00000000       0.042
   0.03382950  0.03538570  0.00000000       0.083
   0.06765900  0.03538570  0.00000000       0.042
   0.00000000  0.00000000  0.03671072       0.042
   0.03382950  0.00000000  0.03671072       0.083
   0.06765900  0.00000000  0.03671072       0.042
   0.00000000  0.03538570  0.03671072       0.083
   0.03382950  0.03538570  0.03671072       0.167
   0.06765900  0.03538570  0.03671072       0.083
   0.00000000  0.00000000  0.07342144       0.021
   0.03382950  0.00000000  0.07342144       0.042
   0.06765900  0.00000000  0.07342144       0.021
   0.00000000  0.03538570  0.07342144       0.042
   0.03382950  0.03538570  0.07342144       0.083
   0.06765900  0.03538570  0.07342144       0.042

 k-points in reciprocal lattice and weights: auto                                    
   0.00000000  0.00000000  0.00000000       0.021
   0.25000000  0.00000000  0.00000000       0.042
   0.50000000  0.00000000  0.00000000       0.021
   0.00000000  0.33333333  0.00000000       0.042
   0.25000000  0.33333333  0.00000000       0.083
   0.50000000  0.33333333  0.00000000       0.042
   0.00000000  0.00000000  0.25000000       0.042
   0.25000000  0.00000000  0.25000000       0.083
   0.50000000  0.00000000  0.25000000       0.042
   0.00000000  0.33333333  0.25000000       0.083
   0.25000000  0.33333333  0.25000000       0.167
   0.50000000  0.33333333  0.25000000       0.083
   0.00000000  0.00000000  0.50000000       0.021
   0.25000000  0.00000000  0.50000000       0.042
   0.50000000  0.00000000  0.50000000       0.021
   0.00000000  0.33333333  0.50000000       0.042
   0.25000000  0.33333333  0.50000000       0.083
   0.50000000  0.33333333  0.50000000       0.042

 position of ions in fractional coordinates (direct lattice) 
   0.93996575  0.14063873  0.99360621
   0.86203004  0.04524589  0.12612991
   0.07748632  0.09524679  0.86753396
   0.92251369  0.90475321  0.13246605
   0.13796996  0.95475411  0.87387009
   0.06003426  0.85936127  0.00639380
   0.56003425  0.64063871  0.99360621
   0.93996574  0.35936127  0.49360619
   0.56003424  0.85936127  0.49360623
   0.43996575  0.35936128  0.00639379
   0.06003425  0.64063873  0.50639380
   0.43996576  0.14063873  0.50639378
   0.63796995  0.54524589  0.12612991
   0.86203005  0.45475411  0.62612991
   0.63796997  0.95475411  0.62612992
   0.36203005  0.45475411  0.87387010
   0.13796995  0.54524589  0.37387009
   0.36203003  0.04524589  0.37387009
   0.42251369  0.59524677  0.86753397
   0.07748631  0.40475322  0.36753396
   0.42251367  0.90475321  0.36753398
   0.57748632  0.40475323  0.13246602
   0.92251369  0.59524678  0.63246604
   0.57748632  0.09524679  0.63246603
   0.89362296  0.25048920  0.98833243
   0.75367799  0.07929086  0.22407327
   0.13725857  0.16915040  0.76303365
   0.86274143  0.83084960  0.23696635
   0.24632201  0.92070914  0.77592673
   0.10637704  0.74951080  0.01166757
   0.60637703  0.75048921  0.98833243
   0.89362296  0.24951080  0.48833242
   0.60637704  0.74951079  0.48833243
   0.39362297  0.24951079  0.01166757
   0.10637704  0.75048920  0.51166758
   0.39362296  0.25048921  0.51166757
   0.74632200  0.57929086  0.22407326
   0.75367799  0.42070913  0.72407326
   0.74632200  0.92070914  0.72407326
   0.25367800  0.42070914  0.77592674
   0.24632201  0.57929087  0.27592674
   0.25367800  0.07929086  0.27592675
   0.36274143  0.66915040  0.76303365
   0.13725857  0.33084960  0.26303364
   0.36274142  0.83084959  0.26303364
   0.63725857  0.33084960  0.23696636
   0.86274143  0.66915039  0.73696636
   0.63725858  0.16915041  0.73696636

 position of ions in cartesian coordinates  (Angst):
   6.94634688  1.32481685  6.76645828
   6.37040201  0.42621627  0.85894469
   0.57262390  0.89722475  5.90790629
   6.81737613  8.52277523  0.90209378
   1.01959799  8.99378373  5.95105534
   0.44365317  8.09518316  0.04354179
   4.13865312  6.03481667  6.76645828
   6.94634683  3.38518320  3.36145818
   4.13865302  8.09518314  3.36145840
   3.25134692  3.38518330  0.04354172
   0.44365312  6.03481680  3.44854181
   3.25134694  1.32481683  3.44854166
   4.71459796  5.13621624  0.85894466
   6.37040204  4.28378370  4.26394470
   4.71459806  8.99378370  4.26394474
   2.67540204  4.28378373  5.95105538
   1.01959796  5.13621630  2.54605532
   2.67540194  0.42621627  2.54605529
   3.12237615  5.60722456  5.90790637
   0.57262383  3.81277531  2.50290624
   3.12237604  8.52277526  2.50290643
   4.26762388  3.81277542  0.90209362
   6.81737614  5.60722467  4.30709374
   4.26762394  0.89722472  4.30709365
   6.60387371  2.35960826  6.73054386
   5.56968034  0.74691993  1.52593899
   1.01434081  1.59339679  5.19625918
   6.37565919  7.82660320  1.61374085
   1.82031966  8.67308006  5.28406104
   0.78612630  7.06039173  0.07945617
   4.48112628  7.06960836  6.73054385
   6.60387368  2.35039169  3.32554380
   4.48112633  7.06039163  3.32554387
   2.90887372  2.35039162  0.07945618
   0.78612632  7.06960829  3.48445623
   2.90887367  2.35960835  3.48445616
   5.51531957  5.45691993  1.52593892
   5.56968038  3.96308001  4.93093892
   5.51531958  8.67308007  4.93093888
   1.87468043  3.96308005  5.28406111
   1.82031962  5.45691998  1.87906111
   1.87468042  0.74691991  1.87906115
   2.68065919  6.30339674  5.19625914
   1.01434083  3.11660328  1.79125911
   2.68065912  7.82660315  1.79125910
   4.70934081  3.11660323  1.61374088
   6.37565917  6.30339671  5.01874091
   4.70934088  1.59339683  5.01874093



--------------------------------------------------------------------------------------------------------


 k-point   1 :   0.0000 0.0000 0.0000  plane waves:   33969
 k-point   2 :   0.2500 0.0000 0.0000  plane waves:   34052
 k-point   3 :   0.5000 0.0000 0.0000  plane waves:   34066
 k-point   4 :   0.0000 0.3333 0.0000  plane waves:   33996
 k-point   5 :   0.2500 0.3333 0.0000  plane waves:   34055
 k-point   6 :   0.5000 0.3333 0.0000  plane waves:   34066
 k-point   7 :   0.0000 0.0000 0.2500  plane waves:   34069
 k-point   8 :   0.2500 0.0000 0.2500  plane waves:   34038
 k-point   9 :   0.5000 0.0000 0.2500  plane waves:   34076
 k-point  10 :   0.0000 0.3333 0.2500  plane waves:   34040
 k-point  11 :   0.2500 0.3333 0.2500  plane waves:   34059
 k-point  12 :   0.5000 0.3333 0.2500  plane waves:   34026
 k-point  13 :   0.0000 0.0000 0.5000  plane waves:   34016
 k-point  14 :   0.2500 0.0000 0.5000  plane waves:   34052
 k-point  15 :   0.5000 0.0000 0.5000  plane waves:   34052
 k-point  16 :   0.0000 0.3333 0.5000  plane waves:   34014
 k-point  17 :   0.2500 0.3333 0.5000  plane waves:   34012
 k-point  18 :   0.5000 0.3333 0.5000  plane waves:   34040

 maximum and minimum number of plane-waves per node :       552      497

 maximum number of plane-waves:     34076
 maximum index in each direction: 
   IXMAX=   19   IYMAX=   24   IZMAX=   17
   IXMIN=  -19   IYMIN=  -24   IZMIN=  -18


 parallel 3D FFT for wavefunctions:
    minimum data exchange during FFTs selected (reduces bandwidth)
 parallel 3D FFT for charge:
    minimum data exchange during FFTs selected (reduces bandwidth)


 total amount of memory used by VASP MPI-rank0    45351. kBytes
=======================================================================

   base      :      30000. kBytes
   nonl-proj :       1634. kBytes
   fftplans  :       1347. kBytes
   grid      :       2104. kBytes
   one-center:          3. kBytes
   wavefun   :      10263. kBytes

     INWAV:  cpu time      0.0021: real time      0.0022
 Broyden mixing: mesh for mixing (old mesh)
   NGX = 39   NGY = 49   NGZ = 35
  (NGX  =160   NGY  =196   NGZ  =140)
  gives a total of  66885 points

 initial charge density was supplied:
 charge density of overlapping atoms calculated
 number of electron     120.0000000 magnetization 
 keeping initial charge density in first step


--------------------------------------------------------------------------------------------------------


 Maximum index for augmentation-charges          186 (set IRDMAX)


--------------------------------------------------------------------------------------------------------


 First call to EWALD:  gamma=   0.227
 Maximum number of real-space cells 3x 2x 3
 Maximum number of reciprocal cells 3x 3x 2

    FEWALD:  cpu time      0.0042: real time      0.0042


--------------------------------------- Ionic step        1  -------------------------------------------




--------------------------------------- Iteration      1(   1)  ---------------------------------------


vdW kernel read from vdw_kernel.bindat
  0.0000  0.2424  0.5071  0.7962  1.1119  1.4567  1.8333  2.2446  2.6937  3.1842
  3.7199  4.3049  4.9438  5.6415  6.4036  7.2358  8.1446  9.1372 10.2212 11.4050
 12.6979 14.1099 15.6519 17.3360 19.1751 21.1837 23.3773 25.7729 28.3892 31.2465
 34.3669 37.7748 41.4965 45.5611 50.0000

    POTLOK:  cpu time      1.4739: real time      1.4758
    SETDIJ:  cpu time      0.0713: real time      0.0718
    TRIAL :  cpu time      2.2065: real time      2.2086
    CORREC:  cpu time      0.0021: real time      0.0021
    --------------------------------------------
      LOOP:  cpu time      3.7584: real time      3.7628

 eigenvalue-minimisations  :  3168
 total energy-change (2. order) : 0.8418574E+03  (-0.8468184E+04)
 number of electron     120.0000000 magnetization 
 augmentation part      120.0000000 magnetization 

 Free energy of the ion-electron system (eV)
  ---------------------------------------------------
  alpha Z        PSCENC =        97.96435000
  Ewald energy   TEWEN  =     -1690.83155021
  -Hartree energ DENC   =     -1677.15023986
  -exchange      EXHF   =         0.00000000
  -V(xc)+E(xc)   XCENC  =       213.47741498
  PAW double counting   =      2779.04172592    -2641.48754602
  entropy T*S    EENTRO =        -0.00126994
  eigenvalues    EBANDS =      -117.28071151
  atomic energy  EATOM  =      3878.12520187
  ---------------------------------------------------
  free energy    TOTEN  =       841.85737523 eV

  energy without entropy =      841.85864517  energy(sigma->0) =      841.85801020


--------------------------------------------------------------------------------------------------------




--------------------------------------- Iteration      1(   2)  ---------------------------------------


    TRIAL :  cpu time      2.6181: real time      2.6192
    CORREC:  cpu time      0.0004: real time      0.0004
    --------------------------------------------
      LOOP:  cpu time      2.6319: real time      2.6489

 eigenvalue-minimisations  :  4120
 total energy-change (2. order) :-0.1000200E+04  (-0.9569527E+03)
 number of electron     120.0000000 magnetization 
 augmentation part      120.0000000 magnetization 

 Free energy of the ion-electron system (eV)
  ---------------------------------------------------
  alpha Z        PSCENC =        97.96435000
  Ewald energy   TEWEN  =     -1690.83155021
  -Hartree energ DENC   =     -1677.15023986
  -exchange      EXHF   =         0.00000000
  -V(xc)+E(xc)   XCENC  =       213.47741498
  PAW double counting   =      2779.04172592    -2641.48754602
  entropy T*S    EENTRO =        -0.00000000
  eigenvalues    EBANDS =     -1117.48173349
  atomic energy  EATOM  =      3878.12520187
  ---------------------------------------------------
  free energy    TOTEN  =      -158.34237681 eV

  energy without entropy =     -158.34237681  energy(sigma->0) =     -158.34237681


--------------------------------------------------------------------------------------------------------




--------------------------------------- Iteration      1(   3)  ---------------------------------------


    TRIAL :  cpu time      2.5189: real time      2.5204
    CORREC:  cpu time      0.0003: real time      0.0003
    --------------------------------------------
      LOOP:  cpu time      2.5322: real time      2.5500

 eigenvalue-minimisations  :  3936
 total energy-change (2. order) :-0.1383936E+03  (-0.1372508E+03)
 number of electron     120.0000000 magnetization 
 augmentation part      120.0000000 magnetization 

 Free energy of the ion-electron system (eV)
  ---------------------------------------------------
  alpha Z        PSCENC =        97.96435000
  Ewald energy   TEWEN  =     -1690.83155021
  -Hartree energ DENC   =     -1677.15023986
  -exchange      EXHF   =         0.00000000
  -V(xc)+E(xc)   XCENC  =       213.47741498
  PAW double counting   =      2779.04172592    -2641.48754602
  entropy T*S    EENTRO =        -0.00000000
  eigenvalues    EBANDS =     -1255.87536644
  atomic energy  EATOM  =      3878.12520187
  ---------------------------------------------------
  free energy    TOTEN  =      -296.73600976 eV

  energy without entropy =     -296.73600976  energy(sigma->0) =     -296.73600976


--------------------------------------------------------------------------------------------------------




--------------------------------------- Iteration      1(   4)  ---------------------------------------


    TRIAL :  cpu time      2.6098: real time      2.6108
    CORREC:  cpu time      0.0003: real time      0.0003
    --------------------------------------------
      LOOP:  cpu time      2.6370: real time      2.6381

 eigenvalue-minimisations  :  4136
 total energy-change (2. order) :-0.4974950E+01  (-0.4957471E+01)
 number of electron     120.0000000 magnetization 
 augmentation part      120.0000000 magnetization 

 Free energy of the ion-electron system (eV)
  ---------------------------------------------------
  alpha Z        PSCENC =        97.96435000
  Ewald energy   TEWEN  =     -1690.83155021
  -Hartree energ DENC   =     -1677.15023986
  -exchange      EXHF   =         0.00000000
  -V(xc)+E(xc)   XCENC  =       213.47741498
  PAW double counting   =      2779.04172592    -2641.48754602
  entropy T*S    EENTRO =        -0.00000000
  eigenvalues    EBANDS =     -1260.85031680
  atomic energy  EATOM  =      3878.12520187
  ---------------------------------------------------
  free energy    TOTEN  =      -301.71096012 eV

  energy without entropy =     -301.71096012  energy(sigma->0) =     -301.71096012


--------------------------------------------------------------------------------------------------------




--------------------------------------- Iteration      1(   5)  ---------------------------------------


    TRIAL :  cpu time      2.5885: real time      2.5902
    CORREC:  cpu time      0.0003: real time      0.0003
    CHARGE:  cpu time      0.2443: real time      0.2454
    --------------------------------------------
      LOOP:  cpu time      2.8452: real time      2.8644

 eigenvalue-minimisations  :  4072
 total energy-change (2. order) :-0.1596992E+00  (-0.1596077E+00)
 number of electron     120.0000001 magnetization 
 augmentation part       -0.0321524 magnetization 

 Free energy of the ion-electron system (eV)
  ---------------------------------------------------
  alpha Z        PSCENC =        97.96435000
  Ewald energy   TEWEN  =     -1690.83155021
  -Hartree energ DENC   =     -1677.15023986
  -exchange      EXHF   =         0.00000000
  -V(xc)+E(xc)   XCENC  =       213.47741498
  PAW double counting   =      2779.04172592    -2641.48754602
  entropy T*S    EENTRO =        -0.00000000
  eigenvalues    EBANDS =     -1261.01001596
  atomic energy  EATOM  =      3878.12520187
  ---------------------------------------------------
  free energy    TOTEN  =      -301.87065928 eV

  energy without entropy =     -301.87065928  energy(sigma->0) =     -301.87065928


--------------------------------------------------------------------------------------------------------




--------------------------------------- Iteration      1(   6)  ---------------------------------------


    POTLOK:  cpu time      0.8863: real time      0.8869
    SETDIJ:  cpu time      0.0653: real time      0.0653
    TRIAL :  cpu time      1.2708: real time      1.2728
    CORREC:  cpu time      1.6446: real time      1.6459
    CHARGE:  cpu time      0.1754: real time      0.1754
    --------------------------------------------
      LOOP:  cpu time      4.0542: real time      4.0753

 eigenvalue-minimisations  :     0
 total energy-change (2. order) : 0.5297692E+02  (-0.2078240E+02)
 number of electron     120.0000001 magnetization 
 augmentation part       -0.0727404 magnetization 

 Free energy of the ion-electron system (eV)
  ---------------------------------------------------
  alpha Z        PSCENC =        97.96435000
  Ewald energy   TEWEN  =     -1690.83155021
  -Hartree energ DENC   =     -2379.39959983
  -exchange      EXHF   =         0.00000000
  -V(xc)+E(xc)   XCENC  =       255.11594703
  PAW double counting   =     31543.05793229   -31409.96573250
  entropy T*S    EENTRO =        -0.00000000
  eigenvalues    EBANDS =      -542.96028617
  atomic energy  EATOM  =      3878.12520187
  ---------------------------------------------------
  free energy    TOTEN  =      -248.89373752 eV

  energy without entropy =     -248.89373752  energy(sigma->0) =     -248.89373752


--------------------------------------------------------------------------------------------------------




--------------------------------------- Iteration      1(   7)  ---------------------------------------


    POTLOK:  cpu time      0.8655: real time      0.8657
    SETDIJ:  cpu time      0.0648: real time      0.0648
    TRIAL :  cpu time      1.2382: real time      1.2385
    CORREC:  cpu time      1.6349: real time      1.6355
    CHARGE:  cpu time      0.1737: real time      0.1737
    --------------------------------------------
      LOOP:  cpu time      4.0061: real time      4.0073

 eigenvalue-minimisations  :     0
 total energy-change (2. order) :-0.2078162E+02  (-0.2321495E+01)
 number of electron     120.0000001 magnetization 
 augmentation part       -0.1067398 magnetization 

 Free energy of the ion-electron system (eV)
  ---------------------------------------------------
  alpha Z        PSCENC =        97.96435000
  Ewald energy   TEWEN  =     -1690.83155021
  -Hartree energ DENC   =     -2076.17831872
  -exchange      EXHF   =         0.00000000
  -V(xc)+E(xc)   XCENC  =       239.39156407
  PAW double counting   =     40674.99285935   -40539.73545837
  entropy T*S    EENTRO =        -0.00000000
  eigenvalues    EBANDS =      -853.40400440
  atomic energy  EATOM  =      3878.12520187
  ---------------------------------------------------
  free energy    TOTEN  =      -269.67535640 eV

  energy without entropy =     -269.67535640  energy(sigma->0) =     -269.67535640


--------------------------------------------------------------------------------------------------------




--------------------------------------- Iteration      1(   8)  ---------------------------------------


    POTLOK:  cpu time      0.8540: real time      0.8542
    SETDIJ:  cpu time      0.0648: real time      0.0648
    TRIAL :  cpu time      1.2406: real time      1.2409
    CORREC:  cpu time      1.6779: real time      1.6786
    CHARGE:  cpu time      0.1747: real time      0.1747
    --------------------------------------------
      LOOP:  cpu time      4.0270: real time      4.0430

 eigenvalue-minimisations  :     0
 total energy-change (2. order) :-0.2306977E+01  (-0.7772089E+00)
 number of electron     120.0000000 magnetization 
 augmentation part       -0.1072216 magnetization 

 Free energy of the ion-electron system (eV)
  ---------------------------------------------------
  alpha Z        PSCENC =        97.96435000
  Ewald energy   TEWEN  =     -1690.83155021
  -Hartree energ DENC   =     -2063.17047957
  -exchange      EXHF   =         0.00000000
  -V(xc)+E(xc)   XCENC  =       239.10179813
  PAW double counting   =     43541.07697048   -43405.56141602
  entropy T*S    EENTRO =        -0.00000000
  eigenvalues    EBANDS =      -868.68720838
  atomic energy  EATOM  =      3878.12520187
  ---------------------------------------------------
  free energy    TOTEN  =      -271.98233371 eV

  energy without entropy =     -271.98233371  energy(sigma->0) =     -271.98233371


--------------------------------------------------------------------------------------------------------




--------------------------------------- Iteration      1(   9)  ---------------------------------------


    POTLOK:  cpu time      0.8580: real time      0.8583
    SETDIJ:  cpu time      0.0647: real time      0.0647
    TRIAL :  cpu time      1.2389: real time      1.2392
    CORREC:  cpu time      1.6744: real time      1.6751
    CHARGE:  cpu time      0.1749: real time      0.1749
    --------------------------------------------
      LOOP:  cpu time      4.0235: real time      4.0419

 eigenvalue-minimisations  :     0
 total energy-change (2. order) :-0.7643251E+00  (-0.2104005E+00)
 number of electron     120.0000000 magnetization 
 augmentation part       -0.1072014 magnetization 

 Free energy of the ion-electron system (eV)
  ---------------------------------------------------
  alpha Z        PSCENC =        97.96435000
  Ewald energy   TEWEN  =     -1690.83155021
  -Hartree energ DENC   =     -2046.75608228
  -exchange      EXHF   =         0.00000000
  -V(xc)+E(xc)   XCENC  =       238.30154458
  PAW double counting   =     43448.98838922   -43313.35549029
  entropy T*S    EENTRO =        -0.00000000
  eigenvalues    EBANDS =      -885.18302172
  atomic energy  EATOM  =      3878.12520187
  ---------------------------------------------------
  free energy    TOTEN  =      -272.74665882 eV

  energy without entropy =     -272.74665882  energy(sigma->0) =     -272.74665882


--------------------------------------------------------------------------------------------------------




--------------------------------------- Iteration      1(  10)  ---------------------------------------


    POTLOK:  cpu time      0.8569: real time      0.8571
    SETDIJ:  cpu time      0.0661: real time      0.0661
    TRIAL :  cpu time      1.2945: real time      1.2948
    CORREC:  cpu time      1.6323: real time      1.6330
    CHARGE:  cpu time      0.1763: real time      0.1763
    --------------------------------------------
      LOOP:  cpu time      4.0387: real time      4.0568

 eigenvalue-minimisations  :     0
 total energy-change (2. order) :-0.2092076E+00  (-0.4021582E-01)
 number of electron     120.0000000 magnetization 
 augmentation part       -0.1073057 magnetization 

 Free energy of the ion-electron system (eV)
  ---------------------------------------------------
  alpha Z        PSCENC =        97.96435000
  Ewald energy   TEWEN  =     -1690.83155021
  -Hartree energ DENC   =     -2043.04067566
  -exchange      EXHF   =         0.00000000
  -V(xc)+E(xc)   XCENC  =       238.05823721
  PAW double counting   =     42301.71047776   -42166.12327083
  entropy T*S    EENTRO =        -0.00000000
  eigenvalues    EBANDS =      -888.81863654
  atomic energy  EATOM  =      3878.12520187
  ---------------------------------------------------
  free energy    TOTEN  =      -272.95586640 eV

  energy without entropy =     -272.95586640  energy(sigma->0) =     -272.95586640


--------------------------------------------------------------------------------------------------------




--------------------------------------- Iteration      1(  11)  ---------------------------------------


    POTLOK:  cpu time      0.8802: real time      0.8804
    SETDIJ:  cpu time      0.0647: real time      0.0647
    TRIAL :  cpu time      1.2387: real time      1.2390
    CORREC:  cpu time      1.6312: real time      1.6320
    CHARGE:  cpu time      0.1810: real time      0.1810
    --------------------------------------------
      LOOP:  cpu time      4.0081: real time      4.0269

 eigenvalue-minimisations  :     0
 total energy-change (2. order) :-0.4018074E-01  (-0.8269119E-02)
 number of electron     120.0000000 magnetization 
 augmentation part       -0.1072841 magnetization 

 Free energy of the ion-electron system (eV)
  ---------------------------------------------------
  alpha Z        PSCENC =        97.96435000
  Ewald energy   TEWEN  =     -1690.83155021
  -Hartree energ DENC   =     -2044.10406147
  -exchange      EXHF   =         0.00000000
  -V(xc)+E(xc)   XCENC  =       238.04465566
  PAW double counting   =     41889.62863547   -41754.08039724
  entropy T*S    EENTRO =        -0.00000000
  eigenvalues    EBANDS =      -887.74288124
  atomic energy  EATOM  =      3878.12520187
  ---------------------------------------------------
  free energy    TOTEN  =      -272.99604715 eV

  energy without entropy =     -272.99604715  energy(sigma->0) =     -272.99604715


--------------------------------------------------------------------------------------------------------




--------------------------------------- Iteration      1(  12)  ---------------------------------------


    POTLOK:  cpu time      0.8554: real time      0.8557
    SETDIJ:  cpu time      0.0647: real time      0.0647
    TRIAL :  cpu time      1.2373: real time      1.2377
    CORREC:  cpu time      1.6319: real time      1.6327
    CHARGE:  cpu time      0.1745: real time      0.1745
    --------------------------------------------
      LOOP:  cpu time      3.9930: real time      3.9946

 eigenvalue-minimisations  :     0
 total energy-change (2. order) :-0.8268355E-02  (-0.1688607E-02)
 number of electron     120.0000000 magnetization 
 augmentation part       -0.1071558 magnetization 

 Free energy of the ion-electron system (eV)
  ---------------------------------------------------
  alpha Z        PSCENC =        97.96435000
  Ewald energy   TEWEN  =     -1690.83155021
  -Hartree energ DENC   =     -2043.35513647
  -exchange      EXHF   =         0.00000000
  -V(xc)+E(xc)   XCENC  =       237.96983202
  PAW double counting   =     41900.62640359   -41765.08129012
  entropy T*S    EENTRO =        -0.00000000
  eigenvalues    EBANDS =      -888.42212618
  atomic energy  EATOM  =      3878.12520187
  ---------------------------------------------------
  free energy    TOTEN  =      -273.00431550 eV

  energy without entropy =     -273.00431550  energy(sigma->0) =     -273.00431550


--------------------------------------------------------------------------------------------------------




--------------------------------------- Iteration      1(  13)  ---------------------------------------


    POTLOK:  cpu time      0.8549: real time      0.8551
    SETDIJ:  cpu time      0.0654: real time      0.0654
    TRIAL :  cpu time      1.2369: real time      1.2372
    CORREC:  cpu time      1.6374: real time      1.6381
    CHARGE:  cpu time      0.1981: real time      0.1981
    --------------------------------------------
      LOOP:  cpu time      4.0091: real time      4.0235

 eigenvalue-minimisations  :     0
 total energy-change (2. order) :-0.1687679E-02  (-0.3418072E-03)
 number of electron     120.0000000 magnetization 
 augmentation part       -0.1069472 magnetization 

 Free energy of the ion-electron system (eV)
  ---------------------------------------------------
  alpha Z        PSCENC =        97.96435000
  Ewald energy   TEWEN  =     -1690.83155021
  -Hartree energ DENC   =     -2043.90801521
  -exchange      EXHF   =         0.00000000
  -V(xc)+E(xc)   XCENC  =       237.99157045
  PAW double counting   =     41945.39070599   -41809.84912704
  entropy T*S    EENTRO =        -0.00000000
  eigenvalues    EBANDS =      -887.88913903
  atomic energy  EATOM  =      3878.12520187
  ---------------------------------------------------
  free energy    TOTEN  =      -273.00600318 eV

  energy without entropy =     -273.00600318  energy(sigma->0) =     -273.00600318


--------------------------------------------------------------------------------------------------------




--------------------------------------- Iteration      1(  14)  ---------------------------------------


    POTLOK:  cpu time      0.8744: real time      0.8746
    SETDIJ:  cpu time      0.0652: real time      0.0652
    TRIAL :  cpu time      1.2399: real time      1.2406
    CORREC:  cpu time      1.7275: real time      1.7279
    CHARGE:  cpu time      0.1748: real time      0.1748
    --------------------------------------------
      LOOP:  cpu time      4.0964: real time      4.1127

 eigenvalue-minimisations  :     0
 total energy-change (2. order) :-0.3434796E-03  (-0.7372564E-04)
 number of electron     120.0000000 magnetization 
 augmentation part       -0.1067511 magnetization 

 Free energy of the ion-electron system (eV)
  ---------------------------------------------------
  alpha Z        PSCENC =        97.96435000
  Ewald energy   TEWEN  =     -1690.83155021
  -Hartree energ DENC   =     -2043.88019102
  -exchange      EXHF   =         0.00000000
  -V(xc)+E(xc)   XCENC  =       237.99052384
  PAW double counting   =     41962.06716401   -41826.52455674
  entropy T*S    EENTRO =        -0.00000000
  eigenvalues    EBANDS =      -887.91728842
  atomic energy  EATOM  =      3878.12520187
  ---------------------------------------------------
  free energy    TOTEN  =      -273.00634666 eV

  energy without entropy =     -273.00634666  energy(sigma->0) =     -273.00634666


--------------------------------------------------------------------------------------------------------




--------------------------------------- Iteration      1(  15)  ---------------------------------------


    POTLOK:  cpu time      0.8576: real time      0.8579
    SETDIJ:  cpu time      0.0647: real time      0.0647
    TRIAL :  cpu time      1.2357: real time      1.2362
    CORREC:  cpu time      1.6362: real time      1.6367
    CHARGE:  cpu time      0.1750: real time      0.1750
    --------------------------------------------
      LOOP:  cpu time      3.9988: real time      4.0004

 eigenvalue-minimisations  :     0
 total energy-change (2. order) :-0.7473470E-04  (-0.1603404E-04)
 number of electron     120.0000000 magnetization 
 augmentation part       -0.1066772 magnetization 

 Free energy of the ion-electron system (eV)
  ---------------------------------------------------
  alpha Z        PSCENC =        97.96435000
  Ewald energy   TEWEN  =     -1690.83155021
  -Hartree energ DENC   =     -2043.95134231
  -exchange      EXHF   =         0.00000000
  -V(xc)+E(xc)   XCENC  =       237.99446498
  PAW double counting   =     41962.80884534   -41827.26589481
  entropy T*S    EENTRO =        -0.00000000
  eigenvalues    EBANDS =      -887.85049625
  atomic energy  EATOM  =      3878.12520187
  ---------------------------------------------------
  free energy    TOTEN  =      -273.00642139 eV

  energy without entropy =     -273.00642139  energy(sigma->0) =     -273.00642139


--------------------------------------------------------------------------------------------------------




--------------------------------------- Iteration      1(  16)  ---------------------------------------


    POTLOK:  cpu time      0.8528: real time      0.8531
    SETDIJ:  cpu time      0.0656: real time      0.0656
    TRIAL :  cpu time      1.2359: real time      1.2364
    CORREC:  cpu time      1.6335: real time      1.6339
    CHARGE:  cpu time      0.1788: real time      0.1788
    --------------------------------------------
      LOOP:  cpu time      3.9809: real time      3.9977

 eigenvalue-minimisations  :     0
 total energy-change (2. order) :-0.1638239E-04  (-0.3500620E-05)
 number of electron     120.0000000 magnetization 
 augmentation part       -0.1066633 magnetization 

 Free energy of the ion-electron system (eV)
  ---------------------------------------------------
  alpha Z        PSCENC =        97.96435000
  Ewald energy   TEWEN  =     -1690.83155021
  -Hartree energ DENC   =     -2043.97470639
  -exchange      EXHF   =         0.00000000
  -V(xc)+E(xc)   XCENC  =       237.99600564
  PAW double counting   =     41963.91800783   -41828.37484549
  entropy T*S    EENTRO =        -0.00000000
  eigenvalues    EBANDS =      -887.82890103
  atomic energy  EATOM  =      3878.12520187
  ---------------------------------------------------
  free energy    TOTEN  =      -273.00643778 eV

  energy without entropy =     -273.00643778  energy(sigma->0) =     -273.00643778


--------------------------------------------------------------------------------------------------------




--------------------------------------- Iteration      1(  17)  ---------------------------------------


    POTLOK:  cpu time      0.8558: real time      0.8561
    SETDIJ:  cpu time      0.0655: real time      0.0655
    TRIAL :  cpu time      1.2370: real time      1.2376
    CORREC:  cpu time      1.6336: real time      1.6341
    CHARGE:  cpu time      0.1749: real time      0.1749
    --------------------------------------------
      LOOP:  cpu time      3.9960: real time      3.9979

 eigenvalue-minimisations  :     0
 total energy-change (2. order) :-0.3579662E-05  (-0.8958175E-06)
 number of electron     120.0000000 magnetization 
 augmentation part       -0.1066589 magnetization 

 Free energy of the ion-electron system (eV)
  ---------------------------------------------------
  alpha Z        PSCENC =        97.96435000
  Ewald energy   TEWEN  =     -1690.83155021
  -Hartree energ DENC   =     -2043.97567800
  -exchange      EXHF   =         0.00000000
  -V(xc)+E(xc)   XCENC  =       237.99625550
  PAW double counting   =     41965.51706819   -41829.97380674
  entropy T*S    EENTRO =        -0.00000000
  eigenvalues    EBANDS =      -887.82828196
  atomic energy  EATOM  =      3878.12520187
  ---------------------------------------------------
  free energy    TOTEN  =      -273.00644136 eV

  energy without entropy =     -273.00644136  energy(sigma->0) =     -273.00644136


--------------------------------------------------------------------------------------------------------




--------------------------------------- Iteration      1(  18)  ---------------------------------------


    POTLOK:  cpu time      0.8560: real time      0.8562
    SETDIJ:  cpu time      0.0648: real time      0.0648
    TRIAL :  cpu time      1.2691: real time      1.2698
    CORREC:  cpu time      1.6647: real time      1.6651
    CHARGE:  cpu time      0.2184: real time      0.2188
    --------------------------------------------
      LOOP:  cpu time      4.1025: real time      4.1047

 eigenvalue-minimisations  :     0
 total energy-change (2. order) :-0.8900970E-06  (-0.1885660E-06)
 number of electron     120.0000000 magnetization 
 augmentation part       -0.1066576 magnetization 

 Free energy of the ion-electron system (eV)
  ---------------------------------------------------
  alpha Z        PSCENC =        97.96435000
  Ewald energy   TEWEN  =     -1690.83155021
  -Hartree energ DENC   =     -2043.98201126
  -exchange      EXHF   =         0.00000000
  -V(xc)+E(xc)   XCENC  =       237.99663906
  PAW double counting   =     41965.66966030   -41830.12643062
  entropy T*S    EENTRO =        -0.00000000
  eigenvalues    EBANDS =      -887.82230139
  atomic energy  EATOM  =      3878.12520187
  ---------------------------------------------------
  free energy    TOTEN  =      -273.00644225 eV

  energy without entropy =     -273.00644225  energy(sigma->0) =     -273.00644225


--------------------------------------------------------------------------------------------------------




--------------------------------------- Iteration      1(  19)  ---------------------------------------


    POTLOK:  cpu time      0.8795: real time      0.8796
    SETDIJ:  cpu time      0.0657: real time      0.0657
    TRIAL :  cpu time      1.2475: real time      1.2481
    CORREC:  cpu time      1.6346: real time      1.6350
    CHARGE:  cpu time      0.1746: real time      0.1748
    --------------------------------------------
      LOOP:  cpu time      4.0155: real time      4.0321

 eigenvalue-minimisations  :     0
 total energy-change (2. order) :-0.1944136E-06  (-0.5219816E-07)
 number of electron     120.0000000 magnetization 
 augmentation part       -0.1066559 magnetization 

 Free energy of the ion-electron system (eV)
  ---------------------------------------------------
  alpha Z        PSCENC =        97.96435000
  Ewald energy   TEWEN  =     -1690.83155021
  -Hartree energ DENC   =     -2043.97910809
  -exchange      EXHF   =         0.00000000
  -V(xc)+E(xc)   XCENC  =       237.99648555
  PAW double counting   =     41965.03383915   -41829.49061484
  entropy T*S    EENTRO =        -0.00000000
  eigenvalues    EBANDS =      -887.82504587
  atomic energy  EATOM  =      3878.12520187
  ---------------------------------------------------
  free energy    TOTEN  =      -273.00644244 eV

  energy without entropy =     -273.00644244  energy(sigma->0) =     -273.00644244


--------------------------------------------------------------------------------------------------------




--------------------------------------- Iteration      1(  20)  ---------------------------------------


    POTLOK:  cpu time      0.8563: real time      0.8563
    SETDIJ:  cpu time      0.0647: real time      0.0647
    TRIAL :  cpu time      1.2368: real time      1.2374
    CORREC:  cpu time      1.6392: real time      1.6396
    EDDIAG:  cpu time      0.6008: real time      0.6021
    CHARGE:  cpu time      0.1743: real time      0.1743
    --------------------------------------------
      LOOP:  cpu time      4.5880: real time      4.6043

 eigenvalue-minimisations  :     0
 total energy-change (2. order) :-0.5189941E-07  (-0.7209595E-08)
 number of electron     120.0000000 magnetization 
 augmentation part       -0.1066559 magnetization 

 Free energy of the ion-electron system (eV)
  ---------------------------------------------------
  alpha Z        PSCENC =        97.96435000
  Ewald energy   TEWEN  =     -1690.83155021
  -Hartree energ DENC   =     -2043.98046678
  -exchange      EXHF   =         0.00000000
  -V(xc)+E(xc)   XCENC  =       237.99652161
  PAW double counting   =     41964.39230986   -41828.84910824
  entropy T*S    EENTRO =        -0.00000000
  eigenvalues    EBANDS =      -887.82370061
  atomic energy  EATOM  =      3878.12520187
  ---------------------------------------------------
  free energy    TOTEN  =      -273.00644249 eV

  energy without entropy =     -273.00644249  energy(sigma->0) =     -273.00644249


--------------------------------------------------------------------------------------------------------


  average scaling for gradient   1.0471


 average (electrostatic) potential at core
  the test charge radii are     0.5770  0.4325
  (the norm of the test charge is              1.0000)
       1 -82.0038       2 -82.0051       3 -81.9933       4 -81.9933       5 -82.0051
       6 -82.0038       7 -82.0038       8 -82.0038       9 -82.0038      10 -82.0038
      11 -82.0038      12 -82.0038      13 -82.0051      14 -82.0051      15 -82.0051
      16 -82.0051      17 -82.0051      18 -82.0051      19 -81.9933      20 -81.9933
      21 -81.9933      22 -81.9933      23 -81.9933      24 -81.9933      25 -41.1584
      26 -41.1222      27 -41.1407      28 -41.1407      29 -41.1222      30 -41.1584
      31 -41.1584      32 -41.1584      33 -41.1584      34 -41.1584      35 -41.1584
      36 -41.1584      37 -41.1222      38 -41.1222      39 -41.1222      40 -41.1222
      41 -41.1222      42 -41.1222      43 -41.1407      44 -41.1407      45 -41.1407
      46 -41.1407      47 -41.1407      48 -41.1407



 E-fermi :  -1.2912     XC(G=0):  -7.8816     alpha+bet : -6.7107

 Fermi energy:        -1.2911929784

 k-point     1 :       0.0000    0.0000    0.0000
  band No.  band energies     occupation 
      1     -16.6089      2.00000
      2     -16.5066      2.00000
      3     -16.4401      2.00000
      4     -16.4278      2.00000
      5     -13.9115      2.00000
      6     -13.7857      2.00000
      7     -13.7455      2.00000
      8     -13.7159      2.00000
      9     -13.6777      2.00000
     10     -13.6513      2.00000
     11     -13.6504      2.00000
     12     -13.6274      2.00000
     13     -10.2508      2.00000
     14     -10.2232      2.00000
     15     -10.1717      2.00000
     16     -10.1275      2.00000
     17     -10.0972      2.00000
     18     -10.0698      2.00000
     19     -10.0349      2.00000
     20      -9.8747      2.00000
     21      -8.5320      2.00000
     22      -8.1129      2.00000
     23      -8.1084      2.00000
     24      -7.8336      2.00000
     25      -6.8093      2.00000
     26      -6.6327      2.00000
     27      -6.4473      2.00000
     28      -6.3187      2.00000
     29      -6.2486      2.00000
     30      -6.2287      2.00000
     31      -6.1672      2.00000
     32      -6.1525      2.00000
     33      -5.9106      2.00000
     34      -5.8952      2.00000
     35      -5.8571      2.00000
     36      -5.4589      2.00000
     37      -5.4570      2.00000
     38      -5.4316      2.00000
     39      -5.4020      2.00000
     40      -5.2553      2.00000
     41      -4.3336      2.00000
     42      -4.2592      2.00000
     43      -4.1688      2.00000
     44      -4.1360      2.00000
     45      -3.8454      2.00000
     46      -3.7803      2.00000
     47      -3.7694      2.00000
     48      -3.6662      2.00000
     49      -3.5043      2.00000
     50      -3.4904      2.00000
     51      -3.4776      2.00000
     52      -3.3019      2.00000
     53      -2.0058      2.00000
     54      -1.9925      2.00000
     55      -1.8540      2.00000
     56      -1.7488      2.00000
     57      -1.5693      2.00000
     58      -1.4716      2.00000
     59      -1.3731      2.00000
     60      -1.3352      2.00000
     61       3.1009      0.00000
     62       3.1592      0.00000
     63       3.2419      0.00000
     64       3.4241      0.00000
     65       3.4606      0.00000
     66       3.5258      0.00000
     67       3.6938      0.00000
     68       3.8125      0.00000
     69       4.2274      0.00000
     70       5.3357      0.00000
     71       5.6531      0.00000
     72       6.2378      0.00000
     73       6.3982      0.00000
     74       6.4589      0.00000
     75       6.6531      0.00000
     76       6.7819      0.00000
     77       6.7924      0.00000
     78       6.9066      0.00000
     79       7.0088      0.00000
     80       7.0684      0.00000
     81       7.2341      0.00000
     82       7.6312      0.00000
     83       7.7375      0.00000
     84       7.7432      0.00000
     85       7.7863      0.00000
     86       8.2682      0.00000
     87       8.3724      0.00000
     88       8.5583      0.00000

 k-point     2 :       0.2500    0.0000    0.0000
  band No.  band energies     occupation 
      1     -16.5855      2.00000
      2     -16.4952      2.00000
      3     -16.4663      2.00000
      4     -16.4395      2.00000
      5     -13.8825      2.00000
      6     -13.7751      2.00000
      7     -13.7375      2.00000
      8     -13.7144      2.00000
      9     -13.7031      2.00000
     10     -13.6652      2.00000
     11     -13.6537      2.00000
     12     -13.6346      2.00000
     13     -10.1970      2.00000
     14     -10.1944      2.00000
     15     -10.1692      2.00000
     16     -10.1375      2.00000
     17     -10.0925      2.00000
     18     -10.0727      2.00000
     19     -10.0635      2.00000
     20      -9.9286      2.00000
     21      -8.4967      2.00000
     22      -8.2050      2.00000
     23      -8.0768      2.00000
     24      -7.8812      2.00000
     25      -6.7769      2.00000
     26      -6.6505      2.00000
     27      -6.3832      2.00000
     28      -6.2878      2.00000
     29      -6.2379      2.00000
     30      -6.2217      2.00000
     31      -6.1614      2.00000
     32      -6.1497      2.00000
     33      -5.8761      2.00000
     34      -5.7979      2.00000
     35      -5.7597      2.00000
     36      -5.5460      2.00000
     37      -5.4572      2.00000
     38      -5.4243      2.00000
     39      -5.4186      2.00000
     40      -5.2905      2.00000
     41      -4.4774      2.00000
     42      -4.4054      2.00000
     43      -4.2580      2.00000
     44      -4.2386      2.00000
     45      -3.7373      2.00000
     46      -3.6804      2.00000
     47      -3.6757      2.00000
     48      -3.6372      2.00000
     49      -3.4881      2.00000
     50      -3.4863      2.00000
     51      -3.4582      2.00000
     52      -3.3347      2.00000
     53      -1.9165      2.00000
     54      -1.9152      2.00000
     55      -1.8408      2.00000
     56      -1.7661      2.00000
     57      -1.5547      2.00000
     58      -1.5163      2.00000
     59      -1.4456      2.00000
     60      -1.4391      2.00000
     61       3.1613      0.00000
     62       3.2223      0.00000
     63       3.2656      0.00000
     64       3.4222      0.00000
     65       3.4514      0.00000
     66       3.4582      0.00000
     67       3.5931      0.00000
     68       3.6928      0.00000
     69       4.4535      0.00000
     70       5.4579      0.00000
     71       5.7155      0.00000
     72       5.8504      0.00000
     73       6.1931      0.00000
     74       6.4590      0.00000
     75       6.7808      0.00000
     76       6.7866      0.00000
     77       6.8365      0.00000
     78       6.9061      0.00000
     79       7.0819      0.00000
     80       7.1735      0.00000
     81       7.2696      0.00000
     82       7.5598      0.00000
     83       7.6459      0.00000
     84       7.8577      0.00000
     85       7.9062      0.00000
     86       8.2436      0.00000
     87       8.5317      0.00000
     88       8.6028      0.00000

 k-point     3 :       0.5000    0.0000    0.0000
  band No.  band energies     occupation 
      1     -16.5272      2.00000
      2     -16.5272      2.00000
      3     -16.4675      2.00000
      4     -16.4675      2.00000
      5     -13.8127      2.00000
      6     -13.8127      2.00000
      7     -13.7211      2.00000
      8     -13.7211      2.00000
      9     -13.7004      2.00000
     10     -13.7004      2.00000
     11     -13.6489      2.00000
     12     -13.6489      2.00000
     13     -10.1583      2.00000
     14     -10.1583      2.00000
     15     -10.1301      2.00000
     16     -10.1301      2.00000
     17     -10.0823      2.00000
     18     -10.0823      2.00000
     19     -10.0596      2.00000
     20     -10.0596      2.00000
     21      -8.3793      2.00000
     22      -8.3793      2.00000
     23      -7.9845      2.00000
     24      -7.9845      2.00000
     25      -6.7073      2.00000
     26      -6.7073      2.00000
     27      -6.2924      2.00000
     28      -6.2924      2.00000
     29      -6.2210      2.00000
     30      -6.2210      2.00000
     31      -6.1517      2.00000
     32      -6.1517      2.00000
     33      -5.7687      2.00000
     34      -5.7687      2.00000
     35      -5.5575      2.00000
     36      -5.5575      2.00000
     37      -5.5280      2.00000
     38      -5.5279      2.00000
     39      -5.3672      2.00000
     40      -5.3672      2.00000
     41      -4.5649      2.00000
     42      -4.5649      2.00000
     43      -4.3424      2.00000
     44      -4.3424      2.00000
     45      -3.6453      2.00000
     46      -3.6453      2.00000
[...]
      2     -16.5045      2.00000
      3     -16.4877      2.00000
      4     -16.4877      2.00000
      5     -13.7972      2.00000
      6     -13.7972      2.00000
      7     -13.7726      2.00000
      8     -13.7726      2.00000
      9     -13.6717      2.00000
     10     -13.6717      2.00000
     11     -13.6486      2.00000
     12     -13.6486      2.00000
     13     -10.2220      2.00000
     14     -10.2220      2.00000
     15     -10.1768      2.00000
     16     -10.1768      2.00000
     17     -10.0433      2.00000
     18     -10.0433      2.00000
     19      -9.9930      2.00000
     20      -9.9930      2.00000
     21      -8.2386      2.00000
     22      -8.2386      2.00000
     23      -8.0907      2.00000
     24      -8.0907      2.00000
     25      -6.5452      2.00000
     26      -6.5452      2.00000
     27      -6.5248      2.00000
     28      -6.5248      2.00000
     29      -6.1932      2.00000
     30      -6.1932      2.00000
     31      -6.1813      2.00000
     32      -6.1813      2.00000
     33      -5.8203      2.00000
     34      -5.8203      2.00000
     35      -5.7330      2.00000
     36      -5.7330      2.00000
     37      -5.4259      2.00000
     38      -5.4259      2.00000
     39      -5.3192      2.00000
     40      -5.3192      2.00000
     41      -4.3669      2.00000
     42      -4.3669      2.00000
     43      -4.3239      2.00000
     44      -4.3239      2.00000
     45      -3.6663      2.00000
     46      -3.6663      2.00000
     47      -3.6380      2.00000
     48      -3.6380      2.00000
     49      -3.4497      2.00000
     50      -3.4497      2.00000
     51      -3.4402      2.00000
     52      -3.4402      2.00000
     53      -1.7615      2.00000
     54      -1.7615      2.00000
     55      -1.7340      2.00000
     56      -1.7339      2.00000
     57      -1.5840      2.00000
     58      -1.5840      2.00000
     59      -1.5677      2.00000
     60      -1.5677      2.00000
     61       3.1222      0.00000
     62       3.1222      0.00000
     63       3.1597      0.00000
     64       3.1597      0.00000
     65       3.6215      0.00000
     66       3.6215      0.00000
     67       3.6542      0.00000
     68       3.6542      0.00000
     69       5.3745      0.00000
     70       5.3745      0.00000
     71       5.7882      0.00000
     72       5.7882      0.00000
     73       5.9612      0.00000
     74       5.9612      0.00000
     75       6.2804      0.00000
     76       6.2804      0.00000
     77       6.8884      0.00000
     78       6.8884      0.00000
     79       6.9262      0.00000
     80       6.9263      0.00000
     81       7.1246      0.00000
     82       7.1246      0.00000
     83       7.6131      0.00000
     84       7.6173      0.00000
     85       7.8534      0.00000
     86       7.8582      0.00000
     87       8.3983      0.00000
     88       8.4544      0.00000

 k-point    18 :       0.5000    0.3333    0.5000
  band No.  band energies     occupation 
      1     -16.4956      2.00000
      2     -16.4956      2.00000
      3     -16.4956      2.00000
      4     -16.4956      2.00000
      5     -13.7977      2.00000
      6     -13.7977      2.00000
      7     -13.7977      2.00000
      8     -13.7977      2.00000
      9     -13.6487      2.00000
     10     -13.6487      2.00000
     11     -13.6487      2.00000
     12     -13.6487      2.00000
     13     -10.2026      2.00000
     14     -10.2026      2.00000
     15     -10.2026      2.00000
     16     -10.2026      2.00000
     17     -10.0157      2.00000
     18     -10.0157      2.00000
     19     -10.0157      2.00000
     20     -10.0157      2.00000
     21      -8.1463      2.00000
     22      -8.1463      2.00000
     23      -8.1463      2.00000
     24      -8.1463      2.00000
     25      -6.5542      2.00000
     26      -6.5542      2.00000
     27      -6.5542      2.00000
     28      -6.5542      2.00000
     29      -6.1861      2.00000
     30      -6.1861      2.00000
     31      -6.1861      2.00000
     32      -6.1861      2.00000
     33      -5.8465      2.00000
     34      -5.8465      2.00000
     35      -5.8465      2.00000
     36      -5.8465      2.00000
     37      -5.3436      2.00000
     38      -5.3436      2.00000
     39      -5.3436      2.00000
     40      -5.3436      2.00000
     41      -4.2342      2.00000
     42      -4.2342      2.00000
     43      -4.2342      2.00000
     44      -4.2342      2.00000
     45      -3.7021      2.00000
     46      -3.7021      2.00000
     47      -3.7021      2.00000
     48      -3.7021      2.00000
     49      -3.4591      2.00000
     50      -3.4591      2.00000
     51      -3.4591      2.00000
     52      -3.4591      2.00000
     53      -1.7520      2.00000
     54      -1.7520      2.00000
     55      -1.7520      2.00000
     56      -1.7520      2.00000
     57      -1.5603      2.00000
     58      -1.5603      2.00000
     59      -1.5603      2.00000
     60      -1.5603      2.00000
     61       3.0679      0.00000
     62       3.0679      0.00000
     63       3.0679      0.00000
     64       3.0679      0.00000
     65       3.6700      0.00000
     66       3.6700      0.00000
     67       3.6700      0.00000
     68       3.6700      0.00000
     69       5.4688      0.00000
     70       5.4688      0.00000
     71       5.4688      0.00000
     72       5.4688      0.00000
     73       6.0931      0.00000
     74       6.0931      0.00000
     75       6.0931      0.00000
     76       6.0931      0.00000
     77       6.9947      0.00000
     78       6.9947      0.00000
     79       6.9947      0.00000
     80       6.9948      0.00000
     81       7.3458      0.00000
     82       7.3462      0.00000
     83       7.3483      0.00000
     84       7.3603      0.00000
     85       8.0038      0.00000
     86       8.0110      0.00000
     87       8.0192      0.00000
     88       8.1850      0.00000


--------------------------------------------------------------------------------------------------------


 soft charge-density along one line, spin component           1
         0         1         2         3         4         5         6         7         8         9
 total charge-density along one line

 pseudopotential strength for first ion, spin component:           1
 12.546  21.109  -0.000   0.000   0.000  -0.000   0.000   0.000
 21.109  35.517  -0.000   0.000   0.000  -0.000   0.000   0.000
 -0.000  -0.000  -3.130  -0.002  -0.001  -5.606  -0.003  -0.002
  0.000   0.000  -0.002  -3.133  -0.004  -0.003  -5.611  -0.008
  0.000   0.000  -0.001  -0.004  -3.133  -0.002  -0.008  -5.611
 -0.000  -0.000  -5.606  -0.003  -0.002 -10.016  -0.005  -0.004
  0.000   0.000  -0.003  -5.611  -0.008  -0.005 -10.025  -0.013
  0.000   0.000  -0.002  -0.008  -5.611  -0.004  -0.013 -10.025
 total augmentation occupancy for first ion, spin component:           1
  7.191  -2.415  -0.716   0.022   0.241   0.322  -0.010  -0.108
 -2.415   0.842   0.339  -0.011  -0.115  -0.148   0.005   0.050
 -0.716   0.339   6.158  -0.713  -0.489  -1.974   0.277   0.181
  0.022  -0.011  -0.713   5.148  -2.024   0.277  -1.608   0.787
  0.241  -0.115  -0.489  -2.024   5.074   0.181   0.787  -1.576
  0.322  -0.148  -1.974   0.277   0.181   0.642  -0.104  -0.064
 -0.010   0.005   0.277  -1.608   0.787  -0.104   0.517  -0.295
 -0.108   0.050   0.181   0.787  -1.576  -0.064  -0.295   0.504


------------------------ aborting loop because EDIFF is reached ----------------------------------------


    FORLOC:  cpu time      0.0064: real time      0.0064
    FORNL :  cpu time      0.7704: real time      0.7709
    FORCOR:  cpu time      0.9186: real time      0.9189
    OFIELD:  cpu time      0.0024: real time      0.0025

 VOLUME and BASIS-vectors are now :
 -----------------------------------------------------------------------------
  energy-cutoff  :     1000.00
  volume of cell :      474.07
      direct lattice vectors                 reciprocal lattice vectors
     7.390000000  0.000000000  0.000000000     0.135317997  0.000000000  0.000000000
     0.000000000  9.420000000  0.000000000     0.000000000  0.106157113  0.000000000
     0.000000000  0.000000000  6.810000000     0.000000000  0.000000000  0.146842878

  length of vectors
     7.390000000  9.420000000  6.810000000     0.135317997  0.106157113  0.146842878


 FORCES acting on ions:
    Electron-Ion                     Ewald-Force                    Non-Local-Force
 -----------------------------------------------------------------------------------------------
   0.339E+02 -.108E+03 0.202E+01   -.339E+02 0.108E+03 -.209E+01   -.273E-01 0.341E+00 0.579E-01
   0.806E+02 -.347E+02 -.692E+02   -.806E+02 0.346E+02 0.692E+02   -.143E+00 0.135E+00 0.104E+00
   -.447E+02 -.709E+02 0.730E+02   0.446E+02 0.708E+02 -.731E+02   0.650E-01 0.187E+00 -.708E-01
   0.447E+02 0.709E+02 -.730E+02   -.446E+02 -.708E+02 0.731E+02   -.650E-01 -.187E+00 0.708E-01
   -.806E+02 0.347E+02 0.692E+02   0.806E+02 -.346E+02 -.692E+02   0.143E+00 -.135E+00 -.104E+00
   -.339E+02 0.108E+03 -.202E+01   0.339E+02 -.108E+03 0.209E+01   0.273E-01 -.341E+00 -.579E-01
   -.339E+02 -.108E+03 0.202E+01   0.339E+02 0.108E+03 -.209E+01   0.273E-01 0.341E+00 0.579E-01
   0.339E+02 0.108E+03 0.202E+01   -.339E+02 -.108E+03 -.209E+01   -.273E-01 -.341E+00 0.579E-01
   -.339E+02 0.108E+03 0.202E+01   0.339E+02 -.108E+03 -.209E+01   0.273E-01 -.341E+00 0.579E-01
   0.339E+02 0.108E+03 -.202E+01   -.339E+02 -.108E+03 0.209E+01   -.273E-01 -.341E+00 -.579E-01
   -.339E+02 -.108E+03 -.202E+01   0.339E+02 0.108E+03 0.209E+01   0.273E-01 0.341E+00 -.579E-01
   0.339E+02 -.108E+03 -.202E+01   -.339E+02 0.108E+03 0.209E+01   -.273E-01 0.341E+00 -.579E-01
   -.806E+02 -.347E+02 -.692E+02   0.806E+02 0.346E+02 0.692E+02   0.143E+00 0.135E+00 0.104E+00
   0.806E+02 0.347E+02 -.692E+02   -.806E+02 -.346E+02 0.692E+02   -.143E+00 -.135E+00 0.104E+00
   -.806E+02 0.347E+02 -.692E+02   0.806E+02 -.346E+02 0.692E+02   0.143E+00 -.135E+00 0.104E+00
   0.806E+02 0.347E+02 0.692E+02   -.806E+02 -.346E+02 -.692E+02   -.143E+00 -.135E+00 -.104E+00
   -.806E+02 -.347E+02 0.692E+02   0.806E+02 0.346E+02 -.692E+02   0.143E+00 0.135E+00 -.104E+00
   0.806E+02 -.347E+02 0.692E+02   -.806E+02 0.346E+02 -.692E+02   -.143E+00 0.135E+00 -.104E+00
   0.447E+02 -.709E+02 0.730E+02   -.446E+02 0.708E+02 -.731E+02   -.650E-01 0.187E+00 -.708E-01
   -.447E+02 0.709E+02 0.730E+02   0.446E+02 -.708E+02 -.731E+02   0.650E-01 -.187E+00 -.708E-01
   0.447E+02 0.709E+02 0.730E+02   -.446E+02 -.708E+02 -.731E+02   -.650E-01 -.187E+00 -.708E-01
   -.447E+02 0.709E+02 -.730E+02   0.446E+02 -.708E+02 0.731E+02   0.650E-01 -.187E+00 0.708E-01
   0.447E+02 -.709E+02 -.730E+02   -.446E+02 0.708E+02 0.731E+02   -.650E-01 0.187E+00 0.708E-01
   -.447E+02 -.709E+02 -.730E+02   0.446E+02 0.708E+02 0.731E+02   0.650E-01 0.187E+00 0.708E-01
   0.141E+02 -.497E+02 0.182E+01   -.159E+02 0.553E+02 -.201E+01   0.183E+01 -.557E+01 0.184E+00
   0.343E+02 -.164E+02 -.271E+02   -.386E+02 0.181E+02 0.307E+02   0.433E+01 -.168E+01 -.360E+01
   -.186E+02 -.318E+02 0.327E+02   0.210E+02 0.355E+02 -.366E+02   -.238E+01 -.374E+01 0.387E+01
   0.186E+02 0.318E+02 -.327E+02   -.210E+02 -.355E+02 0.366E+02   0.238E+01 0.374E+01 -.387E+01
   -.343E+02 0.164E+02 0.271E+02   0.386E+02 -.181E+02 -.307E+02   -.433E+01 0.168E+01 0.360E+01
   -.141E+02 0.497E+02 -.182E+01   0.159E+02 -.553E+02 0.201E+01   -.183E+01 0.557E+01 -.184E+00
   -.141E+02 -.497E+02 0.182E+01   0.159E+02 0.553E+02 -.201E+01   -.183E+01 -.557E+01 0.184E+00
   0.141E+02 0.497E+02 0.182E+01   -.159E+02 -.553E+02 -.201E+01   0.183E+01 0.557E+01 0.184E+00
   -.141E+02 0.497E+02 0.182E+01   0.159E+02 -.553E+02 -.201E+01   -.183E+01 0.557E+01 0.184E+00
   0.141E+02 0.497E+02 -.182E+01   -.159E+02 -.553E+02 0.201E+01   0.183E+01 0.557E+01 -.184E+00
   -.141E+02 -.497E+02 -.182E+01   0.159E+02 0.553E+02 0.201E+01   -.183E+01 -.557E+01 -.184E+00
   0.141E+02 -.497E+02 -.182E+01   -.159E+02 0.553E+02 0.201E+01   0.183E+01 -.557E+01 -.184E+00
   -.343E+02 -.164E+02 -.271E+02   0.386E+02 0.181E+02 0.307E+02   -.433E+01 -.168E+01 -.360E+01
   0.343E+02 0.164E+02 -.271E+02   -.386E+02 -.181E+02 0.307E+02   0.433E+01 0.168E+01 -.360E+01
   -.343E+02 0.164E+02 -.271E+02   0.386E+02 -.181E+02 0.307E+02   -.433E+01 0.168E+01 -.360E+01
   0.343E+02 0.164E+02 0.271E+02   -.386E+02 -.181E+02 -.307E+02   0.433E+01 0.168E+01 0.360E+01
   -.343E+02 -.164E+02 0.271E+02   0.386E+02 0.181E+02 -.307E+02   -.433E+01 -.168E+01 0.360E+01
   0.343E+02 -.164E+02 0.271E+02   -.386E+02 0.181E+02 -.307E+02   0.433E+01 -.168E+01 0.360E+01
   0.186E+02 -.318E+02 0.327E+02   -.210E+02 0.355E+02 -.366E+02   0.238E+01 -.374E+01 0.387E+01
   -.186E+02 0.318E+02 0.327E+02   0.210E+02 -.355E+02 -.366E+02   -.238E+01 0.374E+01 0.387E+01
   0.186E+02 0.318E+02 0.327E+02   -.210E+02 -.355E+02 -.366E+02   0.238E+01 0.374E+01 0.387E+01
   -.186E+02 0.318E+02 -.327E+02   0.210E+02 -.355E+02 0.366E+02   -.238E+01 0.374E+01 -.387E+01
   0.186E+02 -.318E+02 -.327E+02   -.210E+02 0.355E+02 0.366E+02   0.238E+01 -.374E+01 -.387E+01
   -.186E+02 -.318E+02 -.327E+02   0.210E+02 0.355E+02 0.366E+02   -.238E+01 -.374E+01 -.387E+01
 -----------------------------------------------------------------------------------------------
   -.221E-03 0.490E-03 0.324E-03   0.114E-12 0.711E-14 0.213E-13   0.444E-15 0.133E-14 -.444E-15


 POSITION                                       TOTAL-FORCE (eV/Angst)
 -----------------------------------------------------------------------------------
      6.94635      1.32482      6.76646        -0.026627      0.096341     -0.004185
      6.37040      0.42622      0.85894        -0.077542      0.031695      0.060129
      0.57262      0.89722      5.90791         0.035582      0.069466     -0.074895
      6.81738      8.52278      0.90209        -0.035582     -0.069466      0.074895
      1.01960      8.99378      5.95106         0.077542     -0.031695     -0.060129
      0.44365      8.09518      0.04354         0.026627     -0.096341      0.004185
      4.13865      6.03482      6.76646         0.026627      0.096341     -0.004185
      6.94635      3.38518      3.36146        -0.026627     -0.096341     -0.004185
      4.13865      8.09518      3.36146         0.026627     -0.096341     -0.004185
      3.25135      3.38518      0.04354        -0.026627     -0.096341      0.004185
      0.44365      6.03482      3.44854         0.026627      0.096341      0.004185
      3.25135      1.32482      3.44854        -0.026627      0.096341      0.004185
      4.71460      5.13622      0.85894         0.077542      0.031695      0.060129
      6.37040      4.28378      4.26394        -0.077542     -0.031695      0.060129
      4.71460      8.99378      4.26394         0.077542     -0.031695      0.060129
      2.67540      4.28378      5.95106        -0.077542     -0.031695     -0.060129
      1.01960      5.13622      2.54606         0.077542      0.031695     -0.060129
      2.67540      0.42622      2.54606        -0.077542      0.031695     -0.060129
      3.12238      5.60722      5.90791        -0.035582      0.069466     -0.074895
      0.57262      3.81278      2.50291         0.035582     -0.069466     -0.074895
      3.12238      8.52278      2.50291        -0.035582     -0.069466     -0.074895
      4.26762      3.81278      0.90209         0.035582     -0.069466      0.074895
      6.81738      5.60722      4.30709        -0.035582      0.069466      0.074895
      4.26762      0.89722      4.30709         0.035582      0.069466      0.074895
      6.60387      2.35961      6.73054        -0.003124      0.020143     -0.002737
      5.56968      0.74692      1.52594        -0.009305      0.008912      0.007281
      1.01434      1.59340      5.19626         0.004942      0.007324     -0.007973
      6.37566      7.82660      1.61374        -0.004942     -0.007324      0.007973
      1.82032      8.67308      5.28406         0.009305     -0.008912     -0.007281
      0.78613      7.06039      0.07946         0.003124     -0.020143      0.002737
      4.48113      7.06961      6.73054         0.003124      0.020143     -0.002737
      6.60387      2.35039      3.32554        -0.003124     -0.020143     -0.002737
      4.48113      7.06039      3.32554         0.003124     -0.020143     -0.002737
      2.90887      2.35039      0.07946        -0.003124     -0.020143      0.002737
      0.78613      7.06961      3.48446         0.003124      0.020143      0.002737
      2.90887      2.35961      3.48446        -0.003124      0.020143      0.002737
      5.51532      5.45692      1.52594         0.009305      0.008912      0.007281
      5.56968      3.96308      4.93094        -0.009305     -0.008912      0.007281
      5.51532      8.67308      4.93094         0.009305     -0.008912      0.007281
      1.87468      3.96308      5.28406        -0.009305     -0.008912     -0.007281
      1.82032      5.45692      1.87906         0.009305      0.008912     -0.007281
      1.87468      0.74692      1.87906        -0.009305      0.008912     -0.007281
      2.68066      6.30340      5.19626        -0.004942      0.007324     -0.007973
      1.01434      3.11660      1.79126         0.004942     -0.007324     -0.007973
      2.68066      7.82660      1.79126        -0.004942     -0.007324     -0.007973
      4.70934      3.11660      1.61374         0.004942     -0.007324      0.007973
      6.37566      6.30340      5.01874        -0.004942      0.007324      0.007973
      4.70934      1.59340      5.01874         0.004942      0.007324      0.007973
 -----------------------------------------------------------------------------------
    total drift:                               -0.000221      0.000490      0.000324


--------------------------------------------------------------------------------------------------------



  FREE ENERGIE OF THE ION-ELECTRON SYSTEM (eV)
  ---------------------------------------------------
  free  energy   TOTEN  =      -273.00644249 eV

  energy  without entropy=     -273.00644249  energy(sigma->0) =     -273.00644249



--------------------------------------------------------------------------------------------------------


    POTLOK:  cpu time      0.9197: real time      0.9200


--------------------------------------------------------------------------------------------------------


 stress matrix after NEB project (eV)
      0.00000      0.00000      0.00000
      0.00000      0.00000      0.00000
      0.00000      0.00000      0.00000
  FORCES: max atom, RMS     0.108171    0.074303
  FORCE total and by dimension    0.514785    0.096341
  Stress total and by dimension    0.000000    0.000000
     LOOP+:  cpu time     84.6577: real time     84.9655
    4ORBIT:  cpu time      0.0000: real time      0.0000

 total amount of memory used by VASP MPI-rank0    45351. kBytes
=======================================================================

   base      :      30000. kBytes
   nonl-proj :       1634. kBytes
   fftplans  :       1347. kBytes
   grid      :       2104. kBytes
   one-center:          3. kBytes
   wavefun   :      10263. kBytes

  
  
 General timing and accounting informations for this job:
 ========================================================
  
                  Total CPU time used (sec):      112.718
                            User time (sec):      109.538
                          System time (sec):        3.180
                         Elapsed time (sec):      116.842
  
                   Maximum memory used (kb):      304744.
                   Average memory used (kb):          N/A
  
                          Minor page faults:       205622
                          Major page faults:          272
                 Voluntary context switches:         5655
