 vasp.6.4.1 05Apr23 (build Jun  6 2023 14:36:51) complex                         
 executed on        HPECrayEX_GCC date 2024.08.20  14:28:55
 running  256 mpi-ranks, with    1 threads/rank, on    2 nodes
 distrk:  each k-point on  256 cores,    1 groups
 distr:  one band on NCORE=  64 cores,    4 groups


--------------------------------------------------------------------------------------------------------


 INCAR:
   ALGO = Conjugate
   NPAR = 4
   ISMEAR = 0
   SIGMA = 0.01
   PREC = Accurate
   EDIFF = 1E-7
   ENCUT = 1000
   ISIF = 0
   GGA = MK
   PARAM1 = 0.1234
   PARAM2 = 1.0000
   LUSE_VDW = .TRUE.
   AGGAC = 0.0000
   LASPH = .TRUE.
   SYMPREC = 1E-7
   LWAVE = .FALSE.
   LCHARGE = .FALSE.

 POTCAR:    PAW_PBE C_h 06Feb2004                 
 POTCAR:    PAW_PBE H_h 06Feb2004                 
 -----------------------------------------------------------------------------
|                                                                             |
|               ----> ADVICE to this user running VASP <----                  |
|                                                                             |
|     You have switched on vdW-DFT.                                           |
|     This routine was written and supplied by Jiri Klimes. We recommend      |
|     that you carefully read and cite the following publications:            |
|       J. Klimes, D.R. Bowler, A. Michelides                                 |
|          J. Phys.: Cond Matt. 22 022201 (2010)                              |
|       J. Klimes, D.R. Bowler, A. Michelides                                 |
|          Phys. Rev. B. 83, 195131 (2011)                                    |
|     and references therein.                                                 |
|                                                                             |
 -----------------------------------------------------------------------------

 POTCAR:    PAW_PBE C_h 06Feb2004                 
   VRHFIN =C: s2p2                                                                                  
   LEXCH  = PE                                                                                      
   EATOM  =   147.1560 eV,   10.8157 Ry                                                             
                                                                                                    
   TITEL  = PAW_PBE C_h 06Feb2004                                                                   
   LULTRA =        F    use ultrasoft PP ?                                                          
   IUNSCR =        1    unscreen: 0-lin 1-nonlin 2-no                                               
   RPACOR =    0.800    partial core radius                                                         
   POMASS =   12.011; ZVAL   =    4.000    mass and valenz                                          
   RCORE  =    1.100    outmost cutoff radius                                                       
   RWIGS  =    1.630; RWIGS  =    0.863    wigner-seitz radius (au A)                               
   ENMAX  =  700.000; ENMIN  =  500.000 eV                                                          
   ICORE  =        2    local potential                                                             
   LCOR   =        T    correct aug charges                                                         
   LPAW   =        T    paw PP                                                                      
   EAUG   =  946.768                                                                                
   DEXC   =    0.000                                                                                
   RMAX   =    1.128    core radius for proj-oper                                                   
   RAUG   =    1.300    factor for augmentation sphere                                              
   RDEP   =    1.162    radius for radial grids                                                     
   RDEPT  =    1.088    core radius for aug-charge                                                  
                                                                                                    
   Atomic configuration                                                                             
    4 entries                                                                                       
     n  l   j            E        occ.                                                              
     1  0  0.50      -273.3789   2.0000                                                             
     2  0  0.50       -13.7508   2.0000                                                             
     2  1  0.50        -5.2854   2.0000                                                             
     3  2  1.50        -5.4423   0.0000                                                             
   Description                                                                                      
     l       E           TYP  RCUT    TYP  RCUT                                                     
     0    -13.7508458     23  1.100                                                                 
     0     -8.2022199     23  1.100                                                                 
     1     -5.2854383     23  1.100                                                                 
     1      1.1560700     23  1.100                                                                 
     2     -5.4423304      7  1.100                                                                 
  local pseudopotential read in
  partial core-charges read in
  partial kinetic energy density read in
  atomic valenz-charges read in
  non local Contribution for L=           0  read in
    real space projection operators read in
  non local Contribution for L=           0  read in
    real space projection operators read in
  non local Contribution for L=           1  read in
    real space projection operators read in
  non local Contribution for L=           1  read in
    real space projection operators read in
    PAW grid and wavefunctions read in

   number of l-projection  operators is LMAX  =           4
   number of lm-projection operators is LMMAX =           8

 POTCAR:    PAW_PBE H_h 06Feb2004                 
   VRHFIN =H: ultrasoft test                                                                        
   LEXCH  = PE                                                                                      
   EATOM  =    12.4884 eV,    0.9179 Ry                                                             
                                                                                                    
   TITEL  = PAW_PBE H_h 06Feb2004                                                                   
   LULTRA =        F    use ultrasoft PP ?                                                          
   IUNSCR =        0    unscreen: 0-lin 1-nonlin 2-no                                               
   RPACOR =    0.000    partial core radius                                                         
   POMASS =    1.000; ZVAL   =    1.000    mass and valenz                                          
   RCORE  =    0.800    outmost cutoff radius                                                       
   RWIGS  =    0.700; RWIGS  =    0.370    wigner-seitz radius (au A)                               
   ENMAX  =  700.000; ENMIN  =  350.000 eV                                                          
   RCLOC  =    0.701    cutoff for local pot                                                        
   LCOR   =        T    correct aug charges                                                         
   LPAW   =        T    paw PP                                                                      
   EAUG   = 1000.000                                                                                
   RMAX   =    0.819    core radius for proj-oper                                                   
   RAUG   =    1.000    factor for augmentation sphere                                              
   RDEP   =    0.817    radius for radial grids                                                     
   RDEPT  =    0.817    core radius for aug-charge                                                  
                                                                                                    
   Atomic configuration                                                                             
    2 entries                                                                                       
     n  l   j            E        occ.                                                              
     1  0  0.50        -6.4927   1.0000                                                             
     2  1  0.50        -3.4015   0.0000                                                             
   Description                                                                                      
     l       E           TYP  RCUT    TYP  RCUT                                                     
     0     -6.4927493     23  0.800                                                                 
     0      6.8029130     23  0.800                                                                 
     1     -6.8029130     23  0.800                                                                 
  local pseudopotential read in
  atomic valenz-charges read in
  non local Contribution for L=           0  read in
    real space projection operators read in
  non local Contribution for L=           0  read in
    real space projection operators read in
  non local Contribution for L=           1  read in
    real space projection operators read in
    PAW grid and wavefunctions read in

   number of l-projection  operators is LMAX  =           3
   number of lm-projection operators is LMMAX =           5

 -----------------------------------------------------------------------------
|                                                                             |
|               ----> ADVICE to this user running VASP <----                  |
|                                                                             |
|     You have a (more or less) 'large supercell' and for larger cells it     |
|     might be more efficient to use real-space projection operators.         |
|     Therefore, try LREAL= Auto in the INCAR file.                           |
|     Mind: For very accurate calculation, you might also keep the            |
|     reciprocal projection scheme (i.e. LREAL=.FALSE.).                      |
|                                                                             |
 -----------------------------------------------------------------------------

 -----------------------------------------------------------------------------
|                                                                             |
|               ----> ADVICE to this user running VASP <----                  |
|                                                                             |
|     You enforced a specific xc type in the INCAR file but a different       |
|     type was found in the POTCAR file.                                      |
|     I HOPE YOU KNOW WHAT YOU ARE DOING!                                     |
|                                                                             |
 -----------------------------------------------------------------------------

  PAW_PBE C_h 06Feb2004                 :
 energy of atom  1       EATOM= -147.1560
 kinetic energy error for atom=    0.0031 (will be added to EATOM!!)
  PAW_PBE H_h 06Feb2004                 :
 energy of atom  2       EATOM=  -12.4884
 kinetic energy error for atom=    0.0006 (will be added to EATOM!!)


 POSCAR:  C  H
  positions in cartesian coordinates
  No initial velocities read in
 exchange correlation table for  LEXCH =       43
   RHO(1)=    0.500       N(1)  =     2000
   RHO(2)=  100.500       N(2)  =     4000

 VTST: version 4.1, (05/19/21)

 CHAIN: initializing optimizer
 
 OPT: Using VASP Dynamics algorithm
 CHAIN: Read ICHAIN            0

 POSCAR:  C  H
  positions in cartesian coordinates
  No initial velocities read in



--------------------------------------------------------------------------------------------------------


 ion  position               nearest neighbor table
   1  0.940  0.141  0.994-  25 1.09   3 1.40   2 1.40
   2  0.862  0.045  0.126-  26 1.09   4 1.40   1 1.40
   3  0.077  0.095  0.868-  27 1.09   1 1.40   5 1.40
   4  0.923  0.905  0.132-  28 1.09   6 1.40   2 1.40
   5  0.138  0.955  0.874-  29 1.09   3 1.40   6 1.40
   6  0.060  0.859  0.006-  30 1.09   4 1.40   5 1.40
   7  0.560  0.641  0.994-  31 1.09  19 1.40  13 1.40
   8  0.940  0.359  0.494-  32 1.09  20 1.40  14 1.40
   9  0.560  0.859  0.494-  33 1.09  21 1.40  15 1.40
  10  0.440  0.359  0.006-  34 1.09  22 1.40  16 1.40
  11  0.060  0.641  0.506-  35 1.09  23 1.40  17 1.40
  12  0.440  0.141  0.506-  36 1.09  24 1.40  18 1.40
  13  0.638  0.545  0.126-  37 1.09  22 1.40   7 1.40
  14  0.862  0.455  0.626-  38 1.09  23 1.40   8 1.40
  15  0.638  0.955  0.626-  39 1.09  24 1.40   9 1.40
  16  0.362  0.455  0.874-  40 1.09  19 1.40  10 1.40
  17  0.138  0.545  0.374-  41 1.09  20 1.40  11 1.40
  18  0.362  0.045  0.374-  42 1.09  21 1.40  12 1.40
  19  0.423  0.595  0.868-  43 1.09   7 1.40  16 1.40
  20  0.077  0.405  0.368-  44 1.09   8 1.40  17 1.40
  21  0.423  0.905  0.368-  45 1.09   9 1.40  18 1.40
  22  0.577  0.405  0.132-  46 1.09  10 1.40  13 1.40
  23  0.923  0.595  0.632-  47 1.09  11 1.40  14 1.40
  24  0.577  0.095  0.632-  48 1.09  12 1.40  15 1.40
  25  0.894  0.250  0.988-   1 1.09
  26  0.754  0.079  0.224-   2 1.09
  27  0.137  0.169  0.763-   3 1.09
  28  0.863  0.831  0.237-   4 1.09
  29  0.246  0.921  0.776-   5 1.09
  30  0.106  0.750  0.012-   6 1.09
  31  0.606  0.750  0.988-   7 1.09
  32  0.894  0.250  0.488-   8 1.09
  33  0.606  0.750  0.488-   9 1.09
  34  0.394  0.250  0.012-  10 1.09
  35  0.106  0.750  0.512-  11 1.09
  36  0.394  0.250  0.512-  12 1.09
  37  0.746  0.579  0.224-  13 1.09
  38  0.754  0.421  0.724-  14 1.09
  39  0.746  0.921  0.724-  15 1.09
  40  0.254  0.421  0.776-  16 1.09
  41  0.246  0.579  0.276-  17 1.09
  42  0.254  0.079  0.276-  18 1.09
  43  0.363  0.669  0.763-  19 1.09
  44  0.137  0.331  0.263-  20 1.09
  45  0.363  0.831  0.263-  21 1.09
  46  0.637  0.331  0.237-  22 1.09
  47  0.863  0.669  0.737-  23 1.09
  48  0.637  0.169  0.737-  24 1.09

  LATTYP: Found a simple orthorhombic cell.
 ALAT       =     6.8100000000
 B/A-ratio  =     1.0851688693
 C/A-ratio  =     1.3832599119
  
  Lattice vectors:
  
 A1 = (   0.0000000000,   0.0000000000,   6.8100000000)
 A2 = (   7.3900000000,   0.0000000000,   0.0000000000)
 A3 = (   0.0000000000,   9.4200000000,   0.0000000000)


Analysis of symmetry for initial positions (statically):
=====================================================================
 Subroutine PRICEL returns:
 Original cell was already a primitive cell.
 

 Routine SETGRP: Setting up the symmetry group for a 
 simple orthorhombic supercell.


 Subroutine GETGRP returns: Found  8 space group operations
 (whereof  2 operations were pure point group operations)
 out of a pool of  8 trial point group operations.


The static configuration has the point symmetry S_2 .
 The point group associated with its full space group is D_2h.


Analysis of symmetry for dynamics (positions and initial velocities):
=====================================================================
 Subroutine PRICEL returns:
 Original cell was already a primitive cell.
 

 Routine SETGRP: Setting up the symmetry group for a 
 simple orthorhombic supercell.


 Subroutine GETGRP returns: Found  8 space group operations
 (whereof  2 operations were pure point group operations)
 out of a pool of  8 trial point group operations.


The dynamic configuration has the point symmetry S_2 .
 The point group associated with its full space group is D_2h.


 Subroutine INISYM returns: Found  8 space group operations
 (whereof  2 operations are pure point group operations),
 and found     1 'primitive' translations


----------------------------------------------------------------------------------------

                                     Primitive cell                                     

  volume of cell :     474.0700

  direct lattice vectors                    reciprocal lattice vectors
     7.390000000  0.000000000  0.000000000     0.135317997  0.000000000  0.000000000
     0.000000000  9.420000000  0.000000000     0.000000000  0.106157113  0.000000000
     0.000000000  0.000000000  6.810000000     0.000000000  0.000000000  0.146842878

  length of vectors
     7.390000000  9.420000000  6.810000000     0.135317997  0.106157113  0.146842878

  position of ions in fractional coordinates (direct lattice)
     0.939965748  0.140638731  0.993606209
     0.862030042  0.045245888  0.126129911
     0.077486319  0.095246789  0.867533964
     0.922513685  0.904753210  0.132466047
     0.137969958  0.954754112  0.873870093
     0.060034259  0.859361269  0.006393801
     0.560034252  0.640638712  0.993606208
     0.939965742  0.359361274  0.493606194
     0.560034239  0.859361268  0.493606227
     0.439965754  0.359361285  0.006393791
     0.060034252  0.640638726  0.506393804
     0.439965756  0.140638729  0.506393782
     0.637969954  0.545245885  0.126129906
     0.862030046  0.454754108  0.626129912
     0.637969968  0.954754108  0.626129917
     0.362030046  0.454754112  0.873870099
     0.137969954  0.545245892  0.373870092
     0.362030033  0.045245889  0.373870086
     0.422513687  0.595246769  0.867533975
     0.077486310  0.404753218  0.367533955
     0.422513672  0.904753212  0.367533983
     0.577486317  0.404753229  0.132466023
     0.922513687  0.595246781  0.632466042
     0.577486325  0.095246786  0.632466028
     0.893622965  0.250489199  0.988332432
     0.753677989  0.079290863  0.224073273
     0.137258568  0.169150403  0.763033654
     0.862741433  0.830849596  0.236966350
     0.246322011  0.920709136  0.775926731
     0.106377036  0.749510799  0.011667572
     0.606377034  0.750489211  0.988332430
     0.893622961  0.249510795  0.488332423
     0.606377041  0.749510789  0.488332433
     0.393622966  0.249510788  0.011667574
     0.106377039  0.750489203  0.511667581
     0.393622959  0.250489210  0.511667571
     0.746321999  0.579290863  0.224073263
     0.753677995  0.420709131  0.724073263
     0.746322000  0.920709137  0.724073257
     0.253678001  0.420709135  0.775926741
     0.246322006  0.579290868  0.275926741
     0.253678001  0.079290861  0.275926747
     0.362741433  0.669150397  0.763033648
     0.137258570  0.330849605  0.263033644
     0.362741424  0.830849591  0.263033641
     0.637258567  0.330849600  0.236966356
     0.862741431  0.669150394  0.736966360
     0.637258576  0.169150407  0.736966362

  ion indices of the primitive-cell ions
   primitive index   ion index
                 1           1
                 2           2
                 3           3
                 4           4
                 5           5
                 6           6
                 7           7
                 8           8
                 9           9
                10          10
                11          11
                12          12
                13          13
                14          14
                15          15
                16          16
                17          17
                18          18
                19          19
                20          20
                21          21
                22          22
                23          23
                24          24
                25          25
                26          26
                27          27
                28          28
                29          29
                30          30
                31          31
                32          32
                33          33
                34          34
                35          35
                36          36
                37          37
                38          38
                39          39
                40          40
                41          41
                42          42
                43          43
                44          44
                45          45
                46          46
                47          47
                48          48

----------------------------------------------------------------------------------------



 KPOINTS: auto                                    

Automatic generation of k-mesh.
 Grid dimensions read from file:
 generate k-points for:    4    3    4

 Generating k-lattice:

  Cartesian coordinates                     Fractional coordinates (reciprocal lattice)
     0.033829499  0.000000000  0.000000000     0.250000000  0.000000000  0.000000000
     0.000000000  0.035385704  0.000000000     0.000000000  0.333333333  0.000000000
     0.000000000  0.000000000  0.036710720     0.000000000  0.000000000  0.250000000

  Length of vectors
     0.033829499  0.035385704  0.036710720

  Shift w.r.t. Gamma in fractional coordinates (k-lattice)
     0.000000000  0.000000000  0.000000000

 
 Subroutine IBZKPT returns following result:
 ===========================================
 
 Found     18 irreducible k-points:
 
 Following reciprocal coordinates:
            Coordinates               Weight
  0.000000  0.000000  0.000000      1.000000
  0.250000  0.000000  0.000000      2.000000
  0.500000  0.000000  0.000000      1.000000
  0.000000  0.333333  0.000000      2.000000
  0.250000  0.333333  0.000000      4.000000
  0.500000  0.333333  0.000000      2.000000
  0.000000  0.000000  0.250000      2.000000
  0.250000  0.000000  0.250000      4.000000
  0.500000  0.000000  0.250000      2.000000
  0.000000  0.333333  0.250000      4.000000
  0.250000  0.333333  0.250000      8.000000
  0.500000  0.333333  0.250000      4.000000
  0.000000  0.000000  0.500000      1.000000
  0.250000  0.000000  0.500000      2.000000
  0.500000  0.000000  0.500000      1.000000
  0.000000  0.333333  0.500000      2.000000
  0.250000  0.333333  0.500000      4.000000
  0.500000  0.333333  0.500000      2.000000
 
 Following cartesian coordinates:
            Coordinates               Weight
  0.000000  0.000000  0.000000      1.000000
  0.033829  0.000000  0.000000      2.000000
  0.067659  0.000000  0.000000      1.000000
  0.000000  0.035386  0.000000      2.000000
  0.033829  0.035386  0.000000      4.000000
  0.067659  0.035386  0.000000      2.000000
  0.000000  0.000000  0.036711      2.000000
  0.033829  0.000000  0.036711      4.000000
  0.067659  0.000000  0.036711      2.000000
  0.000000  0.035386  0.036711      4.000000
  0.033829  0.035386  0.036711      8.000000
  0.067659  0.035386  0.036711      4.000000
  0.000000  0.000000  0.073421      1.000000
  0.033829  0.000000  0.073421      2.000000
  0.067659  0.000000  0.073421      1.000000
  0.000000  0.035386  0.073421      2.000000
  0.033829  0.035386  0.073421      4.000000
  0.067659  0.035386  0.073421      2.000000
 


--------------------------------------------------------------------------------------------------------




 Dimension of arrays:
   k-points           NKPTS =     18   k-points in BZ     NKDIM =     18   number of bands    NBANDS=     88
   number of dos      NEDOS =    301   number of ions     NIONS =     48
   non local maximal  LDIM  =      4   non local SUM 2l+1 LMDIM =      8
   total plane-waves  NPLWV = 548800
   max r-space proj   IRMAX =      1   max aug-charges    IRDMAX=   7878
   dimension x,y,z NGX =    80 NGY =   98 NGZ =   70
   dimension x,y,z NGXF=   160 NGYF=  196 NGZF=  140
   support grid    NGXF=   160 NGYF=  196 NGZF=  140
   ions per type =              24  24
   NGX,Y,Z   is equivalent  to a cutoff of  18.00, 17.30, 17.09 a.u.
   NGXF,Y,Z  is equivalent  to a cutoff of  35.99, 34.59, 34.18 a.u.

 SYSTEM =  unknown system                          
 POSCAR =   C  H                                   

 Startparameter for this run:
   NWRITE =      2    write-flag & timer
   PREC   = accura    normal or accurate (medium, high low for compatibility)
   ISTART =      0    job   : 0-new  1-cont  2-samecut
   ICHARG =      2    charge: 1-file 2-atom 10-const
   ISPIN  =      1    spin polarized calculation?
   LNONCOLLINEAR =      F non collinear calculations
   LSORBIT =      F    spin-orbit coupling
   INIWAV =      1    electr: 0-lowe 1-rand  2-diag
   LASPH  =      T    aspherical Exc in radial PAW
 Electronic Relaxation 1
   ENCUT  = 1000.0 eV  73.50 Ry    8.57 a.u.  19.05 24.29 17.56*2*pi/ulx,y,z
   ENINI  = 1000.0     initial cutoff
   ENAUG  = 1000.0 eV  augmentation charge cutoff
   NELM   =     60;   NELMIN=  2; NELMDL= -5     # of ELM steps 
   EDIFF  = 0.1E-06   stopping-criterion for ELM
   LREAL  =      F    real-space projection
   NLSPLINE    = F    spline interpolate recip. space projectors
   LCOMPAT=      F    compatible to vasp.4.4
   GGA_COMPAT  = T    GGA compatible to vasp.4.4-vasp.4.6
   LMAXPAW     = -100 max onsite density
   LMAXMIX     =    2 max onsite mixed and CHGCAR
   VOSKOWN=      0    Vosko Wilk Nusair interpolation
   ROPT   =    0.00000   0.00000
 Ionic relaxation
   EDIFFG = 0.1E-05   stopping-criterion for IOM
   NSW    =      0    number of steps for IOM
   NBLOCK =      1;   KBLOCK =      1    inner block; outer block 
   IBRION =     -1    ionic relax: 0-MD 1-quasi-New 2-CG
   NFREE  =      0    steps in history (QN), initial steepest desc. (CG)
   ISIF   =      0    stress and relaxation
   IWAVPR =     10    prediction:  0-non 1-charg 2-wave 3-comb
   ISYM   =      2    0-nonsym 1-usesym 2-fastsym
   LCORR  =      T    Harris-Foulkes like correction to forces

   POTIM  = 0.5000    time-step for ionic-motion
   TEIN   =    0.0    initial temperature
   TEBEG  =    0.0;   TEEND  =   0.0 temperature during run
   SMASS  =  -3.00    Nose mass-parameter (am)
   estimated Nose-frequenzy (Omega)   =  0.10E-29 period in steps = 0.13E+47 mass=  -0.125E-26a.u.
   SCALEE = 1.0000    scale energy and forces
   NPACO  =    256;   APACO  = 10.0  distance and # of slots for P.C.
   PSTRESS=    0.0 pullay stress

  Mass of Ions in am
   POMASS =  12.01  1.00
  Ionic Valenz
   ZVAL   =   4.00  1.00
  Atomic Wigner-Seitz radii
   RWIGS  =  -1.00 -1.00
  virtual crystal weights 
   VCA    =   1.00  1.00
   NELECT =     120.0000    total number of electrons
   NUPDOWN=      -1.0000    fix difference up-down

 DOS related values:
   EMIN   =  10.00;   EMAX   =-10.00  energy-range for DOS
   EFERMI =   0.00;   METHOD = LEGACY      
   ISMEAR =     0;   SIGMA  =   0.01  broadening in eV -4-tet -1-fermi 0-gaus

 Electronic relaxation 2 (details)
   IALGO  =     58    algorithm
   LDIAG  =      T    sub-space diagonalisation (order eigenvalues)
   LSUBROT=      F    optimize rotation matrix (better conditioning)
   TURBO    =      0    0=normal 1=particle mesh
   IRESTART =      0    0=no restart 2=restart with 2 vectors
   NREBOOT  =      0    no. of reboots
   NMIN     =      0    reboot dimension
   EREF     =   0.00    reference energy to select bands
   IMIX   =      4    mixing-type and parameters
     AMIX     =   0.40;   BMIX     =  1.00
     AMIX_MAG =   1.60;   BMIX_MAG =  1.00
     AMIN     =   0.10
     WC   =   100.;   INIMIX=   1;  MIXPRE=   1;  MAXMIX= -45

 Intra band minimization:
   WEIMIN = 0.0000     energy-eigenvalue tresh-hold
   EBREAK =  0.28E-09  absolut break condition
   DEPER  =   0.30     relativ break condition  

   TIME   =   0.40     timestep for ELM

  volume/ion in A,a.u.               =       9.88        66.65
  Fermi-wavevector in a.u.,A,eV,Ry     =   1.035590  1.956981 14.591517  1.072446
  Thomas-Fermi vector in A             =   2.169940

 Write flags
   LWAVE        =      F    write WAVECAR
   LDOWNSAMPLE  =      F    k-point downsampling of WAVECAR
   LCHARG       =      T    write CHGCAR
   LVTOT        =      F    write LOCPOT, total local potential
   LVHAR        =      F    write LOCPOT, Hartree potential only
   LELF         =      F    write electronic localiz. function (ELF)
   LORBIT       =      0    0 simple, 1 ext, 2 COOP (PROOUT), +10 PAW based schemes


 Dipole corrections
   LMONO  =      F    monopole corrections only (constant potential shift)
   LDIPOL =      F    correct potential (dipole corrections)
   IDIPOL =      0    1-x, 2-y, 3-z, 4-all directions 
   EPSILON=  1.0000000 bulk dielectric constant

 Exchange correlation treatment:
   GGA     =    MK    GGA type
   LEXCH   =    43    internal setting for exchange type
   LIBXC   =     F    Libxc                    
   VOSKOWN =     0    Vosko Wilk Nusair interpolation
   LHFCALC =     F    Hartree Fock is set to
   LHFONE  =     F    Hartree Fock one center treatment
   AEXX    =    0.0000 exact exchange contribution

 vdW DFT:
   LUSE_VDW   =     T    switch on vdW DFT
   IVDW_NL    =     1    kernel type
   LSPIN_VDW  =     F    use spin-polarized vdW DFT
   Zab_VDW    =-.8491    correlation parameter
   PARAM1     =0.1234
   PARAM2     =1.0000
   PARAM3     =0.0000
   -- rVV10 --
   BPARAM     = 6.3000
   CPARAM     = 0.0093

 Linear response parameters
   LEPSILON=     F    determine dielectric tensor
   LRPA    =     F    only Hartree local field effects (RPA)
   LNABLA  =     F    use nabla operator in PAW spheres
   LVEL    =     F    velocity operator in full k-point grid
   CSHIFT  =0.1000    complex shift for real part using Kramers Kronig
   OMEGAMAX=  -1.0    maximum frequency
   DEG_THRESHOLD= 0.2000000E-02 threshold for treating states as degnerate
   RTIME   =   -0.100 relaxation time in fs
  (WPLASMAI=    0.000 imaginary part of plasma frequency in eV, 0.658/RTIME)
   DFIELD  = 0.0000000 0.0000000 0.0000000 field for delta impulse in time

  Optional k-point grid parameters
   LKPOINTS_OPT  =     F    use optional k-point grid
   KPOINTS_OPT_MODE=     1    mode for optional k-point grid

 Orbital magnetization related:
   ORBITALMAG=     F  switch on orbital magnetization
   LCHIMAG   =     F  perturbation theory with respect to B field
   DQ        =  0.001000  dq finite difference perturbation B field
   LLRAUG    =     F  two centre corrections for induced B field
   LBONE     =     F  B-component reconstruction in AE one-centre
   LVGVCALC  =     T  calculate vGv susceptibility
   LVGVAPPL  =     F  apply vGv susceptibility instead of pGv for G=0

 Random number generation:
   RANDOM_GENERATOR = DEFAULT
   PCG_SEED         = not used


--------------------------------------------------------------------------------------------------------


 Static calculation
 charge density and potential will be updated during run
 non-spin polarized calculation
 Conjugate gradient for all bands (Freysoldt, et al. PRB 79, 241103 (2009))
 preconditioned conjugated gradient                                        
 perform sub-space diagonalisation
    before iterative eigenvector-optimisation
 modified Broyden-mixing scheme, WC =      100.0
 initial mixing is a Kerker type mixing with AMIX =  0.4000 and BMIX =      1.0000
 Hartree-type preconditioning will be used
 using additional bands           28
 reciprocal scheme for non local part
 use partial core corrections
 no Harris-corrections to forces 
 use gradient corrections 
 use of overlap-Matrix (Vanderbilt PP)
 Gauss-broadening in eV      SIGMA  =   0.01


--------------------------------------------------------------------------------------------------------


  energy-cutoff  :     1000.00
  volume of cell :      474.07
      direct lattice vectors                 reciprocal lattice vectors
     7.390000000  0.000000000  0.000000000     0.135317997  0.000000000  0.000000000
     0.000000000  9.420000000  0.000000000     0.000000000  0.106157113  0.000000000
     0.000000000  0.000000000  6.810000000     0.000000000  0.000000000  0.146842878

  length of vectors
     7.390000000  9.420000000  6.810000000     0.135317997  0.106157113  0.146842878



 k-points in units of 2pi/SCALE and weight: auto                                    
   0.00000000  0.00000000  0.00000000       0.021
   0.03382950  0.00000000  0.00000000       0.042
   0.06765900  0.00000000  0.00000000       0.021
   0.00000000  0.03538570  0.00000000       0.042
   0.03382950  0.03538570  0.00000000       0.083
   0.06765900  0.03538570  0.00000000       0.042
   0.00000000  0.00000000  0.03671072       0.042
   0.03382950  0.00000000  0.03671072       0.083
   0.06765900  0.00000000  0.03671072       0.042
   0.00000000  0.03538570  0.03671072       0.083
   0.03382950  0.03538570  0.03671072       0.167
   0.06765900  0.03538570  0.03671072       0.083
   0.00000000  0.00000000  0.07342144       0.021
   0.03382950  0.00000000  0.07342144       0.042
   0.06765900  0.00000000  0.07342144       0.021
   0.00000000  0.03538570  0.07342144       0.042
   0.03382950  0.03538570  0.07342144       0.083
   0.06765900  0.03538570  0.07342144       0.042

 k-points in reciprocal lattice and weights: auto                                    
   0.00000000  0.00000000  0.00000000       0.021
   0.25000000  0.00000000  0.00000000       0.042
   0.50000000  0.00000000  0.00000000       0.021
   0.00000000  0.33333333  0.00000000       0.042
   0.25000000  0.33333333  0.00000000       0.083
   0.50000000  0.33333333  0.00000000       0.042
   0.00000000  0.00000000  0.25000000       0.042
   0.25000000  0.00000000  0.25000000       0.083
   0.50000000  0.00000000  0.25000000       0.042
   0.00000000  0.33333333  0.25000000       0.083
   0.25000000  0.33333333  0.25000000       0.167
   0.50000000  0.33333333  0.25000000       0.083
   0.00000000  0.00000000  0.50000000       0.021
   0.25000000  0.00000000  0.50000000       0.042
   0.50000000  0.00000000  0.50000000       0.021
   0.00000000  0.33333333  0.50000000       0.042
   0.25000000  0.33333333  0.50000000       0.083
   0.50000000  0.33333333  0.50000000       0.042

 position of ions in fractional coordinates (direct lattice) 
   0.93996575  0.14063873  0.99360621
   0.86203004  0.04524589  0.12612991
   0.07748632  0.09524679  0.86753396
   0.92251369  0.90475321  0.13246605
   0.13796996  0.95475411  0.87387009
   0.06003426  0.85936127  0.00639380
   0.56003425  0.64063871  0.99360621
   0.93996574  0.35936127  0.49360619
   0.56003424  0.85936127  0.49360623
   0.43996575  0.35936128  0.00639379
   0.06003425  0.64063873  0.50639380
   0.43996576  0.14063873  0.50639378
   0.63796995  0.54524589  0.12612991
   0.86203005  0.45475411  0.62612991
   0.63796997  0.95475411  0.62612992
   0.36203005  0.45475411  0.87387010
   0.13796995  0.54524589  0.37387009
   0.36203003  0.04524589  0.37387009
   0.42251369  0.59524677  0.86753397
   0.07748631  0.40475322  0.36753396
   0.42251367  0.90475321  0.36753398
   0.57748632  0.40475323  0.13246602
   0.92251369  0.59524678  0.63246604
   0.57748632  0.09524679  0.63246603
   0.89362296  0.25048920  0.98833243
   0.75367799  0.07929086  0.22407327
   0.13725857  0.16915040  0.76303365
   0.86274143  0.83084960  0.23696635
   0.24632201  0.92070914  0.77592673
   0.10637704  0.74951080  0.01166757
   0.60637703  0.75048921  0.98833243
   0.89362296  0.24951080  0.48833242
   0.60637704  0.74951079  0.48833243
   0.39362297  0.24951079  0.01166757
   0.10637704  0.75048920  0.51166758
   0.39362296  0.25048921  0.51166757
   0.74632200  0.57929086  0.22407326
   0.75367799  0.42070913  0.72407326
   0.74632200  0.92070914  0.72407326
   0.25367800  0.42070914  0.77592674
   0.24632201  0.57929087  0.27592674
   0.25367800  0.07929086  0.27592675
   0.36274143  0.66915040  0.76303365
   0.13725857  0.33084960  0.26303364
   0.36274142  0.83084959  0.26303364
   0.63725857  0.33084960  0.23696636
   0.86274143  0.66915039  0.73696636
   0.63725858  0.16915041  0.73696636

 position of ions in cartesian coordinates  (Angst):
   6.94634688  1.32481685  6.76645828
   6.37040201  0.42621627  0.85894469
   0.57262390  0.89722475  5.90790629
   6.81737613  8.52277523  0.90209378
   1.01959799  8.99378373  5.95105534
   0.44365317  8.09518316  0.04354179
   4.13865312  6.03481667  6.76645828
   6.94634683  3.38518320  3.36145818
   4.13865302  8.09518314  3.36145840
   3.25134692  3.38518330  0.04354172
   0.44365312  6.03481680  3.44854181
   3.25134694  1.32481683  3.44854166
   4.71459796  5.13621624  0.85894466
   6.37040204  4.28378370  4.26394470
   4.71459806  8.99378370  4.26394474
   2.67540204  4.28378373  5.95105538
   1.01959796  5.13621630  2.54605532
   2.67540194  0.42621627  2.54605529
   3.12237615  5.60722456  5.90790637
   0.57262383  3.81277531  2.50290624
   3.12237604  8.52277526  2.50290643
   4.26762388  3.81277542  0.90209362
   6.81737614  5.60722467  4.30709374
   4.26762394  0.89722472  4.30709365
   6.60387371  2.35960826  6.73054386
   5.56968034  0.74691993  1.52593899
   1.01434081  1.59339679  5.19625918
   6.37565919  7.82660320  1.61374085
   1.82031966  8.67308006  5.28406104
   0.78612630  7.06039173  0.07945617
   4.48112628  7.06960836  6.73054385
   6.60387368  2.35039169  3.32554380
   4.48112633  7.06039163  3.32554387
   2.90887372  2.35039162  0.07945618
   0.78612632  7.06960829  3.48445623
   2.90887367  2.35960835  3.48445616
   5.51531957  5.45691993  1.52593892
   5.56968038  3.96308001  4.93093892
   5.51531958  8.67308007  4.93093888
   1.87468043  3.96308005  5.28406111
   1.82031962  5.45691998  1.87906111
   1.87468042  0.74691991  1.87906115
   2.68065919  6.30339674  5.19625914
   1.01434083  3.11660328  1.79125911
   2.68065912  7.82660315  1.79125910
   4.70934081  3.11660323  1.61374088
   6.37565917  6.30339671  5.01874091
   4.70934088  1.59339683  5.01874093



--------------------------------------------------------------------------------------------------------


 k-point   1 :   0.0000 0.0000 0.0000  plane waves:   33969
 k-point   2 :   0.2500 0.0000 0.0000  plane waves:   34052
 k-point   3 :   0.5000 0.0000 0.0000  plane waves:   34066
 k-point   4 :   0.0000 0.3333 0.0000  plane waves:   33996
 k-point   5 :   0.2500 0.3333 0.0000  plane waves:   34055
 k-point   6 :   0.5000 0.3333 0.0000  plane waves:   34066
 k-point   7 :   0.0000 0.0000 0.2500  plane waves:   34069
 k-point   8 :   0.2500 0.0000 0.2500  plane waves:   34038
 k-point   9 :   0.5000 0.0000 0.2500  plane waves:   34076
 k-point  10 :   0.0000 0.3333 0.2500  plane waves:   34040
 k-point  11 :   0.2500 0.3333 0.2500  plane waves:   34059
 k-point  12 :   0.5000 0.3333 0.2500  plane waves:   34026
 k-point  13 :   0.0000 0.0000 0.5000  plane waves:   34016
 k-point  14 :   0.2500 0.0000 0.5000  plane waves:   34052
 k-point  15 :   0.5000 0.0000 0.5000  plane waves:   34052
 k-point  16 :   0.0000 0.3333 0.5000  plane waves:   34014
 k-point  17 :   0.2500 0.3333 0.5000  plane waves:   34012
 k-point  18 :   0.5000 0.3333 0.5000  plane waves:   34040

 maximum and minimum number of plane-waves per node :       552      497

 maximum number of plane-waves:     34076
 maximum index in each direction: 
   IXMAX=   19   IYMAX=   24   IZMAX=   17
   IXMIN=  -19   IYMIN=  -24   IZMIN=  -18


 parallel 3D FFT for wavefunctions:
    minimum data exchange during FFTs selected (reduces bandwidth)
 parallel 3D FFT for charge:
    minimum data exchange during FFTs selected (reduces bandwidth)


 total amount of memory used by VASP MPI-rank0    45351. kBytes
=======================================================================

   base      :      30000. kBytes
   nonl-proj :       1634. kBytes
   fftplans  :       1347. kBytes
   grid      :       2104. kBytes
   one-center:          3. kBytes
   wavefun   :      10263. kBytes

     INWAV:  cpu time      0.0002: real time      0.0004
 Broyden mixing: mesh for mixing (old mesh)
   NGX = 39   NGY = 49   NGZ = 35
  (NGX  =160   NGY  =196   NGZ  =140)
  gives a total of  66885 points

 initial charge density was supplied:
 charge density of overlapping atoms calculated
 number of electron     120.0000000 magnetization 
 keeping initial charge density in first step


--------------------------------------------------------------------------------------------------------


 Maximum index for augmentation-charges          186 (set IRDMAX)


--------------------------------------------------------------------------------------------------------


 First call to EWALD:  gamma=   0.227
 Maximum number of real-space cells 3x 2x 3
 Maximum number of reciprocal cells 3x 3x 2

    FEWALD:  cpu time      0.0042: real time      0.0042


--------------------------------------- Ionic step        1  -------------------------------------------




--------------------------------------- Iteration      1(   1)  ---------------------------------------


vdW kernel read from vdw_kernel.bindat
  0.0000  0.2424  0.5071  0.7962  1.1119  1.4567  1.8333  2.2446  2.6937  3.1842
  3.7199  4.3049  4.9438  5.6415  6.4036  7.2358  8.1446  9.1372 10.2212 11.4050
 12.6979 14.1099 15.6519 17.3360 19.1751 21.1837 23.3773 25.7729 28.3892 31.2465
 34.3669 37.7748 41.4965 45.5611 50.0000

    POTLOK:  cpu time      1.4805: real time      1.4850
    SETDIJ:  cpu time      0.0768: real time      0.0772
    TRIAL :  cpu time      2.2071: real time      2.2103
    CORREC:  cpu time      0.0033: real time      0.0036
    --------------------------------------------
      LOOP:  cpu time      3.7736: real time      3.7820

 eigenvalue-minimisations  :  3168
 total energy-change (2. order) : 0.8315605E+03  (-0.8457652E+04)
 number of electron     120.0000000 magnetization 
 augmentation part      120.0000000 magnetization 

 Free energy of the ion-electron system (eV)
  ---------------------------------------------------
  alpha Z        PSCENC =        97.96435000
  Ewald energy   TEWEN  =     -1690.83155021
  -Hartree energ DENC   =     -1677.15023986
  -exchange      EXHF   =         0.00000000
  -V(xc)+E(xc)   XCENC  =       221.89822335
  PAW double counting   =      2774.01293725    -2634.44846700
  entropy T*S    EENTRO =        -0.00126340
  eigenvalues    EBANDS =      -113.99938039
  atomic energy  EATOM  =      3854.11588398
  ---------------------------------------------------
  free energy    TOTEN  =       831.56049372 eV

  energy without entropy =      831.56175712  energy(sigma->0) =      831.56112542


--------------------------------------------------------------------------------------------------------




--------------------------------------- Iteration      1(   2)  ---------------------------------------


    TRIAL :  cpu time      2.6546: real time      2.6556
    CORREC:  cpu time      0.0004: real time      0.0004
    --------------------------------------------
      LOOP:  cpu time      2.6690: real time      2.6850

 eigenvalue-minimisations  :  4128
 total energy-change (2. order) :-0.9922478E+03  (-0.9485073E+03)
 number of electron     120.0000000 magnetization 
 augmentation part      120.0000000 magnetization 

 Free energy of the ion-electron system (eV)
  ---------------------------------------------------
  alpha Z        PSCENC =        97.96435000
  Ewald energy   TEWEN  =     -1690.83155021
  -Hartree energ DENC   =     -1677.15023986
  -exchange      EXHF   =         0.00000000
  -V(xc)+E(xc)   XCENC  =       221.89822335
  PAW double counting   =      2774.01293725    -2634.44846700
  entropy T*S    EENTRO =        -0.00000000
  eigenvalues    EBANDS =     -1106.24840881
  atomic energy  EATOM  =      3854.11588398
  ---------------------------------------------------
  free energy    TOTEN  =      -160.68727130 eV

  energy without entropy =     -160.68727130  energy(sigma->0) =     -160.68727130


--------------------------------------------------------------------------------------------------------




--------------------------------------- Iteration      1(   3)  ---------------------------------------


    TRIAL :  cpu time      2.5453: real time      2.5463
    CORREC:  cpu time      0.0003: real time      0.0003
    --------------------------------------------
      LOOP:  cpu time      2.5581: real time      2.5741

 eigenvalue-minimisations  :  3952
 total energy-change (2. order) :-0.1373462E+03  (-0.1362118E+03)
 number of electron     120.0000000 magnetization 
 augmentation part      120.0000000 magnetization 

 Free energy of the ion-electron system (eV)
  ---------------------------------------------------
  alpha Z        PSCENC =        97.96435000
  Ewald energy   TEWEN  =     -1690.83155021
  -Hartree energ DENC   =     -1677.15023986
  -exchange      EXHF   =         0.00000000
  -V(xc)+E(xc)   XCENC  =       221.89822335
  PAW double counting   =      2774.01293725    -2634.44846700
  entropy T*S    EENTRO =        -0.00000000
  eigenvalues    EBANDS =     -1243.59461725
  atomic energy  EATOM  =      3854.11588398
  ---------------------------------------------------
  free energy    TOTEN  =      -298.03347974 eV

  energy without entropy =     -298.03347974  energy(sigma->0) =     -298.03347974


--------------------------------------------------------------------------------------------------------




--------------------------------------- Iteration      1(   4)  ---------------------------------------


    TRIAL :  cpu time      2.6034: real time      2.6048
    CORREC:  cpu time      0.0003: real time      0.0003
    --------------------------------------------
      LOOP:  cpu time      2.6329: real time      2.6347

 eigenvalue-minimisations  :  4136
 total energy-change (2. order) :-0.4902726E+01  (-0.4885598E+01)
 number of electron     120.0000000 magnetization 
 augmentation part      120.0000000 magnetization 

 Free energy of the ion-electron system (eV)
  ---------------------------------------------------
  alpha Z        PSCENC =        97.96435000
  Ewald energy   TEWEN  =     -1690.83155021
  -Hartree energ DENC   =     -1677.15023986
  -exchange      EXHF   =         0.00000000
  -V(xc)+E(xc)   XCENC  =       221.89822335
  PAW double counting   =      2774.01293725    -2634.44846700
  entropy T*S    EENTRO =        -0.00000000
  eigenvalues    EBANDS =     -1248.49734284
  atomic energy  EATOM  =      3854.11588398
  ---------------------------------------------------
  free energy    TOTEN  =      -302.93620533 eV

  energy without entropy =     -302.93620533  energy(sigma->0) =     -302.93620533


--------------------------------------------------------------------------------------------------------




--------------------------------------- Iteration      1(   5)  ---------------------------------------


    TRIAL :  cpu time      2.5748: real time      2.5762
    CORREC:  cpu time      0.0003: real time      0.0003
    CHARGE:  cpu time      0.2064: real time      0.2075
    --------------------------------------------
      LOOP:  cpu time      2.8077: real time      2.8129

 eigenvalue-minimisations  :  4080
 total energy-change (2. order) :-0.1548301E+00  (-0.1547383E+00)
 number of electron     120.0000001 magnetization 
 augmentation part       -0.0364902 magnetization 

 Free energy of the ion-electron system (eV)
  ---------------------------------------------------
  alpha Z        PSCENC =        97.96435000
  Ewald energy   TEWEN  =     -1690.83155021
  -Hartree energ DENC   =     -1677.15023986
  -exchange      EXHF   =         0.00000000
  -V(xc)+E(xc)   XCENC  =       221.89822335
  PAW double counting   =      2774.01293725    -2634.44846700
  entropy T*S    EENTRO =        -0.00000000
  eigenvalues    EBANDS =     -1248.65217289
  atomic energy  EATOM  =      3854.11588398
  ---------------------------------------------------
  free energy    TOTEN  =      -303.09103538 eV

  energy without entropy =     -303.09103538  energy(sigma->0) =     -303.09103538


--------------------------------------------------------------------------------------------------------




--------------------------------------- Iteration      1(   6)  ---------------------------------------


    POTLOK:  cpu time      0.8554: real time      0.8561
    SETDIJ:  cpu time      0.0681: real time      0.0681
    TRIAL :  cpu time      1.2810: real time      1.2826
    CORREC:  cpu time      1.6456: real time      1.6463
    CHARGE:  cpu time      0.1744: real time      0.1745
    --------------------------------------------
      LOOP:  cpu time      4.0362: real time      4.0552

 eigenvalue-minimisations  :     0
 total energy-change (2. order) : 0.5108161E+02  (-0.1997374E+02)
 number of electron     120.0000001 magnetization 
 augmentation part       -0.0735234 magnetization 

 Free energy of the ion-electron system (eV)
  ---------------------------------------------------
  alpha Z        PSCENC =        97.96435000
  Ewald energy   TEWEN  =     -1690.83155021
  -Hartree energ DENC   =     -2367.99882066
  -exchange      EXHF   =         0.00000000
  -V(xc)+E(xc)   XCENC  =       261.82738872
  PAW double counting   =     33808.74254470   -33672.01587706
  entropy T*S    EENTRO =        -0.00000000
  eigenvalues    EBANDS =      -543.81334482
  atomic energy  EATOM  =      3854.11588398
  ---------------------------------------------------
  free energy    TOTEN  =      -252.00942535 eV

  energy without entropy =     -252.00942535  energy(sigma->0) =     -252.00942535


--------------------------------------------------------------------------------------------------------




--------------------------------------- Iteration      1(   7)  ---------------------------------------


    POTLOK:  cpu time      0.8550: real time      0.8553
    SETDIJ:  cpu time      0.0682: real time      0.0682
    TRIAL :  cpu time      1.2380: real time      1.2383
    CORREC:  cpu time      1.6456: real time      1.6463
    CHARGE:  cpu time      0.1747: real time      0.1748
    --------------------------------------------
      LOOP:  cpu time      4.0098: real time      4.0113

 eigenvalue-minimisations  :     0
 total energy-change (2. order) :-0.1996443E+02  (-0.2184837E+01)
 number of electron     120.0000001 magnetization 
 augmentation part       -0.1059748 magnetization 

 Free energy of the ion-electron system (eV)
  ---------------------------------------------------
  alpha Z        PSCENC =        97.96435000
  Ewald energy   TEWEN  =     -1690.83155021
  -Hartree energ DENC   =     -2070.11263047
  -exchange      EXHF   =         0.00000000
  -V(xc)+E(xc)   XCENC  =       246.97532613
  PAW double counting   =     42569.91898982   -42431.49415634
  entropy T*S    EENTRO =        -0.00000000
  eigenvalues    EBANDS =      -848.51007257
  atomic energy  EATOM  =      3854.11588398
  ---------------------------------------------------
  free energy    TOTEN  =      -271.97385966 eV

  energy without entropy =     -271.97385966  energy(sigma->0) =     -271.97385966


--------------------------------------------------------------------------------------------------------




--------------------------------------- Iteration      1(   8)  ---------------------------------------


    POTLOK:  cpu time      0.9005: real time      0.9008
    SETDIJ:  cpu time      0.0681: real time      0.0681
    TRIAL :  cpu time      1.2655: real time      1.2658
    CORREC:  cpu time      1.6457: real time      1.6464
    CHARGE:  cpu time      0.1749: real time      0.1749
    --------------------------------------------
      LOOP:  cpu time      4.0697: real time      4.0849

 eigenvalue-minimisations  :     0
 total energy-change (2. order) :-0.2172847E+01  (-0.7218725E+00)
 number of electron     120.0000000 magnetization 
 augmentation part       -0.1069334 magnetization 

 Free energy of the ion-electron system (eV)
  ---------------------------------------------------
  alpha Z        PSCENC =        97.96435000
  Ewald energy   TEWEN  =     -1690.83155021
  -Hartree energ DENC   =     -2057.70908600
  -exchange      EXHF   =         0.00000000
  -V(xc)+E(xc)   XCENC  =       246.63185072
  PAW double counting   =     44841.79176495   -44703.20383527
  entropy T*S    EENTRO =        -0.00000000
  eigenvalues    EBANDS =      -862.90608507
  atomic energy  EATOM  =      3854.11588398
  ---------------------------------------------------
  free energy    TOTEN  =      -274.14670689 eV

  energy without entropy =     -274.14670689  energy(sigma->0) =     -274.14670689


--------------------------------------------------------------------------------------------------------




--------------------------------------- Iteration      1(   9)  ---------------------------------------


    POTLOK:  cpu time      0.8572: real time      0.8574
    SETDIJ:  cpu time      0.0688: real time      0.0688
    TRIAL :  cpu time      1.2365: real time      1.2367
    CORREC:  cpu time      1.6399: real time      1.6405
    CHARGE:  cpu time      0.1740: real time      0.1740
    --------------------------------------------
      LOOP:  cpu time      3.9886: real time      4.0065

 eigenvalue-minimisations  :     0
 total energy-change (2. order) :-0.7120214E+00  (-0.2034500E+00)
 number of electron     120.0000000 magnetization 
 augmentation part       -0.1074513 magnetization 

 Free energy of the ion-electron system (eV)
  ---------------------------------------------------
  alpha Z        PSCENC =        97.96435000
  Ewald energy   TEWEN  =     -1690.83155021
  -Hartree energ DENC   =     -2042.39689097
  -exchange      EXHF   =         0.00000000
  -V(xc)+E(xc)   XCENC  =       245.92756063
  PAW double counting   =     44548.92897881   -44410.26173006
  entropy T*S    EENTRO =        -0.00000000
  eigenvalues    EBANDS =      -878.30533048
  atomic energy  EATOM  =      3854.11588398
  ---------------------------------------------------
  free energy    TOTEN  =      -274.85872830 eV

  energy without entropy =     -274.85872830  energy(sigma->0) =     -274.85872830


--------------------------------------------------------------------------------------------------------




--------------------------------------- Iteration      1(  10)  ---------------------------------------


    POTLOK:  cpu time      0.8566: real time      0.8568
    SETDIJ:  cpu time      0.0686: real time      0.0686
    TRIAL :  cpu time      1.2369: real time      1.2372
    CORREC:  cpu time      1.6353: real time      1.6359
    CHARGE:  cpu time      0.1751: real time      0.1751
    --------------------------------------------
      LOOP:  cpu time      3.9856: real time      4.0022

 eigenvalue-minimisations  :     0
 total energy-change (2. order) :-0.2023402E+00  (-0.3985102E-01)
 number of electron     120.0000000 magnetization 
 augmentation part       -0.1077805 magnetization 

 Free energy of the ion-electron system (eV)
  ---------------------------------------------------
  alpha Z        PSCENC =        97.96435000
  Ewald energy   TEWEN  =     -1690.83155021
  -Hartree energ DENC   =     -2037.81448561
  -exchange      EXHF   =         0.00000000
  -V(xc)+E(xc)   XCENC  =       245.68084699
  PAW double counting   =     43497.97266747   -43359.33695216
  entropy T*S    EENTRO =        -0.00000000
  eigenvalues    EBANDS =      -882.81182899
  atomic energy  EATOM  =      3854.11588398
  ---------------------------------------------------
  free energy    TOTEN  =      -275.06106854 eV

  energy without entropy =     -275.06106854  energy(sigma->0) =     -275.06106854


--------------------------------------------------------------------------------------------------------




--------------------------------------- Iteration      1(  11)  ---------------------------------------


    POTLOK:  cpu time      0.8594: real time      0.8597
    SETDIJ:  cpu time      0.0687: real time      0.0687
    TRIAL :  cpu time      1.2735: real time      1.2738
    CORREC:  cpu time      1.6388: real time      1.6394
    CHARGE:  cpu time      0.1761: real time      0.1761
    --------------------------------------------
      LOOP:  cpu time      4.0325: real time      4.0467

 eigenvalue-minimisations  :     0
 total energy-change (2. order) :-0.3981879E-01  (-0.8116535E-02)
 number of electron     120.0000000 magnetization 
 augmentation part       -0.1077501 magnetization 

 Free energy of the ion-electron system (eV)
  ---------------------------------------------------
  alpha Z        PSCENC =        97.96435000
  Ewald energy   TEWEN  =     -1690.83155021
  -Hartree energ DENC   =     -2038.73579313
  -exchange      EXHF   =         0.00000000
  -V(xc)+E(xc)   XCENC  =       245.66820208
  PAW double counting   =     43167.10143465   -43028.49373005
  entropy T*S    EENTRO =        -0.00000000
  eigenvalues    EBANDS =      -881.88968467
  atomic energy  EATOM  =      3854.11588398
  ---------------------------------------------------
  free energy    TOTEN  =      -275.10088733 eV

  energy without entropy =     -275.10088733  energy(sigma->0) =     -275.10088733


--------------------------------------------------------------------------------------------------------




--------------------------------------- Iteration      1(  12)  ---------------------------------------


    POTLOK:  cpu time      0.9111: real time      0.9114
    SETDIJ:  cpu time      0.0681: real time      0.0681
    TRIAL :  cpu time      1.2386: real time      1.2388
    CORREC:  cpu time      1.7368: real time      1.7376
    CHARGE:  cpu time      0.1750: real time      0.1750
    --------------------------------------------
      LOOP:  cpu time      4.1449: real time      4.1599

 eigenvalue-minimisations  :     0
 total energy-change (2. order) :-0.8116264E-02  (-0.1644690E-02)
 number of electron     120.0000000 magnetization 
 augmentation part       -0.1075507 magnetization 

 Free energy of the ion-electron system (eV)
  ---------------------------------------------------
  alpha Z        PSCENC =        97.96435000
  Ewald energy   TEWEN  =     -1690.83155021
  -Hartree energ DENC   =     -2037.90736652
  -exchange      EXHF   =         0.00000000
  -V(xc)+E(xc)   XCENC  =       245.59258811
  PAW double counting   =     43206.73092829   -43068.12395052
  entropy T*S    EENTRO =        -0.00000000
  eigenvalues    EBANDS =      -882.64988674
  atomic energy  EATOM  =      3854.11588398
  ---------------------------------------------------
  free energy    TOTEN  =      -275.10900360 eV

  energy without entropy =     -275.10900360  energy(sigma->0) =     -275.10900360


--------------------------------------------------------------------------------------------------------




--------------------------------------- Iteration      1(  13)  ---------------------------------------


    POTLOK:  cpu time      0.8552: real time      0.8555
    SETDIJ:  cpu time      0.0681: real time      0.0681
    TRIAL :  cpu time      1.2367: real time      1.2370
    CORREC:  cpu time      1.6543: real time      1.6550
    CHARGE:  cpu time      0.1749: real time      0.1749
    --------------------------------------------
      LOOP:  cpu time      4.0046: real time      4.0201

 eigenvalue-minimisations  :     0
 total energy-change (2. order) :-0.1644591E-02  (-0.3223482E-03)
 number of electron     120.0000000 magnetization 
 augmentation part       -0.1072965 magnetization 

 Free energy of the ion-electron system (eV)
  ---------------------------------------------------
  alpha Z        PSCENC =        97.96435000
  Ewald energy   TEWEN  =     -1690.83155021
  -Hartree energ DENC   =     -2038.37058556
  -exchange      EXHF   =         0.00000000
  -V(xc)+E(xc)   XCENC  =       245.60751348
  PAW double counting   =     43250.26428763   -43111.65937722
  entropy T*S    EENTRO =        -0.00000000
  eigenvalues    EBANDS =      -882.20117029
  atomic energy  EATOM  =      3854.11588398
  ---------------------------------------------------
  free energy    TOTEN  =      -275.11064819 eV

  energy without entropy =     -275.11064819  energy(sigma->0) =     -275.11064819


--------------------------------------------------------------------------------------------------------




--------------------------------------- Iteration      1(  14)  ---------------------------------------


    POTLOK:  cpu time      0.8555: real time      0.8558
    SETDIJ:  cpu time      0.0680: real time      0.0680
    TRIAL :  cpu time      1.2361: real time      1.2364
    CORREC:  cpu time      1.6372: real time      1.6380
    CHARGE:  cpu time      0.1751: real time      0.1751
    --------------------------------------------
      LOOP:  cpu time      3.9847: real time      4.0030

 eigenvalue-minimisations  :     0
 total energy-change (2. order) :-0.3238250E-03  (-0.6773623E-04)
 number of electron     120.0000000 magnetization 
 augmentation part       -0.1071077 magnetization 

 Free energy of the ion-electron system (eV)
  ---------------------------------------------------
  alpha Z        PSCENC =        97.96435000
  Ewald energy   TEWEN  =     -1690.83155021
  -Hartree energ DENC   =     -2038.37992454
  -exchange      EXHF   =         0.00000000
  -V(xc)+E(xc)   XCENC  =       245.60719424
  PAW double counting   =     43260.78770459   -43122.18219043
  entropy T*S    EENTRO =        -0.00000000
  eigenvalues    EBANDS =      -882.19243963
  atomic energy  EATOM  =      3854.11588398
  ---------------------------------------------------
  free energy    TOTEN  =      -275.11097201 eV

  energy without entropy =     -275.11097201  energy(sigma->0) =     -275.11097201


--------------------------------------------------------------------------------------------------------




--------------------------------------- Iteration      1(  15)  ---------------------------------------


    POTLOK:  cpu time      0.8575: real time      0.8577
    SETDIJ:  cpu time      0.0719: real time      0.0719
    TRIAL :  cpu time      1.2391: real time      1.2394
    CORREC:  cpu time      1.6365: real time      1.6373
    CHARGE:  cpu time      0.1755: real time      0.1755
    --------------------------------------------
      LOOP:  cpu time      3.9935: real time      4.0110

 eigenvalue-minimisations  :     0
 total energy-change (2. order) :-0.6867042E-04  (-0.1509759E-04)
 number of electron     120.0000000 magnetization 
 augmentation part       -0.1070377 magnetization 

 Free energy of the ion-electron system (eV)
  ---------------------------------------------------
  alpha Z        PSCENC =        97.96435000
  Ewald energy   TEWEN  =     -1690.83155021
  -Hartree energ DENC   =     -2038.41877067
  -exchange      EXHF   =         0.00000000
  -V(xc)+E(xc)   XCENC  =       245.60908031
  PAW double counting   =     43260.36085043   -43121.75496140
  entropy T*S    EENTRO =        -0.00000000
  eigenvalues    EBANDS =      -882.15592313
  atomic energy  EATOM  =      3854.11588398
  ---------------------------------------------------
  free energy    TOTEN  =      -275.11104068 eV

  energy without entropy =     -275.11104068  energy(sigma->0) =     -275.11104068


--------------------------------------------------------------------------------------------------------




--------------------------------------- Iteration      1(  16)  ---------------------------------------


    POTLOK:  cpu time      0.8564: real time      0.8566
    SETDIJ:  cpu time      0.0714: real time      0.0714
    TRIAL :  cpu time      1.2660: real time      1.2663
    CORREC:  cpu time      1.6406: real time      1.6413
    CHARGE:  cpu time      0.1757: real time      0.1757
    --------------------------------------------
      LOOP:  cpu time      4.0246: real time      4.0411

 eigenvalue-minimisations  :     0
 total energy-change (2. order) :-0.1536409E-04  (-0.3281850E-05)
 number of electron     120.0000000 magnetization 
 augmentation part       -0.1070277 magnetization 

 Free energy of the ion-electron system (eV)
  ---------------------------------------------------
  alpha Z        PSCENC =        97.96435000
  Ewald energy   TEWEN  =     -1690.83155021
  -Hartree energ DENC   =     -2038.45398135
  -exchange      EXHF   =         0.00000000
  -V(xc)+E(xc)   XCENC  =       245.61105439
  PAW double counting   =     43261.51228800   -43122.90628468
  entropy T*S    EENTRO =        -0.00000000
  eigenvalues    EBANDS =      -882.12281618
  atomic energy  EATOM  =      3854.11588398
  ---------------------------------------------------
  free energy    TOTEN  =      -275.11105605 eV

  energy without entropy =     -275.11105605  energy(sigma->0) =     -275.11105605


--------------------------------------------------------------------------------------------------------




--------------------------------------- Iteration      1(  17)  ---------------------------------------


    POTLOK:  cpu time      0.9522: real time      0.9525
    SETDIJ:  cpu time      0.0681: real time      0.0681
    TRIAL :  cpu time      1.2391: real time      1.2397
    CORREC:  cpu time      1.6438: real time      1.6443
    CHARGE:  cpu time      0.1751: real time      0.1751
    --------------------------------------------
      LOOP:  cpu time      4.1067: real time      4.1091

 eigenvalue-minimisations  :     0
 total energy-change (2. order) :-0.3347996E-05  (-0.8647770E-06)
 number of electron     120.0000000 magnetization 
 augmentation part       -0.1070234 magnetization 

 Free energy of the ion-electron system (eV)
  ---------------------------------------------------
  alpha Z        PSCENC =        97.96435000
  Ewald energy   TEWEN  =     -1690.83155021
  -Hartree energ DENC   =     -2038.45001119
  -exchange      EXHF   =         0.00000000
  -V(xc)+E(xc)   XCENC  =       245.61103153
  PAW double counting   =     43263.19092362   -43124.58481999
  entropy T*S    EENTRO =        -0.00000000
  eigenvalues    EBANDS =      -882.12686714
  atomic energy  EATOM  =      3854.11588398
  ---------------------------------------------------
  free energy    TOTEN  =      -275.11105940 eV

  energy without entropy =     -275.11105940  energy(sigma->0) =     -275.11105940


--------------------------------------------------------------------------------------------------------




--------------------------------------- Iteration      1(  18)  ---------------------------------------


    POTLOK:  cpu time      0.8563: real time      0.8566
    SETDIJ:  cpu time      0.0710: real time      0.0710
    TRIAL :  cpu time      1.2354: real time      1.2360
    CORREC:  cpu time      1.6783: real time      1.6788
    CHARGE:  cpu time      0.1757: real time      0.1757
    --------------------------------------------
      LOOP:  cpu time      4.0463: real time      4.0481

 eigenvalue-minimisations  :     0
 total energy-change (2. order) :-0.8496718E-06  (-0.1714091E-06)
 number of electron     120.0000000 magnetization 
 augmentation part       -0.1070224 magnetization 

 Free energy of the ion-electron system (eV)
  ---------------------------------------------------
  alpha Z        PSCENC =        97.96435000
  Ewald energy   TEWEN  =     -1690.83155021
  -Hartree energ DENC   =     -2038.45977915
  -exchange      EXHF   =         0.00000000
  -V(xc)+E(xc)   XCENC  =       245.61155475
  PAW double counting   =     43263.15605509   -43124.54998530
  entropy T*S    EENTRO =        -0.00000000
  eigenvalues    EBANDS =      -882.11758940
  atomic energy  EATOM  =      3854.11588398
  ---------------------------------------------------
  free energy    TOTEN  =      -275.11106025 eV

  energy without entropy =     -275.11106025  energy(sigma->0) =     -275.11106025


--------------------------------------------------------------------------------------------------------




--------------------------------------- Iteration      1(  19)  ---------------------------------------


    POTLOK:  cpu time      0.8563: real time      0.8565
    SETDIJ:  cpu time      0.0682: real time      0.0682
    TRIAL :  cpu time      1.2385: real time      1.2390
    CORREC:  cpu time      1.6333: real time      1.6337
    CHARGE:  cpu time      0.1740: real time      0.1740
    --------------------------------------------
      LOOP:  cpu time      3.9828: real time      4.0009

 eigenvalue-minimisations  :     0
 total energy-change (2. order) :-0.1770459E-06  (-0.4382097E-07)
 number of electron     120.0000000 magnetization 
 augmentation part       -0.1070208 magnetization 

 Free energy of the ion-electron system (eV)
  ---------------------------------------------------
  alpha Z        PSCENC =        97.96435000
  Ewald energy   TEWEN  =     -1690.83155021
  -Hartree energ DENC   =     -2038.45619036
  -exchange      EXHF   =         0.00000000
  -V(xc)+E(xc)   XCENC  =       245.61136921
  PAW double counting   =     43262.50274027   -43123.89666697
  entropy T*S    EENTRO =        -0.00000000
  eigenvalues    EBANDS =      -882.12099635
  atomic energy  EATOM  =      3854.11588398
  ---------------------------------------------------
  free energy    TOTEN  =      -275.11106042 eV

  energy without entropy =     -275.11106042  energy(sigma->0) =     -275.11106042


--------------------------------------------------------------------------------------------------------




--------------------------------------- Iteration      1(  20)  ---------------------------------------


    POTLOK:  cpu time      0.8587: real time      0.8590
    SETDIJ:  cpu time      0.0681: real time      0.0681
    TRIAL :  cpu time      1.2357: real time      1.2363
    CORREC:  cpu time      1.6862: real time      1.6867
    EDDIAG:  cpu time      0.6007: real time      0.6017
    CHARGE:  cpu time      0.1746: real time      0.1746
    --------------------------------------------
      LOOP:  cpu time      4.6369: real time      4.6561

 eigenvalue-minimisations  :     0
 total energy-change (2. order) :-0.4497997E-07  (-0.8470857E-08)
 number of electron     120.0000000 magnetization 
 augmentation part       -0.1070205 magnetization 

 Free energy of the ion-electron system (eV)
  ---------------------------------------------------
  alpha Z        PSCENC =        97.96435000
  Ewald energy   TEWEN  =     -1690.83155021
  -Hartree energ DENC   =     -2038.45720943
  -exchange      EXHF   =         0.00000000
  -V(xc)+E(xc)   XCENC  =       245.61138922
  PAW double counting   =     43261.93593867   -43123.32987823
  entropy T*S    EENTRO =        -0.00000000
  eigenvalues    EBANDS =      -882.11998447
  atomic energy  EATOM  =      3854.11588398
  ---------------------------------------------------
  free energy    TOTEN  =      -275.11106047 eV

  energy without entropy =     -275.11106047  energy(sigma->0) =     -275.11106047


--------------------------------------------------------------------------------------------------------


  average scaling for gradient   1.0502


 average (electrostatic) potential at core
  the test charge radii are     0.5770  0.4325
  (the norm of the test charge is              1.0000)
       1 -81.7097       2 -81.7092       3 -81.6987       4 -81.6987       5 -81.7093
       6 -81.7097       7 -81.7097       8 -81.7097       9 -81.7097      10 -81.7097
      11 -81.7097      12 -81.7097      13 -81.7093      14 -81.7093      15 -81.7093
      16 -81.7093      17 -81.7093      18 -81.7093      19 -81.6987      20 -81.6987
      21 -81.6987      22 -81.6987      23 -81.6987      24 -81.6987      25 -40.5408
      26 -40.5018      27 -40.5229      28 -40.5229      29 -40.5018      30 -40.5408
      31 -40.5408      32 -40.5408      33 -40.5408      34 -40.5408      35 -40.5408
      36 -40.5408      37 -40.5018      38 -40.5018      39 -40.5018      40 -40.5018
      41 -40.5018      42 -40.5018      43 -40.5229      44 -40.5229      45 -40.5229
      46 -40.5229      47 -40.5229      48 -40.5229



 E-fermi :  -1.2879     XC(G=0):  -7.9033     alpha+bet : -6.7107

 Fermi energy:        -1.2878540943

 k-point     1 :       0.0000    0.0000    0.0000
  band No.  band energies     occupation 
      1     -16.5728      2.00000
      2     -16.4703      2.00000
      3     -16.4031      2.00000
      4     -16.3907      2.00000
      5     -13.8570      2.00000
      6     -13.7294      2.00000
      7     -13.6887      2.00000
      8     -13.6589      2.00000
      9     -13.6203      2.00000
     10     -13.5936      2.00000
     11     -13.5922      2.00000
     12     -13.5692      2.00000
     13     -10.1952      2.00000
     14     -10.1681      2.00000
     15     -10.1147      2.00000
     16     -10.0690      2.00000
     17     -10.0404      2.00000
     18     -10.0127      2.00000
     19      -9.9778      2.00000
     20      -9.8162      2.00000
     21      -8.5002      2.00000
     22      -8.0771      2.00000
     23      -8.0734      2.00000
     24      -7.7974      2.00000
     25      -6.7193      2.00000
     26      -6.5398      2.00000
     27      -6.3577      2.00000
     28      -6.2319      2.00000
     29      -6.2225      2.00000
     30      -6.2033      2.00000
     31      -6.1370      2.00000
     32      -6.1243      2.00000
     33      -5.8539      2.00000
     34      -5.8229      2.00000
     35      -5.8038      2.00000
     36      -5.3924      2.00000
     37      -5.3880      2.00000
     38      -5.3651      2.00000
     39      -5.3380      2.00000
     40      -5.1832      2.00000
     41      -4.3348      2.00000
     42      -4.2554      2.00000
     43      -4.1651      2.00000
     44      -4.1354      2.00000
     45      -3.7715      2.00000
     46      -3.7068      2.00000
     47      -3.6939      2.00000
     48      -3.5879      2.00000
     49      -3.4220      2.00000
     50      -3.4108      2.00000
     51      -3.3947      2.00000
     52      -3.2155      2.00000
     53      -1.9996      2.00000
     54      -1.9856      2.00000
     55      -1.8515      2.00000
     56      -1.7500      2.00000
     57      -1.5643      2.00000
     58      -1.4698      2.00000
     59      -1.3698      2.00000
     60      -1.3311      2.00000
     61       3.1043      0.00000
     62       3.1646      0.00000
     63       3.2425      0.00000
     64       3.4280      0.00000
     65       3.4635      0.00000
     66       3.5289      0.00000
     67       3.6990      0.00000
     68       3.8191      0.00000
     69       4.2338      0.00000
     70       5.3653      0.00000
     71       5.6524      0.00000
     72       6.2427      0.00000
     73       6.4174      0.00000
     74       6.4694      0.00000
     75       6.6709      0.00000
     76       6.7812      0.00000
     77       6.8316      0.00000
     78       6.9101      0.00000
     79       7.0028      0.00000
     80       7.0865      0.00000
     81       7.2143      0.00000
     82       7.6393      0.00000
     83       7.7270      0.00000
     84       7.7526      0.00000
     85       7.7787      0.00000
     86       8.2873      0.00000
     87       8.4007      0.00000
     88       8.5578      0.00000

 k-point     2 :       0.2500    0.0000    0.0000
  band No.  band energies     occupation 
      1     -16.5493      2.00000
      2     -16.4588      2.00000
      3     -16.4294      2.00000
      4     -16.4025      2.00000
      5     -13.8276      2.00000
      6     -13.7188      2.00000
      7     -13.6805      2.00000
      8     -13.6572      2.00000
      9     -13.6458      2.00000
     10     -13.6072      2.00000
     11     -13.5960      2.00000
     12     -13.5766      2.00000
     13     -10.1416      2.00000
     14     -10.1383      2.00000
     15     -10.1121      2.00000
     16     -10.0794      2.00000
     17     -10.0356      2.00000
     18     -10.0156      2.00000
     19     -10.0067      2.00000
     20      -9.8705      2.00000
     21      -8.4648      2.00000
     22      -8.1710      2.00000
     23      -8.0411      2.00000
     24      -7.8452      2.00000
     25      -6.6859      2.00000
     26      -6.5573      2.00000
     27      -6.2902      2.00000
     28      -6.2118      2.00000
     29      -6.1960      2.00000
     30      -6.1959      2.00000
     31      -6.1321      2.00000
     32      -6.1216      2.00000
     33      -5.8076      2.00000
     34      -5.7375      2.00000
     35      -5.7028      2.00000
     36      -5.4792      2.00000
     37      -5.3909      2.00000
     38      -5.3546      2.00000
     39      -5.3517      2.00000
     40      -5.2192      2.00000
     41      -4.4769      2.00000
     42      -4.3992      2.00000
     43      -4.2562      2.00000
     44      -4.2412      2.00000
     45      -3.6672      2.00000
     46      -3.6057      2.00000
     47      -3.6005      2.00000
     48      -3.5628      2.00000
     49      -3.4065      2.00000
     50      -3.4057      2.00000
     51      -3.3781      2.00000
     52      -3.2492      2.00000
     53      -1.9113      2.00000
     54      -1.9095      2.00000
     55      -1.8392      2.00000
     56      -1.7673      2.00000
     57      -1.5508      2.00000
     58      -1.5139      2.00000
     59      -1.4432      2.00000
     60      -1.4353      2.00000
     61       3.1645      0.00000
     62       3.2281      0.00000
     63       3.2682      0.00000
     64       3.4274      0.00000
     65       3.4551      0.00000
     66       3.4611      0.00000
     67       3.5969      0.00000
     68       3.6982      0.00000
     69       4.4617      0.00000
     70       5.4850      0.00000
     71       5.7236      0.00000
     72       5.8758      0.00000
     73       6.1965      0.00000
     74       6.4530      0.00000
     75       6.7812      0.00000
     76       6.8147      0.00000
     77       6.8531      0.00000
     78       6.9121      0.00000
     79       7.0811      0.00000
     80       7.1631      0.00000
     81       7.2862      0.00000
     82       7.5633      0.00000
     83       7.6480      0.00000
     84       7.8582      0.00000
     85       7.9218      0.00000
     86       8.2291      0.00000
     87       8.5468      0.00000
     88       8.6288      0.00000

 k-point     3 :       0.5000    0.0000    0.0000
  band No.  band energies     occupation 
      1     -16.4907      2.00000
      2     -16.4907      2.00000
      3     -16.4308      2.00000
      4     -16.4308      2.00000
      5     -13.7571      2.00000
      6     -13.7571      2.00000
      7     -13.6639      2.00000
      8     -13.6639      2.00000
      9     -13.6429      2.00000
     10     -13.6429      2.00000
     11     -13.5912      2.00000
     12     -13.5912      2.00000
     13     -10.1010      2.00000
     14     -10.1010      2.00000
     15     -10.0739      2.00000
     16     -10.0739      2.00000
     17     -10.0256      2.00000
     18     -10.0256      2.00000
     19     -10.0023      2.00000
     20     -10.0023      2.00000
     21      -8.3468      2.00000
     22      -8.3468      2.00000
     23      -7.9486      2.00000
     24      -7.9486      2.00000
     25      -6.6147      2.00000
     26      -6.6147      2.00000
     27      -6.1955      2.00000
     28      -6.1955      2.00000
     29      -6.1948      2.00000
     30      -6.1948      2.00000
     31      -6.1238      2.00000
     32      -6.1238      2.00000
     33      -5.7036      2.00000
     34      -5.7036      2.00000
     35      -5.4912      2.00000
     36      -5.4912      2.00000
     37      -5.4602      2.00000
     38      -5.4602      2.00000
     39      -5.2975      2.00000
     40      -5.2975      2.00000
     41      -4.5643      2.00000
     42      -4.5643      2.00000
     43      -4.3477      2.00000
     44      -4.3477      2.00000
[...]
      2     -16.4679      2.00000
      3     -16.4511      2.00000
      4     -16.4511      2.00000
      5     -13.7411      2.00000
      6     -13.7411      2.00000
      7     -13.7162      2.00000
      8     -13.7162      2.00000
      9     -13.6141      2.00000
     10     -13.6141      2.00000
     11     -13.5907      2.00000
     12     -13.5907      2.00000
     13     -10.1661      2.00000
     14     -10.1661      2.00000
     15     -10.1205      2.00000
     16     -10.1205      2.00000
     17      -9.9859      2.00000
     18      -9.9859      2.00000
     19      -9.9353      2.00000
     20      -9.9353      2.00000
     21      -8.2048      2.00000
     22      -8.2048      2.00000
     23      -8.0556      2.00000
     24      -8.0556      2.00000
     25      -6.4546      2.00000
     26      -6.4546      2.00000
     27      -6.4325      2.00000
     28      -6.4325      2.00000
     29      -6.1648      2.00000
     30      -6.1648      2.00000
     31      -6.1529      2.00000
     32      -6.1529      2.00000
     33      -5.7588      2.00000
     34      -5.7588      2.00000
     35      -5.6703      2.00000
     36      -5.6703      2.00000
     37      -5.3586      2.00000
     38      -5.3586      2.00000
     39      -5.2488      2.00000
     40      -5.2488      2.00000
     41      -4.3632      2.00000
     42      -4.3632      2.00000
     43      -4.3233      2.00000
     44      -4.3233      2.00000
     45      -3.5903      2.00000
     46      -3.5903      2.00000
     47      -3.5629      2.00000
     48      -3.5629      2.00000
     49      -3.3684      2.00000
     50      -3.3684      2.00000
     51      -3.3581      2.00000
     52      -3.3581      2.00000
     53      -1.7605      2.00000
     54      -1.7605      2.00000
     55      -1.7328      2.00000
     56      -1.7328      2.00000
     57      -1.5810      2.00000
     58      -1.5810      2.00000
     59      -1.5651      2.00000
     60      -1.5651      2.00000
     61       3.1262      0.00000
     62       3.1262      0.00000
     63       3.1639      0.00000
     64       3.1639      0.00000
     65       3.6277      0.00000
     66       3.6277      0.00000
     67       3.6602      0.00000
     68       3.6602      0.00000
     69       5.3817      0.00000
     70       5.3817      0.00000
     71       5.7860      0.00000
     72       5.7860      0.00000
     73       5.9845      0.00000
     74       5.9845      0.00000
     75       6.3018      0.00000
     76       6.3018      0.00000
     77       6.8961      0.00000
     78       6.8961      0.00000
     79       6.9437      0.00000
     80       6.9438      0.00000
     81       7.1318      0.00000
     82       7.1319      0.00000
     83       7.6282      0.00000
     84       7.6325      0.00000
     85       7.8497      0.00000
     86       7.8539      0.00000
     87       8.3886      0.00000
     88       8.4365      0.00000

 k-point    18 :       0.5000    0.3333    0.5000
  band No.  band energies     occupation 
      1     -16.4590      2.00000
      2     -16.4590      2.00000
      3     -16.4590      2.00000
      4     -16.4590      2.00000
      5     -13.7416      2.00000
      6     -13.7416      2.00000
      7     -13.7416      2.00000
      8     -13.7416      2.00000
      9     -13.5909      2.00000
     10     -13.5908      2.00000
     11     -13.5908      2.00000
     12     -13.5908      2.00000
     13     -10.1465      2.00000
     14     -10.1465      2.00000
     15     -10.1465      2.00000
     16     -10.1465      2.00000
     17      -9.9580      2.00000
     18      -9.9580      2.00000
     19      -9.9580      2.00000
     20      -9.9580      2.00000
     21      -8.1115      2.00000
     22      -8.1115      2.00000
     23      -8.1115      2.00000
     24      -8.1115      2.00000
     25      -6.4645      2.00000
     26      -6.4645      2.00000
     27      -6.4645      2.00000
     28      -6.4645      2.00000
     29      -6.1575      2.00000
     30      -6.1575      2.00000
     31      -6.1575      2.00000
     32      -6.1575      2.00000
     33      -5.7867      2.00000
     34      -5.7867      2.00000
     35      -5.7867      2.00000
     36      -5.7867      2.00000
     37      -5.2745      2.00000
     38      -5.2745      2.00000
     39      -5.2745      2.00000
     40      -5.2745      2.00000
     41      -4.2314      2.00000
     42      -4.2314      2.00000
     43      -4.2314      2.00000
     44      -4.2314      2.00000
     45      -3.6251      2.00000
     46      -3.6251      2.00000
     47      -3.6251      2.00000
     48      -3.6251      2.00000
     49      -3.3764      2.00000
     50      -3.3764      2.00000
     51      -3.3764      2.00000
     52      -3.3764      2.00000
     53      -1.7510      2.00000
     54      -1.7510      2.00000
     55      -1.7510      2.00000
     56      -1.7510      2.00000
     57      -1.5572      2.00000
     58      -1.5572      2.00000
     59      -1.5572      2.00000
     60      -1.5572      2.00000
     61       3.0728      0.00000
     62       3.0728      0.00000
     63       3.0728      0.00000
     64       3.0728      0.00000
     65       3.6763      0.00000
     66       3.6763      0.00000
     67       3.6763      0.00000
     68       3.6763      0.00000
     69       5.4672      0.00000
     70       5.4672      0.00000
     71       5.4672      0.00000
     72       5.4672      0.00000
     73       6.1160      0.00000
     74       6.1160      0.00000
     75       6.1160      0.00000
     76       6.1160      0.00000
     77       7.0094      0.00000
     78       7.0094      0.00000
     79       7.0094      0.00000
     80       7.0094      0.00000
     81       7.3511      0.00000
     82       7.3515      0.00000
     83       7.3528      0.00000
     84       7.3605      0.00000
     85       8.0062      0.00000
     86       8.0135      0.00000
     87       8.0186      0.00000
     88       8.1381      0.00000


--------------------------------------------------------------------------------------------------------


 soft charge-density along one line, spin component           1
         0         1         2         3         4         5         6         7         8         9
 total charge-density along one line

 pseudopotential strength for first ion, spin component:           1
 12.559  21.131  -0.000   0.000   0.000  -0.000   0.000   0.000
 21.131  35.552  -0.000   0.000   0.000  -0.000   0.000   0.001
 -0.000  -0.000  -3.133  -0.001  -0.000  -5.611  -0.001  -0.001
  0.000   0.000  -0.001  -3.135  -0.001  -0.001  -5.613  -0.002
  0.000   0.000  -0.000  -0.001  -3.135  -0.001  -0.002  -5.613
 -0.000  -0.000  -5.611  -0.001  -0.001 -10.025  -0.001  -0.001
  0.000   0.000  -0.001  -5.613  -0.002  -0.001 -10.029  -0.004
  0.000   0.001  -0.001  -0.002  -5.613  -0.001  -0.004 -10.029
 total augmentation occupancy for first ion, spin component:           1
  7.400  -2.515  -0.719   0.022   0.242   0.325  -0.010  -0.109
 -2.515   0.885   0.343  -0.011  -0.116  -0.150   0.005   0.051
 -0.719   0.343   6.231  -0.713  -0.489  -2.006   0.277   0.181
  0.022  -0.011  -0.713   5.222  -2.025   0.277  -1.642   0.789
  0.242  -0.116  -0.489  -2.025   5.148   0.181   0.789  -1.610
  0.325  -0.150  -2.006   0.277   0.181   0.655  -0.104  -0.064
 -0.010   0.005   0.277  -1.642   0.789  -0.104   0.531  -0.297
 -0.109   0.051   0.181   0.789  -1.610  -0.064  -0.297   0.518


------------------------ aborting loop because EDIFF is reached ----------------------------------------


    FORLOC:  cpu time      0.0050: real time      0.0050
    FORNL :  cpu time      0.7737: real time      0.7743
    FORCOR:  cpu time      1.0134: real time      1.0137
    OFIELD:  cpu time      0.0021: real time      0.0025

 VOLUME and BASIS-vectors are now :
 -----------------------------------------------------------------------------
  energy-cutoff  :     1000.00
  volume of cell :      474.07
      direct lattice vectors                 reciprocal lattice vectors
     7.390000000  0.000000000  0.000000000     0.135317997  0.000000000  0.000000000
     0.000000000  9.420000000  0.000000000     0.000000000  0.106157113  0.000000000
     0.000000000  0.000000000  6.810000000     0.000000000  0.000000000  0.146842878

  length of vectors
     7.390000000  9.420000000  6.810000000     0.135317997  0.106157113  0.146842878


 FORCES acting on ions:
    Electron-Ion                     Ewald-Force                    Non-Local-Force
 -----------------------------------------------------------------------------------------------
   0.339E+02 -.108E+03 0.203E+01   -.339E+02 0.108E+03 -.209E+01   0.178E-01 0.188E+00 0.608E-01
   0.806E+02 -.347E+02 -.692E+02   -.806E+02 0.346E+02 0.692E+02   -.187E-01 0.857E-01 0.609E-02
   -.447E+02 -.709E+02 0.730E+02   0.446E+02 0.708E+02 -.731E+02   0.759E-02 0.891E-01 0.428E-01
   0.447E+02 0.709E+02 -.730E+02   -.446E+02 -.708E+02 0.731E+02   -.759E-02 -.891E-01 -.428E-01
   -.806E+02 0.347E+02 0.692E+02   0.806E+02 -.346E+02 -.692E+02   0.187E-01 -.857E-01 -.609E-02
   -.339E+02 0.108E+03 -.203E+01   0.339E+02 -.108E+03 0.209E+01   -.178E-01 -.188E+00 -.608E-01
   -.339E+02 -.108E+03 0.203E+01   0.339E+02 0.108E+03 -.209E+01   -.178E-01 0.188E+00 0.608E-01
   0.339E+02 0.108E+03 0.203E+01   -.339E+02 -.108E+03 -.209E+01   0.178E-01 -.188E+00 0.608E-01
   -.339E+02 0.108E+03 0.203E+01   0.339E+02 -.108E+03 -.209E+01   -.178E-01 -.188E+00 0.608E-01
   0.339E+02 0.108E+03 -.203E+01   -.339E+02 -.108E+03 0.209E+01   0.178E-01 -.188E+00 -.608E-01
   -.339E+02 -.108E+03 -.203E+01   0.339E+02 0.108E+03 0.209E+01   -.178E-01 0.188E+00 -.608E-01
   0.339E+02 -.108E+03 -.203E+01   -.339E+02 0.108E+03 0.209E+01   0.178E-01 0.188E+00 -.608E-01
   -.806E+02 -.347E+02 -.692E+02   0.806E+02 0.346E+02 0.692E+02   0.187E-01 0.857E-01 0.609E-02
   0.806E+02 0.347E+02 -.692E+02   -.806E+02 -.346E+02 0.692E+02   -.187E-01 -.857E-01 0.609E-02
   -.806E+02 0.347E+02 -.692E+02   0.806E+02 -.346E+02 0.692E+02   0.187E-01 -.857E-01 0.609E-02
   0.806E+02 0.347E+02 0.692E+02   -.806E+02 -.346E+02 -.692E+02   -.187E-01 -.857E-01 -.609E-02
   -.806E+02 -.347E+02 0.692E+02   0.806E+02 0.346E+02 -.692E+02   0.187E-01 0.857E-01 -.609E-02
   0.806E+02 -.347E+02 0.692E+02   -.806E+02 0.346E+02 -.692E+02   -.187E-01 0.857E-01 -.609E-02
   0.447E+02 -.709E+02 0.730E+02   -.446E+02 0.708E+02 -.731E+02   -.759E-02 0.891E-01 0.428E-01
   -.447E+02 0.709E+02 0.730E+02   0.446E+02 -.708E+02 -.731E+02   0.759E-02 -.891E-01 0.428E-01
   0.447E+02 0.709E+02 0.730E+02   -.446E+02 -.708E+02 -.731E+02   -.759E-02 -.891E-01 0.428E-01
   -.447E+02 0.709E+02 -.730E+02   0.446E+02 -.708E+02 0.731E+02   0.759E-02 -.891E-01 -.428E-01
   0.447E+02 -.709E+02 -.730E+02   -.446E+02 0.708E+02 0.731E+02   -.759E-02 0.891E-01 -.428E-01
   -.447E+02 -.709E+02 -.730E+02   0.446E+02 0.708E+02 0.731E+02   0.759E-02 0.891E-01 -.428E-01
   0.141E+02 -.496E+02 0.182E+01   -.159E+02 0.553E+02 -.201E+01   0.181E+01 -.552E+01 0.183E+00
   0.343E+02 -.164E+02 -.271E+02   -.386E+02 0.181E+02 0.307E+02   0.429E+01 -.167E+01 -.356E+01
   -.186E+02 -.317E+02 0.326E+02   0.210E+02 0.355E+02 -.366E+02   -.236E+01 -.370E+01 0.383E+01
   0.186E+02 0.317E+02 -.326E+02   -.210E+02 -.355E+02 0.366E+02   0.236E+01 0.370E+01 -.383E+01
   -.343E+02 0.164E+02 0.271E+02   0.386E+02 -.181E+02 -.307E+02   -.429E+01 0.167E+01 0.356E+01
   -.141E+02 0.496E+02 -.182E+01   0.159E+02 -.553E+02 0.201E+01   -.181E+01 0.552E+01 -.183E+00
   -.141E+02 -.496E+02 0.182E+01   0.159E+02 0.553E+02 -.201E+01   -.181E+01 -.552E+01 0.183E+00
   0.141E+02 0.496E+02 0.182E+01   -.159E+02 -.553E+02 -.201E+01   0.181E+01 0.552E+01 0.183E+00
   -.141E+02 0.496E+02 0.182E+01   0.159E+02 -.553E+02 -.201E+01   -.181E+01 0.552E+01 0.183E+00
   0.141E+02 0.496E+02 -.182E+01   -.159E+02 -.553E+02 0.201E+01   0.181E+01 0.552E+01 -.183E+00
   -.141E+02 -.496E+02 -.182E+01   0.159E+02 0.553E+02 0.201E+01   -.181E+01 -.552E+01 -.183E+00
   0.141E+02 -.496E+02 -.182E+01   -.159E+02 0.553E+02 0.201E+01   0.181E+01 -.552E+01 -.183E+00
   -.343E+02 -.164E+02 -.271E+02   0.386E+02 0.181E+02 0.307E+02   -.429E+01 -.167E+01 -.356E+01
   0.343E+02 0.164E+02 -.271E+02   -.386E+02 -.181E+02 0.307E+02   0.429E+01 0.167E+01 -.356E+01
   -.343E+02 0.164E+02 -.271E+02   0.386E+02 -.181E+02 0.307E+02   -.429E+01 0.167E+01 -.356E+01
   0.343E+02 0.164E+02 0.271E+02   -.386E+02 -.181E+02 -.307E+02   0.429E+01 0.167E+01 0.356E+01
   -.343E+02 -.164E+02 0.271E+02   0.386E+02 0.181E+02 -.307E+02   -.429E+01 -.167E+01 0.356E+01
   0.343E+02 -.164E+02 0.271E+02   -.386E+02 0.181E+02 -.307E+02   0.429E+01 -.167E+01 0.356E+01
   0.186E+02 -.317E+02 0.326E+02   -.210E+02 0.355E+02 -.366E+02   0.236E+01 -.370E+01 0.383E+01
   -.186E+02 0.317E+02 0.326E+02   0.210E+02 -.355E+02 -.366E+02   -.236E+01 0.370E+01 0.383E+01
   0.186E+02 0.317E+02 0.326E+02   -.210E+02 -.355E+02 -.366E+02   0.236E+01 0.370E+01 0.383E+01
   -.186E+02 0.317E+02 -.326E+02   0.210E+02 -.355E+02 0.366E+02   -.236E+01 0.370E+01 -.383E+01
   0.186E+02 -.317E+02 -.326E+02   -.210E+02 0.355E+02 0.366E+02   0.236E+01 -.370E+01 -.383E+01
   -.186E+02 -.317E+02 -.326E+02   0.210E+02 0.355E+02 0.366E+02   -.236E+01 -.370E+01 -.383E+01
 -----------------------------------------------------------------------------------------------
   -.221E-03 0.490E-03 0.324E-03   0.114E-12 0.711E-14 0.213E-13   0.000E+00 0.266E-14 0.266E-14


 POSITION                                       TOTAL-FORCE (eV/Angst)
 -----------------------------------------------------------------------------------
      6.94635      1.32482      6.76646         0.024831     -0.069480      0.002192
      6.37040      0.42622      0.85894         0.053478     -0.024004     -0.050578
      0.57262      0.89722      5.90791        -0.033741     -0.046718      0.043399
      6.81738      8.52278      0.90209         0.033741      0.046718     -0.043399
      1.01960      8.99378      5.95106        -0.053478      0.024004      0.050578
      0.44365      8.09518      0.04354        -0.024831      0.069480     -0.002192
      4.13865      6.03482      6.76646        -0.024831     -0.069480      0.002192
      6.94635      3.38518      3.36146         0.024831      0.069480      0.002192
      4.13865      8.09518      3.36146        -0.024831      0.069480      0.002192
      3.25135      3.38518      0.04354         0.024831      0.069480     -0.002192
      0.44365      6.03482      3.44854        -0.024831     -0.069480     -0.002192
      3.25135      1.32482      3.44854         0.024831     -0.069480     -0.002192
      4.71460      5.13622      0.85894        -0.053478     -0.024004     -0.050578
      6.37040      4.28378      4.26394         0.053478      0.024004     -0.050578
      4.71460      8.99378      4.26394        -0.053478      0.024004     -0.050578
      2.67540      4.28378      5.95106         0.053478      0.024004      0.050578
      1.01960      5.13622      2.54606        -0.053478     -0.024004      0.050578
      2.67540      0.42622      2.54606         0.053478     -0.024004      0.050578
      3.12238      5.60722      5.90791         0.033741     -0.046718      0.043399
      0.57262      3.81278      2.50291        -0.033741      0.046718      0.043399
      3.12238      8.52278      2.50291         0.033741      0.046718      0.043399
      4.26762      3.81278      0.90209        -0.033741      0.046718     -0.043399
      6.81738      5.60722      4.30709         0.033741     -0.046718     -0.043399
      4.26762      0.89722      4.30709        -0.033741     -0.046718     -0.043399
      6.60387      2.35961      6.73054        -0.039245      0.121143     -0.004954
      5.56968      0.74692      1.52594        -0.095974      0.036479      0.081254
      1.01434      1.59340      5.19626         0.052499      0.078270     -0.083616
      6.37566      7.82660      1.61374        -0.052499     -0.078270      0.083616
      1.82032      8.67308      5.28406         0.095974     -0.036479     -0.081254
      0.78613      7.06039      0.07946         0.039245     -0.121143      0.004954
      4.48113      7.06961      6.73054         0.039245      0.121143     -0.004954
      6.60387      2.35039      3.32554        -0.039245     -0.121143     -0.004954
      4.48113      7.06039      3.32554         0.039245     -0.121143     -0.004954
      2.90887      2.35039      0.07946        -0.039245     -0.121143      0.004954
      0.78613      7.06961      3.48446         0.039245      0.121143      0.004954
      2.90887      2.35961      3.48446        -0.039245      0.121143      0.004954
      5.51532      5.45692      1.52594         0.095974      0.036479      0.081254
      5.56968      3.96308      4.93094        -0.095974     -0.036479      0.081254
      5.51532      8.67308      4.93094         0.095974     -0.036479      0.081254
      1.87468      3.96308      5.28406        -0.095974     -0.036479     -0.081254
      1.82032      5.45692      1.87906         0.095974      0.036479     -0.081254
      1.87468      0.74692      1.87906        -0.095974      0.036479     -0.081254
      2.68066      6.30340      5.19626        -0.052499      0.078270     -0.083616
      1.01434      3.11660      1.79126         0.052499     -0.078270     -0.083616
      2.68066      7.82660      1.79126        -0.052499     -0.078270     -0.083616
      4.70934      3.11660      1.61374         0.052499     -0.078270      0.083616
      6.37566      6.30340      5.01874        -0.052499      0.078270      0.083616
      4.70934      1.59340      5.01874         0.052499      0.078270      0.083616
 -----------------------------------------------------------------------------------
    total drift:                               -0.000221      0.000490      0.000324


--------------------------------------------------------------------------------------------------------



  FREE ENERGIE OF THE ION-ELECTRON SYSTEM (eV)
  ---------------------------------------------------
  free  energy   TOTEN  =      -275.11106047 eV

  energy  without entropy=     -275.11106047  energy(sigma->0) =     -275.11106047



--------------------------------------------------------------------------------------------------------


    POTLOK:  cpu time      0.9284: real time      0.9286


--------------------------------------------------------------------------------------------------------


 stress matrix after NEB project (eV)
      0.00000      0.00000      0.00000
      0.00000      0.00000      0.00000
      0.00000      0.00000      0.00000
  FORCES: max atom, RMS     0.130935    0.104806
  FORCE total and by dimension    0.726118    0.121143
  Stress total and by dimension    0.000000    0.000000
     LOOP+:  cpu time     84.8880: real time     85.2240
    4ORBIT:  cpu time      0.0000: real time      0.0000

 total amount of memory used by VASP MPI-rank0    45351. kBytes
=======================================================================

   base      :      30000. kBytes
   nonl-proj :       1634. kBytes
   fftplans  :       1347. kBytes
   grid      :       2104. kBytes
   one-center:          3. kBytes
   wavefun   :      10263. kBytes

  
  
 General timing and accounting informations for this job:
 ========================================================
  
                  Total CPU time used (sec):      112.871
                            User time (sec):      109.588
                          System time (sec):        3.284
                         Elapsed time (sec):      116.520
  
                   Maximum memory used (kb):      304868.
                   Average memory used (kb):          N/A
  
                          Minor page faults:       204679
                          Major page faults:          276
                 Voluntary context switches:         5829
