3
Lattice="25.0 0.0 0.0 0.0 25.0 0.0 0.0 0.0 25.0" Properties=species:S:1:pos:R:3:forces:R:3 energy=-17.82963142 stress="7.339390581126124e-05 -3.0520979625569136e-06 4.183683567079548e-05 -3.0520979625569136e-06 7.989131681130572e-07 -1.7975546282543783e-06 4.183683567079548e-05 -1.7975546282543783e-06 2.4360610118322357e-05" free_energy=-17.82963142 pbc="T T T" config_stress_weight = 0.0
C       12.50400000      12.48600000      12.50500000      -1.10987900       0.28856800      -0.67176900
O       11.47600000      12.52900000      11.91600000       1.10998100      -0.16687400       0.65387000
O       13.52100000      12.48200000      13.08200000      -0.00010200      -0.12169400       0.01790000
3
Lattice="25.0 0.0 0.0 0.0 25.0 0.0 0.0 0.0 25.0" Properties=species:S:1:pos:R:3:forces:R:3 energy=-17.82551274 stress="2.0272421640868824e-05 -3.4384473774490866e-05 2.786833824706875e-05 -3.4384473774490866e-05 6.038035928379465e-05 -4.783492594076929e-05 2.786833824706875e-05 -4.783492594076929e-05 3.973344709537282e-05" free_energy=-17.82551274 pbc="T T T" config_stress_weight = 0.0
C       12.50000000      12.51800000      12.51300000       0.42568900      -1.06485500       0.36660600
O       12.98500000      11.67100000      13.18700000      -0.53297200       1.08615800      -0.63221000
O       12.01500000      13.31500000      11.80400000       0.10728200      -0.02130400       0.26560400
3
Lattice="25.0 0.0 0.0 0.0 25.0 0.0 0.0 0.0 25.0" Properties=species:S:1:pos:R:3:forces:R:3 energy=-17.82615566 stress="3.4141054918581424e-06 -5.879501596582029e-06 7.68329773396229e-06 -5.879501596582029e-06 2.309982527489394e-05 -2.823658728549586e-05 7.68329773396229e-06 -2.823658728549586e-05 3.557036050840869e-05" free_energy=-17.82615566 pbc="T T T" config_stress_weight = 0.0
C       12.47000000      12.49600000      12.49700000       0.66785300      -0.46361200       0.71189600
O       12.66100000      11.76600000      13.40500000      -0.39870900       0.47498300      -0.65865200
O       12.36300000      13.23600000      11.59800000      -0.26914500      -0.01137100      -0.05324400
3
Lattice="25.0 0.0 0.0 0.0 25.0 0.0 0.0 0.0 25.0" Properties=species:S:1:pos:R:3:forces:R:3 energy=-17.82936879 stress="2.6401583602486184e-06 -6.0292978156032275e-06 6.447478927037406e-06 -6.0292978156032275e-06 1.701435387715776e-05 -1.7351395369955457e-05 6.447478927037406e-06 -1.7351395369955457e-05 1.8793183978034492e-05" free_energy=-17.82936879 pbc="T T T" config_stress_weight = 0.0
C       12.49300000      12.49600000      12.48700000       0.49384100      -1.08235300       1.33366800
O       12.76400000      11.67000000      13.29100000      -0.30513600       0.70129000      -0.83447900
O       12.24200000      13.33300000      11.72000000      -0.18870500       0.38106200      -0.49918900
3
Lattice="25.0 0.0 0.0 0.0 25.0 0.0 0.0 0.0 25.0" Properties=species:S:1:pos:R:3:forces:R:3 energy=-17.83546101 stress="3.7761130211593716e-06 4.8871016455665915e-06 -1.5291697358413985e-05 4.8871016455665915e-06 7.502293969311676e-06 -2.2700368690837408e-05 -1.5291697358413985e-05 -2.2700368690837408e-05 7.466717367294142e-05" free_energy=-17.83546101 pbc="T T T" config_stress_weight = 0.0
C       12.48900000      12.49100000      12.49400000       0.14540400       0.07790100       0.39345200
O       12.27100000      12.16100000      13.60400000       0.03652000       0.12248500      -0.72259500
O       12.73700000      12.84500000      11.40200000      -0.18192400      -0.20038700       0.32914300
3
Lattice="25.0 0.0 0.0 0.0 25.0 0.0 0.0 0.0 25.0" Properties=species:S:1:pos:R:3:forces:R:3 energy=-17.8384856 stress="1.1759003193164058e-05 -1.122847491746398e-05 -1.0223591948196776e-05 -1.122847491746398e-05 1.2177184304598237e-05 1.0548150422742706e-05 -1.0223591948196776e-05 1.0548150422742706e-05 9.84910140064378e-06" free_energy=-17.8384856 pbc="T T T" config_stress_weight = 0.0
C       12.48800000      12.49100000      12.49800000       0.26899400       0.11792600       0.00404100
O       13.19100000      11.79600000      11.86600000      -0.26109800       0.07061600       0.11447700
O       11.81900000      13.21100000      13.13700000      -0.00789600      -0.18854200      -0.11851800
3
Lattice="25.0 0.0 0.0 0.0 25.0 0.0 0.0 0.0 25.0" Properties=species:S:1:pos:R:3:forces:R:3 energy=-17.82071664 stress="-5.267209551332881e-05 5.787751412431546e-05 -4.624958262279494e-06 5.787751412431546e-05 -6.094209510512414e-05 3.6325583112640556e-06 -4.624958262279494e-06 3.6325583112640556e-06 1.1109886244072198e-06" free_energy=-17.82071664 pbc="T T T" config_stress_weight = 0.0
C       12.51900000      12.51500000      12.47400000      -0.39426300      -0.15619800       0.42934000
O       13.28700000      11.64700000      12.56500000       0.72594100      -0.48937500      -0.17598400
O       11.70000000      13.34200000      12.45500000      -0.33167800       0.64557300      -0.25335700
3
Lattice="25.0 0.0 0.0 0.0 25.0 0.0 0.0 0.0 25.0" Properties=species:S:1:pos:R:3:forces:R:3 energy=-17.83678285 stress="-1.0591840986623889e-05 1.1908799412185256e-05 -3.719939439026422e-06 1.1908799412185256e-05 -1.1609206974142859e-05 3.4515545466134418e-06 -3.719939439026422e-06 3.4515545466134418e-06 -4.868377118188941e-07" free_energy=-17.83678285 pbc="T T T" config_stress_weight = 0.0
C       12.48700000      12.49000000      12.51200000       0.14307200       0.26328100      -0.22519900
O       13.29000000      11.67500000      12.74800000       0.04018500      -0.24776200       0.14722000
O       11.72000000      13.33200000      12.24500000      -0.18325700      -0.01551900       0.07797900
3
Lattice="25.0 0.0 0.0 0.0 25.0 0.0 0.0 0.0 25.0" Properties=species:S:1:pos:R:3:forces:R:3 energy=-17.82187972 stress="-1.0579357968372123e-05 2.3611629023216365e-05 -2.2069976269123202e-05 2.3611629023216365e-05 -4.7678888212622206e-05 4.7622714630489265e-05 -2.2069976269123202e-05 4.7622714630489265e-05 -4.39527072644699e-05" free_energy=-17.82187972 pbc="T T T" config_stress_weight = 0.0
C       12.51000000      12.52100000      12.52300000      -0.47837900       0.27472300      -1.00530900
O       12.11000000      13.26300000      11.71200000       0.00871200       0.34502100       0.03864400
O       12.88300000      11.72100000      13.27300000       0.46966700      -0.61974500       0.96666500
3
Lattice="25.0 0.0 0.0 0.0 25.0 0.0 0.0 0.0 25.0" Properties=species:S:1:pos:R:3:forces:R:3 energy=-17.84119975 stress="4.5313356253912455e-06 -1.0261041002952077e-05 -1.0485735331483875e-06 -1.0261041002952077e-05 2.573374212601668e-05 2.6089508146192014e-06 -1.0485735331483875e-06 2.6089508146192014e-06 6.740829855953919e-07" free_energy=-17.84119975 pbc="T T T" config_stress_weight = 0.0
C       12.49900000      12.49900000      12.49600000      -0.03288900       0.14306800       0.09191600
O       12.06200000      13.58200000      12.61100000       0.09057600      -0.25487300      -0.06475000
O       12.93900000      11.41800000      12.39300000      -0.05768700       0.11180500      -0.02716500
12
Lattice="5.67868 0.0 0.0 0.0 5.67868 0.0 0.0 0.0 5.67868" Properties=species:S:1:pos:R:3:forces:R:3 energy=-72.47972958 stress="0.02021194765894814 0.0033566773663908905 -0.003494633442600288 0.0033566773663908905 0.009970941900290149 -0.0019815106267215355 -0.003494633442600288 -0.0019815106267215355 0.012478642953869272" free_energy=-72.47972958 pbc="T T T"
C        0.41951000       0.22592000       0.36779000       0.45051200       0.74187300      -0.03084300
C        3.18472000       0.32820000       3.29104000       0.87099600       0.43693400      -1.41847700
C        0.38086000       3.25301000       3.06506000      -0.07017200      -0.73549400       1.39595100
C        3.06955000       3.24020000       0.30700000       0.60593000      -0.19089800      -0.09966600
O        1.09329000       0.98531000       0.97033000      -0.62678200      -0.62863700      -0.29395200
O        5.44736000       5.18797000       5.38606000      -0.00528700       0.04916200       0.36037000
O        2.33483000       5.45785000       3.89009000       0.63758100       0.40658000      -0.12738000
O        4.01508000       0.83961000       2.60168000      -1.42746800      -0.69268600       1.43293300
O        5.09993000       3.80146000       2.66685000       0.73178900      -0.12568200      -0.41189100
O        1.24438000       2.66049000       3.62058000      -0.69522200       0.69915200      -0.97736800
O        3.69899000       2.47967000       5.34653000      -0.39014600       0.33792700       0.33637800
O        2.49604000       4.02301000       0.96560000      -0.08173100      -0.29823100      -0.16605500
12
Lattice="5.67868 0.0 0.0 0.0 5.67868 0.0 0.0 0.0 5.67868" Properties=species:S:1:pos:R:3:forces:R:3 energy=-72.54250066 stress="0.0015139279705559915 -0.002991056003305775 -0.012064144332819366 -0.002991056003305775 0.003505718362807857 -0.0030298594655413917 -0.012064144332819366 -0.0030298594655413917 0.007678941160592424" free_energy=-72.54250066 pbc="T T T"
C        0.42403000       0.39367000       0.36894000      -0.13060100      -0.92970800      -0.78514800
C        3.28470000       0.23097000       3.19576000       0.76208400       1.35038300      -0.86576500
C        0.14011000       3.23748000       3.15715000       1.19737500      -1.42490300       0.62579500
C        3.15951000       3.18787000       0.34367000       0.15800300      -0.23620900      -0.58450300
O        1.03845000       1.10668000       1.04244000       0.39548600       0.88082600       0.75739700
O        5.55685000       5.30975000       5.34860000      -0.31222100       0.01343400      -0.04509700
O        2.82091000       5.30010000       4.07753000      -0.22428700      -0.09540700      -0.21515300
O        3.77537000       0.91008000       2.35107000      -0.67749700      -1.02664900       1.05735000
O        5.08731000       3.91999000       2.57140000      -0.48442400       0.67642800      -0.46269200
O        0.88251000       2.50089000       3.70020000      -0.44396400       0.59621700      -0.09925200
O        3.79368000       2.56396000       5.24118000      -0.56696000       0.54154500       0.94012100
O        2.50955000       3.82192000       1.08929000       0.32700700      -0.34595800      -0.32305400
12
Lattice="5.67868 0.0 0.0 0.0 5.67868 0.0 0.0 0.0 5.67868" Properties=species:S:1:pos:R:3:forces:R:3 energy=-72.48162914 stress="0.003055131335992093 -0.004812534336039664 0.0037319044120207403 -0.004812534336039664 0.002165241930860161 0.011620142098131407 0.0037319044120207403 0.011620142098131407 0.0034332169928015964" free_energy=-72.48162914 pbc="T T T"
C        0.25168000       0.41271000       0.42424000      -0.33366500      -1.21371500      -0.23077200
C        3.13941000       0.55966000       3.12392000      -0.41316800      -0.95374400      -0.14840900
C        0.46736000       3.12754000       3.20426000      -1.30689000       1.61761600      -0.68230300
C        3.22320000       2.98321000       0.30061000      -1.13446900       0.89840300       0.54488600
O        0.89893000       1.06036000       1.15726000      -0.22111800       0.02132300      -0.44183600
O        5.30463000       5.35299000       5.42083000       0.57069700       0.99130000       0.55366100
O        2.49433000       5.51433000       3.76277000      -0.37225000      -0.38366500       0.83201000
O        3.76640000       1.19615000       2.38850000       0.89425500       0.98166400      -0.58238500
O        5.55721000       3.95012000       2.59155000       0.61254300      -0.87553700       0.35772200
O        0.99726000       2.34328000       3.87635000       0.55876500      -0.52985200       0.35005700
O        3.89354000       2.43506000       5.18846000      -0.01904900       0.09426900       0.37522400
O        2.49729000       3.55621000       1.04537000       1.16434800      -0.64806200      -0.92785500
12
Lattice="5.67868 0.0 0.0 0.0 5.67868 0.0 0.0 0.0 5.67868" Properties=species:S:1:pos:R:3:forces:R:3 energy=-72.46011056 stress="0.006035320871909705 0.007336144996380664 -0.0033963733644315074 0.007336144996380664 0.00301024240235874 0.0032466894925745754 -0.0033963733644315074 0.0032466894925745754 0.003736466955191761" free_energy=-72.46011056 pbc="T T T"
C        0.46732000       0.23137000       0.28020000      -1.22026300      -0.89439400      -0.31168600
C        3.16011000       0.40833000       3.30721000      -0.15015500       0.45900000      -0.37815900
C        0.39190000       3.21907000       3.16727000      -2.13076200       0.68086100      -1.36595100
C        3.05259000       3.20019000       0.30196000       2.24653600      -2.50346600      -1.32735800
O        1.10268000       1.01928000       0.86066000       0.12875700       0.13243700      -0.01316000
O        5.45224000       5.11343000       5.42004000       0.80088300       0.90229100       0.47951900
O        2.25920000       5.62927000       3.91056000       0.73363000      -0.10259600      -0.32019800
O        4.00314000       0.92401000       2.66785000      -0.40251400      -0.51623200       0.48679500
O        5.11578000       3.71243000       2.68069000       0.66629200      -0.02314700       0.43598400
O        1.31392000       2.65978000       3.57368000       1.33730600      -0.54843600       0.87469300
O        3.71846000       2.36991000       5.43762000      -1.12430000       1.43993800       0.78442600
O        2.45149000       3.99853000       0.87728000      -0.88540900       0.97374400       0.65509300
12
Lattice="5.67868 0.0 0.0 0.0 5.67868 0.0 0.0 0.0 5.67868" Properties=species:S:1:pos:R:3:forces:R:3 energy=-72.51093599 stress="0.0053829770625997645 0.0009564925490142317 -0.011373958253679194 0.0009564925490142317 0.006435064565386024 0.0033712887392545825 -0.011373958253679194 0.0033712887392545825 0.01039189424177622" free_energy=-72.51093599 pbc="T T T"
C        0.19478000       0.51107000       0.26907000       0.14482100      -0.10038100       0.02114700
C        3.41191000       0.31344000       3.31629000      -0.11354600       0.37881400      -0.55976300
C        0.34489000       3.11897000       3.04820000       1.03335500      -1.28937500       2.14599000
C        3.11629000       3.08121000       0.37561000       0.45280900       0.10195700      -0.30444500
O        0.80347000       1.22476000       0.97033000       0.02549400      -0.18395700      -0.19223900
O        5.27324000       5.46433000       5.25043000       0.20169300       0.03627100       0.18836300
O        2.66836000       5.41689000       4.02026000       0.38528900       0.17784700      -0.33521900
O        4.11197000       0.91269000       2.57405000      -0.69250800      -0.61114200       0.77908900
O        5.26271000       3.74646000       2.45182000      -0.77461900       0.92337900      -1.20839300
O        1.02991000       2.48757000       3.77655000      -0.20526400       0.46227600      -0.84474500
O        3.80877000       2.45534000       5.32261000      -0.91936400       0.68444400       0.90461500
O        2.46151000       3.74432000       1.09796000       0.46184000      -0.58013200      -0.59440000
12
Lattice="5.67868 0.0 0.0 0.0 5.67868 0.0 0.0 0.0 5.67868" Properties=species:S:1:pos:R:3:forces:R:3 energy=-72.42911566 stress="0.008251181441780778 0.00409568452991372 -0.0033759012144986104 0.00409568452991372 0.0009764466536896806 -0.003341036144521427 -0.0033759012144986104 -0.003341036144521427 0.00044578106478883404" free_energy=-72.42911566 pbc="T T T"
C        0.38085000       0.34126000       0.35185000       0.93261500       0.15652700       1.29469300
C        3.24763000       0.44727000       3.13093000      -1.44093700      -1.16483200       0.13378300
C        0.41465000       3.18508000       3.41411000       1.31886400      -1.09883500       0.07446800
C        2.98692000       3.11466000       0.17345000       1.69402700      -1.21447700      -0.74569700
O        1.24923000       0.72810000       1.05104000      -0.65374700       0.14071000      -0.78983300
O        5.17921000       5.57454000       5.41455000      -0.34728300      -0.22202500      -0.51137000
O        2.41144000       5.38823000       3.54127000       1.30445100       0.91107000      -0.15261800
O        4.02579000       1.16534000       2.64108000       0.21454000       0.09123300       0.06778000
O        5.38416000       3.87445000       2.80867000      -0.62566900       0.51530200      -0.14430300
O        1.19537000       2.46032000       3.93086000      -0.91535600       0.60520300      -0.22400100
O        3.84048000       2.44525000       5.37385000      -0.85420700       0.79839300       0.48961300
O        2.16266000       3.76840000       0.65677000      -0.62729800       0.48173200       0.50748500
12
Lattice="5.67868 0.0 0.0 0.0 5.67868 0.0 0.0 0.0 5.67868" Properties=species:S:1:pos:R:3:forces:R:3 energy=-72.56447012 stress="0.012965692876998447 -0.004393030024670798 0.005702111665715301 -0.004393030024670798 0.010640605897424415 0.0003846205168643041 0.005702111665715301 0.0003846205168643041 0.015807982510288792" free_energy=-72.56447012 pbc="T T T"
C        0.36606000       0.48982000       0.32640000      -1.25532300      -1.19685300      -1.53028200
C        3.16039000       0.16551000       3.26202000       0.13890400       0.40229600       0.03351000
C        0.40505000       3.11725000       3.09481000      -0.35349600      -0.31557100       0.96568800
C        3.15995000       3.27422000       0.34655000      -0.33141300      -0.28829800      -0.16160100
O        1.13181000       1.10446000       0.95005000       0.22276800       0.24357400       0.47955800
O        5.29663000       5.54397000       5.32236000       0.97129600       0.79839400       1.14702200
O        2.33619000       5.28236000       3.87523000       0.07253800      -0.10919100      -0.08670700
O        3.97937000       0.76434000       2.67719000      -0.14945300      -0.12806700      -0.06992400
O        5.40637000       3.69938000       2.32268000       0.79557700      -0.48807400       0.51361600
O        0.99171000       2.53135000       3.94691000      -0.52776000       0.79512400      -1.46525700
O        3.79334000       2.54885000       5.34601000      -0.26109900       0.65780200       0.52897300
O        2.46684000       3.96106000       1.00811000       0.67746100      -0.37113500      -0.35459700
12
Lattice="5.67868 0.0 0.0 0.0 5.67868 0.0 0.0 0.0 5.67868" Properties=species:S:1:pos:R:3:forces:R:3 energy=-72.50346189 stress="0.012609714645512821 0.003666967751075051 0.004295799795507789 0.003666967751075051 0.01406263810587243 0.005435667882640471 0.004295799795507789 0.005435667882640471 0.010128733492501603" free_energy=-72.50346189 pbc="T T T"
C        0.35133000       0.40827000       0.29833000      -1.74710800      -0.26561600      -0.33392200
C        3.24608000       0.11465000       3.08005000       0.76742600       1.48304000      -0.65248000
C        0.29791000       3.20794000       3.33968000       1.12469100      -1.66318600       0.77990100
C        3.21042000       3.30170000       0.30882000      -0.07202200      -0.39847200      -0.25382600
O        0.91034000       1.11204000       1.05823000       0.08448100      -0.70193300      -0.70904200
O        5.31346000       5.43816000       5.26978000       1.73863700       0.97388100       1.18136000
O        2.68939000       5.02944000       3.76034000      -0.32112200      -0.28870200       0.09436300
O        3.81053000       0.93175000       2.43456000      -0.60258900      -0.93678200       0.56397400
O        5.33394000       3.94825000       2.71854000      -0.33888200       0.50082800      -0.43471500
O        0.94894000       2.41276000       3.93139000      -0.63156100       1.01072300      -0.56733000
O        3.96618000       2.60593000       5.41257000      -0.42830600       0.47997400       0.41765800
O        2.41873000       3.96810000       0.86531000       0.42635500      -0.19375400      -0.08594100
12
Lattice="5.67868 0.0 0.0 0.0 5.67868 0.0 0.0 0.0 5.67868" Properties=species:S:1:pos:R:3:forces:R:3 energy=-72.5296078 stress="0.010188801776329102 0.015492961061687214 0.005210043569248917 0.015492961061687214 0.0050992879898101185 0.004467928134181397 0.005210043569248917 0.004467928134181397 0.005668675901327944" free_energy=-72.5296078 pbc="T T T"
C        0.36683000       0.52060000       0.28339000       0.18499600      -0.57865800       0.27177800
C        3.16252000       0.14445000       3.24095000      -0.23634700       0.70291100       0.64773700
C        0.39799000       3.12112000       3.10211000      -0.21216500      -0.60724400       0.99542100
C        3.15897000       3.24943000       0.35975000      -0.02603400      -0.08224500      -0.46569900
O        1.12650000       1.12350000       0.97182000      -1.17962000      -0.68669700      -1.03276600
O        5.31868000       5.52108000       5.31298000       0.93587900       1.10668700       0.87797300
O        2.31914000       5.30055000       3.88121000       0.70787200       0.01897700      -0.71632100
O        3.98728000       0.77740000       2.69239000      -0.41291100      -0.58018600      -0.06906200
O        5.40059000       3.68223000       2.34345000      -0.25474400       0.56101500      -0.75604000
O        0.96929000       2.52633000       3.93349000       0.39966900       0.05923700      -0.23449400
O        3.80422000       2.56473000       5.35064000       0.37882000      -0.30309400      -0.12726900
O        2.48042000       3.94836000       0.99529000      -0.28541400       0.38929700       0.60874100
12
Lattice="5.67868 0.0 0.0 0.0 5.67868 0.0 0.0 0.0 5.67868" Properties=species:S:1:pos:R:3:forces:R:3 energy=-72.53975376 stress="0.00417150638277495 -0.009812844474131525 0.0008431092942334364 -0.009812844474131525 0.00438879828148345 0.0002582112325377904 0.0008431092942334364 0.0002582112325377904 0.0018094010125753047" free_energy=-72.53975376 pbc="T T T"
C        0.23859000       0.34976000       0.40357000       1.37684800       1.61924900       1.41213600
C        3.20739000       0.44827000       3.16586000       0.87260200       1.06751000      -1.19405500
C        0.46597000       3.14834000       3.20156000       1.07878100      -1.87484700       1.72904400
C        3.12008000       3.09410000       0.24809000       0.63013300      -0.38543900      -0.64195300
O        0.93142000       1.09922000       1.00507000      -0.57614700      -0.79420800      -0.63551000
O        5.21871000       5.30178000       5.52053000      -0.73696800      -0.90678600      -0.78287900
O        2.76225000       5.28335000       3.81354000      -0.82017900      -1.04031200       0.94371600
O        3.69365000       1.26876000       2.48029000      -0.06732500      -0.13505300       0.17676900
O        5.55598000       4.00084000       2.67664000      -0.19745200       0.31338000      -0.42998900
O        1.03730000       2.28764000       3.81078000      -0.99068100       1.62311800      -1.27548800
O        3.88178000       2.48268000       5.26054000      -0.68071500       0.48444400       0.68498100
O        2.36576000       3.71625000       0.88917000       0.11110400       0.02894300       0.01322700
12
Lattice="5.63916 0.0 0.0 0.0 5.63916 0.0 0.0 0.0 5.63916" Properties=species:S:1:pos:R:3:forces:R:3 energy=-72.50119711 stress="0.013984094955032314 0.0006086657284470095 -0.011337339319637638 0.0006086657284470095 0.010198588462638488 0.00035937985395923216 -0.011337339319637638 0.00035937985395923216 0.012091101410734054" free_energy=-72.50119711 pbc="T T T"
C        0.40400000       0.22932000       0.39728000      -0.86320600      -0.34445100      -0.86412100
C        3.19046000       0.25426000       3.24560000       0.24478000       0.94572300      -0.06667200
C        0.38147000       3.29430000       3.02475000       0.23452500      -1.43846000       0.78285000
C        3.08054000       3.19426000       0.34321000       0.27035200      -0.14142200      -1.02687900
O        1.00190000       1.01117000       1.01920000       0.37418300       0.17000900       0.31485600
O        5.40366000       5.13221000       5.37564000       0.38167400       0.30545100       0.45155200
O        2.40563000       5.32619000       3.92347000       0.85906500       0.36803400      -0.78025500
O        3.95414000       0.90301000       2.60751000      -1.07491500      -1.08775900       0.74350900
O        5.11731000       3.83730000       2.52495000       0.04522800       0.50815800      -0.31693500
O        1.19561000       2.62941000       3.55657000      -0.31885100       0.68750200      -0.31150100
O        3.71324000       2.53097000       5.22734000      -0.73479700       0.72551800       1.36772100
O        2.42322000       3.90776000       1.01428000       0.58196000      -0.69830300      -0.29412500
12
Lattice="5.63916 0.0 0.0 0.0 5.63916 0.0 0.0 0.0 5.63916" Properties=species:S:1:pos:R:3:forces:R:3 energy=-72.58394694 stress="0.00821107974564698 -0.004680364138789961 -0.002403280605903097 -0.004680364138789961 0.005508774679031941 0.003286916018890893 -0.002403280605903097 0.003286916018890893 0.007114477799774921" free_energy=-72.58394694 pbc="T T T"
C        0.45169000       0.41603000       0.15695000       0.29902200      -0.41210400       0.66556400
C        3.14582000       0.29888000       3.26467000       0.59066100       0.95588300      -0.73250300
C        0.30122000       3.14632000       3.14571000      -0.55405700       0.31547400      -0.46440200
C        3.09041000       3.14074000       0.41893000       0.58157900      -0.29136000      -0.73974800
O        1.25731000       0.97134000       0.80787000      -0.50261400       0.10286300      -0.34522600
O        5.30502000       5.40836000       5.21664000       0.03943600       0.26970100      -0.13666100
O        2.48712000       5.24805000       3.93228000      -0.21685900      -0.32090400       0.20677700
O        3.78605000       1.02620000       2.59414000      -0.28715100      -0.63359800       0.38711000
O        5.09846000       3.69407000       2.52989000       0.65344300      -0.23333000       0.38307800
O        1.13895000       2.59594000       3.74854000      -0.12192800      -0.08174500       0.04678300
O        3.75640000       2.46605000       5.34623000      -0.69567800       0.74721600       0.95674700
O        2.43596000       3.84562000       1.09182000       0.21414600      -0.41809600      -0.22751900
12
Lattice="5.63916 0.0 0.0 0.0 5.63916 0.0 0.0 0.0 5.63916" Properties=species:S:1:pos:R:3:forces:R:3 energy=-72.47662159 stress="0.004745188452571384 0.0026354023302946955 -0.006651438962253018 0.0026354023302946955 0.009445157171525742 -0.006131271591701908 -0.006651438962253018 -0.006131271591701908 0.008347837452104207" free_energy=-72.47662159 pbc="T T T"
C        0.45128000       0.22949000       0.29829000      -0.51284800      -0.48603800      -1.48240900
C        3.02886000       0.41377000       3.18553000       0.24827100      -0.61156200       1.01220400
C        0.41215000       3.06763000       3.07951000      -1.57923300       1.02133200      -0.65484200
C        3.09015000       3.27347000       0.43294000       1.52088300      -1.70220000      -1.56356000
O        0.89912000       1.11460000       0.90409000       0.29691700       0.30825500       0.80623900
O        0.01319000       5.05540000       5.20805000      -0.08440400       0.25075000       0.78545500
O        2.47509000       5.31077000       3.93787000       0.82256500       1.24421000      -1.48299700
O        3.66298000       1.14091000       2.50586000      -0.75509100      -0.72437300       0.40511500
O        5.29987000       3.73497000       2.45796000       0.81215900      -0.45223800       0.36045100
O        1.08894000       2.40044000       3.74524000       0.59207500      -0.43189200       0.33077600
O        3.74690000       2.58411000       5.35891000      -0.95066000       1.02564400       1.00945400
O        2.44503000       3.92763000       1.14191000      -0.41063400       0.55811200       0.47411500
12
Lattice="5.63916 0.0 0.0 0.0 5.63916 0.0 0.0 0.0 5.63916" Properties=species:S:1:pos:R:3:forces:R:3 energy=-72.58481116 stress="0.005013885420440658 -0.003000780274523901 0.0034449385469400053 -0.003000780274523901 0.0010272338134469925 0.004403696763766934 0.0034449385469400053 0.004403696763766934 0.004927852458649483" free_energy=-72.58481116 pbc="T T T"
C        0.39771000       0.46357000       0.29193000       0.39681600       0.05744600       0.25548700
C        3.19687000       0.30874000       3.16516000       0.10144400       0.89990500      -0.59264400
C        0.25096000       3.00438000       3.14764000       0.45732000      -0.18145500       0.32032800
C        3.12553000       3.19321000       0.37832000       0.52267800       0.02336400       0.19637100
O        1.09145000       0.94712000       1.11572000      -0.65957000      -0.27619700      -0.66804800
O        5.37240000       5.60996000       5.09968000       0.16896600       0.00110700       0.44030900
O        2.63905000       5.11957000       3.75675000      -0.27429400      -0.61393900       0.50524800
O        3.70061000       1.17498000       2.55422000       0.14388600      -0.37035600       0.14132900
O        5.23359000       3.70314000       2.48124000      -0.06172900       0.11636500      -0.08021700
O        0.92886000       2.31691000       3.81769000      -0.23204600       0.34726100      -0.24229200
O        3.91752000       2.54350000       5.43867000      -0.62547600       0.30071600       0.10715300
O        2.39533000       3.86450000       1.00587000       0.06200400      -0.30421800      -0.38302300
12