 1024 1024    1    1
  0.8384065E+01  0.2047620E-08  0.2047641E-08  0.2047630E-08  0.5000000E-15
   1.0000000000000000E-004
  CAR 
 unknown system                          
   2048      1   1664

  0.1262379E-14  0.1262379E-14  0.1262379E-14  0.1000000E+01
      1        -18.192050   1.000000
      2        -18.108378   1.000000
      3        -18.108209   1.000000
      4        -18.108185   1.000000
      5        -18.108175   1.000000
      6        -18.108173   1.000000
      7        -18.108123   1.000000
      8        -18.034719   1.000000
      9        -18.034392   1.000000
     10        -18.034380   1.000000
     11        -18.034349   1.000000
     12        -18.034336   1.000000
     13        -18.034335   1.000000
     14        -18.034329   1.000000
     15        -18.034325   1.000000
     16        -18.034324   1.000000
     17        -18.034303   1.000000
     18        -18.034284   1.000000
     19        -18.034236   1.000000
     20        -17.970614   1.000000
     21        -17.970392   1.000000
     22        -17.970383   1.000000
     23        -17.970372   1.000000
     24        -17.970359   1.000000
     25        -17.970346   1.000000
     26        -17.970338   1.000000
     27        -17.970320   1.000000
     28        -17.897732   1.000000
     29        -17.897587   1.000000
     30        -17.897551   1.000000
     31        -17.897542   1.000000
     32        -17.897537   1.000000
     33        -17.897516   1.000000
     34        -17.853708   1.000000
     35        -17.853087   1.000000
     36        -17.853065   1.000000
     37        -17.852988   1.000000
     38        -17.852978   1.000000
     39        -17.852970   1.000000
     40        -17.852967   1.000000
     41        -17.852964   1.000000
     42        -17.852961   1.000000
     43        -17.852960   1.000000
     44        -17.852957   1.000000
     45        -17.852952   1.000000
     46        -17.852950   1.000000
     47        -17.852945   1.000000
     48        -17.852945   1.000000
     49        -17.852943   1.000000
     50        -17.852937   1.000000
     51        -17.852932   1.000000
     52        -17.852930   1.000000
     53        -17.852920   1.000000
     54        -17.852911   1.000000
     55        -17.852896   1.000000
     56        -17.852829   1.000000
     57        -17.852822   1.000000
     58        -17.817169   1.000000
     59        -17.816564   1.000000
     60        -17.816533   1.000000
     61        -17.816484   1.000000
     62        -17.816467   1.000000
     63        -17.816457   1.000000
     64        -17.816454   1.000000
     65        -17.816450   1.000000
     66        -17.816447   1.000000
     67        -17.816442   1.000000
     68        -17.816438   1.000000
     69        -17.816437   1.000000
     70        -17.816436   1.000000
     71        -17.816433   1.000000
     72        -17.816431   1.000000
     73        -17.816427   1.000000
     74        -17.816424   1.000000
     75        -17.816419   1.000000
     76        -17.816416   1.000000
     77        -17.816410   1.000000
     78        -17.816396   1.000000
     79        -17.816377   1.000000
     80        -17.816342   1.000000
     81        -17.816318   1.000000
     82        -17.785752   1.000000
     83        -17.785596   1.000000
     84        -17.785585   1.000000
     85        -17.785577   1.000000
     86        -17.785560   1.000000
     87        -17.785539   1.000000
     88        -17.760765   1.000000
     89        -17.760464   1.000000
     90        -17.760441   1.000000
     91        -17.760433   1.000000
     92        -17.760415   1.000000
     93        -17.760413   1.000000
     94        -17.760397   1.000000
     95        -17.760394   1.000000
     96        -17.760392   1.000000
     97        -17.760383   1.000000
     98        -17.760362   1.000000
     99        -17.760349   1.000000
    100        -17.703725   1.000000
    101        -17.703637   1.000000
    102        -17.703623   1.000000
    103        -17.703601   1.000000
    104        -17.693503   1.000000
    105        -17.693287   1.000000
    106        -17.693251   1.000000
    107        -17.693246   1.000000
    108        -17.693238   1.000000
    109        -17.693230   1.000000
    110        -17.693223   1.000000
    111        -17.693193   1.000000
    112        -17.689632   1.000000
    113        -17.689356   1.000000
    114        -17.689304   1.000000
    115        -17.689302   1.000000
    116        -17.689296   1.000000
    117        -17.689296   1.000000
    118        -17.689288   1.000000
    119        -17.689279   1.000000
    120        -17.689274   1.000000
    121        -17.689264   1.000000
    122        -17.689255   1.000000
    123        -17.689206   1.000000
    124        -17.670731   1.000000
    125        -17.670564   1.000000
    126        -17.670553   1.000000
    127        -17.670544   1.000000
    128        -17.670534   1.000000
    129        -17.670528   1.000000
    130        -17.653501   1.000000
    131        -17.653221   1.000000
    132        -17.653191   1.000000
    133        -17.653182   1.000000
    134        -17.653169   1.000000
    135        -17.653161   1.000000
    136        -17.653151   1.000000
    137        -17.653145   1.000000
    138        -17.653140   1.000000
    139        -17.653136   1.000000
    140        -17.653110   1.000000
    141        -17.653100   1.000000
    142        -17.634371   1.000000
    143        -17.634233   1.000000
    144        -17.634219   1.000000
    145        -17.634203   1.000000
    146        -17.634182   1.000000
    147        -17.634172   1.000000
    148        -17.613951   1.000000
    149        -17.613757   1.000000
    150        -17.613743   1.000000
    151        -17.613721   1.000000
    152        -17.613715   1.000000
    153        -17.613697   1.000000
    154        -17.613681   1.000000
    155        -17.613664   1.000000
    156        -17.601164   1.000000
    157        -17.600580   1.000000
    158        -17.600547   1.000000
    159        -17.600502   1.000000
    160        -17.600485   1.000000
    161        -17.600477   1.000000
    162        -17.600473   1.000000
    163        -17.600469   1.000000
    164        -17.600466   1.000000
    165        -17.600462   1.000000
    166        -17.600458   1.000000
    167        -17.600453   1.000000
    168        -17.600452   1.000000
    169        -17.600447   1.000000
    170        -17.600444   1.000000
    171        -17.600442   1.000000
    172        -17.600437   1.000000
    173        -17.600433   1.000000
    174        -17.600432   1.000000
    175        -17.600425   1.000000
    176        -17.600400   1.000000
    177        -17.600399   1.000000
    178        -17.600354   1.000000
    179        -17.600340   1.000000
    180        -17.585142   1.000000
    181        -17.584854   1.000000
    182        -17.584842   1.000000
    183        -17.584826   1.000000
    184        -17.584808   1.000000
    185        -17.584799   1.000000
    186        -17.584798   1.000000
    187        -17.584785   1.000000
    188        -17.584776   1.000000
    189        -17.584760   1.000000
    190        -17.584757   1.000000
    191        -17.584734   1.000000
    192        -17.567964   1.000000
    193        -17.567399   1.000000
    194        -17.567381   1.000000
    195        -17.567311   1.000000
    196        -17.567297   1.000000
    197        -17.567292   1.000000
    198        -17.567289   1.000000
    199        -17.567283   1.000000
    200        -17.567281   1.000000
    201        -17.567277   1.000000
    202        -17.567275   1.000000
    203        -17.567273   1.000000
    204        -17.567269   1.000000
    205        -17.567267   1.000000
    206        -17.567259   1.000000
    207        -17.567255   1.000000
    208        -17.567253   1.000000
    209        -17.567248   1.000000
    210        -17.567243   1.000000
    211        -17.567240   1.000000
    212        -17.567223   1.000000
    213        -17.567214   1.000000
    214        -17.567159   1.000000
    215        -17.567128   1.000000
    216        -17.558340   1.000000
    217        -17.558168   1.000000
    218        -17.558152   1.000000
    219        -17.558134   1.000000
    220        -17.558124   1.000000
    221        -17.558112   1.000000
    222        -17.558099   1.000000
    223        -17.558083   1.000000
    224        -17.544710   1.000000
    225        -17.544647   1.000000
    226        -17.544626   1.000000
    227        -17.537404   1.000000
    228        -17.537254   1.000000
    229        -17.537236   1.000000
    230        -17.537232   1.000000
    231        -17.537224   1.000000
    232        -17.537201   1.000000
    233        -17.529052   1.000000
    234        -17.528758   1.000000
    235        -17.528747   1.000000
    236        -17.528721   1.000000
    237        -17.528710   1.000000
    238        -17.528703   1.000000
    239        -17.528697   1.000000
    240        -17.528694   1.000000
    241        -17.528683   1.000000
    242        -17.528666   1.000000
    243        -17.528656   1.000000
    244        -17.528635   1.000000
    245        -17.523312   1.000000
    246        -17.523189   1.000000
    247        -17.523171   1.000000
    248        -17.523154   1.000000
    249        -17.523144   1.000000
    250        -17.523118   1.000000
    251        -17.517820   1.000000
    252        -17.517681   1.000000
    253        -17.517666   1.000000
    254        -17.517653   1.000000
    255        -17.517648   1.000000
    256        -17.517626   1.000000
    257         -8.664311   1.000000
    258         -8.664133   1.000000
    259         -8.664078   1.000000
    260         -8.664018   1.000000
    261         -8.602100   1.000000
    262         -8.601241   1.000000
    263         -8.601228   1.000000
    264         -8.601201   1.000000
    265         -8.601183   1.000000
    266         -8.601174   1.000000
    267         -8.601158   1.000000
    268         -8.601154   1.000000
    269         -8.601143   1.000000
    270         -8.601133   1.000000
    271         -8.601123   1.000000
    272         -8.600984   1.000000
    273         -8.597184   1.000000
    274         -8.596754   1.000000
    275         -8.596744   1.000000
    276         -8.596737   1.000000
    277         -8.596729   1.000000
    278         -8.596715   1.000000
    279         -8.596696   1.000000
    280         -8.596539   1.000000
    281         -8.586551   1.000000
    282         -8.586433   1.000000
    283         -8.586293   1.000000
    284         -8.575357   1.000000
    285         -8.573901   1.000000
    286         -8.573890   1.000000
    287         -8.573870   1.000000
    288         -8.573859   1.000000
    289         -8.573844   1.000000
    290         -8.573837   1.000000
    291         -8.573832   1.000000
    292         -8.573831   1.000000
    293         -8.573825   1.000000
    294         -8.573821   1.000000
    295         -8.573815   1.000000
    296         -8.573813   1.000000
    297         -8.573811   1.000000
    298         -8.573805   1.000000
    299         -8.573804   1.000000
    300         -8.573793   1.000000
    301         -8.573787   1.000000
    302         -8.573785   1.000000
    303         -8.573776   1.000000
    304         -8.573765   1.000000
    305         -8.573751   1.000000
    306         -8.573740   1.000000
    307         -8.573375   1.000000
    308         -8.553739   1.000000
    309         -8.553052   1.000000
    310         -8.553034   1.000000
    311         -8.553011   1.000000
    312         -8.553002   1.000000
    313         -8.553001   1.000000
    314         -8.552992   1.000000
    315         -8.552980   1.000000
    316         -8.552975   1.000000
    317         -8.552972   1.000000
    318         -8.552953   1.000000
    319         -8.552746   1.000000
    320         -8.536920   1.000000
    321         -8.536581   1.000000
    322         -8.536545   1.000000
    323         -8.536514   1.000000
    324         -8.536480   1.000000
    325         -8.536404   1.000000
    326         -8.531048   1.000000
    327         -8.530683   1.000000
    328         -8.530676   1.000000
    329         -8.530651   1.000000
    330         -8.530646   1.000000
    331         -8.530542   1.000000
    332         -8.505639   1.000000
    333         -8.504394   1.000000
    334         -8.504386   1.000000
    335         -8.504376   1.000000
    336         -8.504369   1.000000
    337         -8.504353   1.000000
    338         -8.504352   1.000000
    339         -8.504346   1.000000
    340         -8.504337   1.000000
    341         -8.504315   1.000000
    342         -8.504302   1.000000
    343         -8.504209   1.000000
    344         -8.503941   1.000000
    345         -8.503774   1.000000
    346         -8.503763   1.000000
    347         -8.503750   1.000000
    348         -8.503728   1.000000
    349         -8.503724   1.000000
    350         -8.503721   1.000000
    351         -8.503709   1.000000
    352         -8.503705   1.000000
    353         -8.503677   1.000000
    354         -8.503660   1.000000
    355         -8.503419   1.000000
    356         -8.491155   1.000000
    357         -8.490775   1.000000
    358         -8.490706   1.000000
    359         -8.490697   1.000000
    360         -8.490687   1.000000
    361         -8.490623   1.000000
    362         -8.486734   1.000000
    363         -8.485949   1.000000
    364         -8.485928   1.000000
    365         -8.485917   1.000000
    366         -8.485905   1.000000
    367         -8.485901   1.000000
    368         -8.485898   1.000000
    369         -8.485805   1.000000
    370         -8.485390   1.000000
    371         -8.485078   1.000000
    372         -8.485065   1.000000
    373         -8.485038   1.000000
    374         -8.485032   1.000000
    375         -8.485027   1.000000
    376         -8.485011   1.000000
    377         -8.485006   1.000000
    378         -8.485001   1.000000
    379         -8.484992   1.000000
    380         -8.484984   1.000000
    381         -8.484783   1.000000
    382         -8.475208   1.000000
    383         -8.474589   1.000000
    384         -8.474560   1.000000
    385         -8.474557   1.000000
    386         -8.474544   1.000000
    387         -8.474525   1.000000
    388         -8.474519   1.000000
    389         -8.474516   1.000000
    390         -8.474504   1.000000
    391         -8.474497   1.000000
    392         -8.474481   1.000000
    393         -8.474304   1.000000
    394         -8.459300   1.000000
    395         -8.458960   1.000000
    396         -8.458943   1.000000
    397         -8.458923   1.000000
    398         -8.458910   1.000000
    399         -8.458830   1.000000
    400         -8.451801   1.000000
    401         -8.451559   1.000000
    402         -8.451545   1.000000
    403         -8.451511   1.000000
    404         -8.451501   1.000000
    405         -8.451382   1.000000
    406         -8.430356   1.000000
    407         -8.430012   1.000000
    408         -8.430004   1.000000
    409         -8.429986   1.000000
    410         -8.429979   1.000000
    411         -8.429971   1.000000
    412         -8.429960   1.000000
    413         -8.429824   1.000000
    414         -8.388382   1.000000
    415         -8.387808   1.000000
    416         -8.387789   1.000000
    417         -8.387779   1.000000
    418         -8.387771   1.000000
    419         -8.387752   1.000000
    420         -8.387745   1.000000
    421         -8.387741   1.000000
    422         -8.387730   1.000000
    423         -8.387726   1.000000
    424         -8.387714   1.000000
    425         -8.387528   1.000000
    426         -8.350569   1.000000
    427         -8.349447   1.000000
    428         -8.349400   1.000000
    429         -8.349385   1.000000
    430         -8.349375   1.000000
    431         -8.349359   1.000000
    432         -8.349352   1.000000
    433         -8.349348   1.000000
    434         -8.349344   1.000000
    435         -8.349342   1.000000
    436         -8.349332   1.000000
    437         -8.349331   1.000000
    438         -8.349323   1.000000
    439         -8.349320   1.000000
    440         -8.349311   1.000000
    441         -8.349310   1.000000
    442         -8.349303   1.000000
    443         -8.349299   1.000000
    444         -8.349294   1.000000
    445         -8.349286   1.000000
    446         -8.349282   1.000000
    447         -8.349273   1.000000
    448         -8.349251   1.000000
    449         -8.348887   1.000000
    450         -8.326040   1.000000
    451         -8.325821   1.000000
    452         -8.325802   1.000000
    453         -8.325781   1.000000
    454         -8.325711   1.000000
    455         -8.325663   1.000000
    456         -8.242473   1.000000
    457         -8.241932   1.000000
    458         -8.241902   1.000000
    459         -8.241878   1.000000
    460         -8.241869   1.000000
    461         -8.241866   1.000000
    462         -8.241853   1.000000
    463         -8.241843   1.000000
    464         -8.241816   1.000000
    465         -8.241789   1.000000
    466         -8.241779   1.000000
    467         -8.241636   1.000000
    468         -8.185982   1.000000
    469         -8.185548   1.000000
    470         -8.185476   1.000000
    471         -8.185459   1.000000
    472         -8.185428   1.000000
    473         -8.185381   1.000000
    474         -8.184920   1.000000
    475         -8.184567   1.000000
    476         -8.184546   1.000000
    477         -8.184541   1.000000
    478         -8.184530   1.000000
    479         -8.184526   1.000000
    480         -8.184512   1.000000
    481         -8.184502   1.000000
    482         -8.184495   1.000000
    483         -8.184493   1.000000
    484         -8.184477   1.000000
    485         -8.184289   1.000000
    486         -8.077038   1.000000
    487         -8.076643   1.000000
    488         -8.076606   1.000000
    489         -8.076603   1.000000
    490         -8.076586   1.000000
    491         -8.076581   1.000000
    492         -8.076561   1.000000
    493         -8.076464   1.000000
    494         -7.964282   1.000000
    495         -7.963640   1.000000
    496         -7.963633   1.000000
    497         -7.963617   1.000000
    498         -7.963615   1.000000
    499         -7.963604   1.000000
    500         -7.963597   1.000000
    501         -7.963588   1.000000
    502         -7.963585   1.000000
    503         -7.963577   1.000000
    504         -7.963562   1.000000
    505         -7.963350   1.000000
    506         -7.923262   1.000000
    507         -7.922999   1.000000
    508         -7.922945   1.000000
    509         -7.922903   1.000000
    510         -7.922876   1.000000
    511         -7.922812   1.000000
    512         -7.888713   1.000000
    513         -7.888044   1.000000
    514         -7.888033   1.000000
    515         -7.888020   1.000000
    516         -7.888010   1.000000
    517         -7.888008   1.000000
    518         -7.887991   1.000000
    519         -7.887982   1.000000
    520         -7.887966   1.000000
    521         -7.887957   1.000000
    522         -7.887948   1.000000
    523         -7.887781   1.000000
    524         -7.872347   1.000000
    525         -7.871909   1.000000
    526         -7.871889   1.000000
    527         -7.871873   1.000000
    528         -7.871871   1.000000
    529         -7.871853   1.000000
    530         -7.871847   1.000000
    531         -7.871715   1.000000
    532         -7.865173   1.000000
    533         -7.864595   1.000000
    534         -7.864573   1.000000
    535         -7.864566   1.000000
    536         -7.864551   1.000000
    537         -7.864545   1.000000
    538         -7.864515   1.000000
    539         -7.864508   1.000000
    540         -7.864507   1.000000
    541         -7.864481   1.000000
    542         -7.864461   1.000000
    543         -7.864265   1.000000
    544         -7.809248   1.000000
    545         -7.808967   1.000000
    546         -7.808902   1.000000
    547         -7.808886   1.000000
    548         -7.808862   1.000000
    549         -7.808807   1.000000
    550         -7.798246   1.000000
    551         -7.798140   1.000000
    552         -7.790376   1.000000
    553         -7.789767   1.000000
    554         -7.789747   1.000000
    555         -7.789723   1.000000
    556         -7.789717   1.000000
    557         -7.789699   1.000000
    558         -7.789693   1.000000
    559         -7.789683   1.000000
    560         -7.789664   1.000000
    561         -7.789645   1.000000
    562         -7.789639   1.000000
    563         -7.789457   1.000000
    564         -7.749881   1.000000
    565         -7.749543   1.000000
    566         -7.749521   1.000000
    567         -7.749480   1.000000
    568         -7.749454   1.000000
    569         -7.749409   1.000000
    570         -7.744074   1.000000
    571         -7.743778   1.000000
    572         -7.743723   1.000000
    573         -7.743697   1.000000
    574         -7.743611   1.000000
    575         -7.743583   1.000000
    576         -7.739643   1.000000
    577         -7.739015   1.000000
    578         -7.739005   1.000000
    579         -7.739002   1.000000
    580         -7.738989   1.000000
    581         -7.738984   1.000000
    582         -7.738971   1.000000
    583         -7.738947   1.000000
    584         -7.738928   1.000000
    585         -7.738899   1.000000
    586         -7.738894   1.000000
    587         -7.738737   1.000000
    588         -7.727721   1.000000
    589         -7.727452   1.000000
    590         -7.727375   1.000000
    591         -7.727363   1.000000
    592         -7.727331   1.000000
    593         -7.727264   1.000000
    594         -7.713351   1.000000
    595         -7.712467   1.000000
    596         -7.712437   1.000000
    597         -7.712428   1.000000
    598         -7.712414   1.000000
    599         -7.712410   1.000000
    600         -7.712391   1.000000
    601         -7.712291   1.000000
    602         -7.711643   1.000000
    603         -7.710958   1.000000
    604         -7.710899   1.000000
    605         -7.710894   1.000000
    606         -7.710887   1.000000
    607         -7.710871   1.000000
    608         -7.710866   1.000000
    609         -7.710860   1.000000
    610         -7.710851   1.000000
    611         -7.710844   1.000000
    612         -7.710842   1.000000
    613         -7.710835   1.000000
    614         -7.710829   1.000000
    615         -7.710817   1.000000
    616         -7.710811   1.000000
    617         -7.710802   1.000000
    618         -7.710796   1.000000
    619         -7.710790   1.000000
    620         -7.710789   1.000000
    621         -7.710785   1.000000
    622         -7.710774   1.000000
    623         -7.710760   1.000000
    624         -7.710744   1.000000
    625         -7.710299   1.000000
    626         -7.645690   1.000000
    627         -7.645027   1.000000
    628         -7.645011   1.000000
    629         -7.644995   1.000000
    630         -7.644991   1.000000
    631         -7.644976   1.000000
    632         -7.644971   1.000000
    633         -7.644962   1.000000
    634         -7.644960   1.000000
    635         -7.644947   1.000000
    636         -7.644913   1.000000
    637         -7.644754   1.000000
    638         -7.629821   1.000000
    639         -7.629602   1.000000
    640         -7.629535   1.000000
    641         -7.629502   1.000000
    642         -7.629444   1.000000
    643         -7.629400   1.000000
    644         -7.596383   1.000000
    645         -7.596115   1.000000
    646         -7.596087   1.000000
    647         -7.596064   1.000000
    648         -7.595985   1.000000
    649         -7.595930   1.000000
    650         -7.572884   1.000000
    651         -7.572344   1.000000
    652         -7.572335   1.000000
    653         -7.572320   1.000000
    654         -7.572316   1.000000
    655         -7.572309   1.000000
    656         -7.572289   1.000000
    657         -7.572164   1.000000
    658         -7.563398   1.000000
    659         -7.562360   1.000000
    660         -7.562328   1.000000
    661         -7.562317   1.000000
    662         -7.562307   1.000000
    663         -7.562242   1.000000
    664         -7.562064   1.000000
    665         -7.561795   1.000000
    666         -7.561764   1.000000
    667         -7.561735   1.000000
    668         -7.561726   1.000000
    669         -7.561710   1.000000
    670         -7.561690   1.000000
    671         -7.561682   1.000000
    672         -7.561679   1.000000
    673         -7.561673   1.000000
    674         -7.561669   1.000000
    675         -7.561522   1.000000
    676         -7.561182   1.000000
    677         -7.561025   1.000000
    678         -7.560991   1.000000
    679         -7.560987   1.000000
    680         -7.560978   1.000000
    681         -7.560967   1.000000
    682         -7.560959   1.000000
    683         -7.560933   1.000000
    684         -7.560904   1.000000
    685         -7.560902   1.000000
    686         -7.560882   1.000000
    687         -7.560615   1.000000
    688         -7.554559   1.000000
    689         -7.554489   1.000000
    690         -7.554372   1.000000
    691         -7.524286   1.000000
    692         -7.523680   1.000000
    693         -7.523658   1.000000
    694         -7.523652   1.000000
    695         -7.523643   1.000000
    696         -7.523627   1.000000
    697         -7.523618   1.000000
    698         -7.523607   1.000000
    699         -7.523594   1.000000
    700         -7.523563   1.000000
    701         -7.523526   1.000000
    702         -7.523394   1.000000
    703         -7.493827   1.000000
    704         -7.493508   1.000000
    705         -7.493500   1.000000
    706         -7.493476   1.000000
    707         -7.493429   1.000000
    708         -7.493347   1.000000
    709         -7.469642   1.000000
    710         -7.468214   1.000000
    711         -7.468189   1.000000
    712         -7.468167   1.000000
    713         -7.468162   1.000000
    714         -7.468150   1.000000
    715         -7.468145   1.000000
    716         -7.468138   1.000000
    717         -7.468128   1.000000
    718         -7.468126   1.000000
    719         -7.468116   1.000000
    720         -7.468112   1.000000
    721         -7.468103   1.000000
    722         -7.468099   1.000000
    723         -7.468084   1.000000
    724         -7.468079   1.000000
    725         -7.468077   1.000000
    726         -7.468063   1.000000
    727         -7.468053   1.000000
    728         -7.468040   1.000000
    729         -7.468039   1.000000
    730         -7.468029   1.000000
    731         -7.467989   1.000000
    732         -7.467668   1.000000
    733         -7.461544   1.000000
    734         -7.460990   1.000000
    735         -7.460984   1.000000
    736         -7.460969   1.000000
    737         -7.460961   1.000000
    738         -7.460944   1.000000
    739         -7.460933   1.000000
    740         -7.460923   1.000000
    741         -7.460919   1.000000
    742         -7.460885   1.000000
    743         -7.460866   1.000000
    744         -7.460711   1.000000
    745         -7.455461   1.000000
    746         -7.454955   1.000000
    747         -7.454931   1.000000
    748         -7.454923   1.000000
    749         -7.454918   1.000000
    750         -7.454907   1.000000
    751         -7.454899   1.000000
    752         -7.454895   1.000000
    753         -7.454882   1.000000
    754         -7.454876   1.000000
    755         -7.454862   1.000000
    756         -7.454655   1.000000
    757         -7.410856   1.000000
    758         -7.410645   1.000000
    759         -7.410609   1.000000
    760         -7.410536   1.000000
    761         -7.409038   1.000000
    762         -7.408674   1.000000
    763         -7.408663   1.000000
    764         -7.408652   1.000000
    765         -7.408638   1.000000
    766         -7.408637   1.000000
    767         -7.408632   1.000000
    768         -7.408490   1.000000
    769         -3.421131   1.000000
    770         -3.421107   1.000000
    771         -3.421095   1.000000
    772         -3.421079   1.000000
    773         -3.421055   1.000000
    774         -3.420986   1.000000
    775         -3.416203   1.000000
    776         -3.416183   1.000000
    777         -3.416156   1.000000
    778         -3.416144   1.000000
    779         -3.416140   1.000000
    780         -3.416131   1.000000
    781         -3.416121   1.000000
    782         -3.416120   1.000000
    783         -3.416110   1.000000
    784         -3.416093   1.000000
    785         -3.416071   1.000000
    786         -3.415943   1.000000
    787         -3.413436   1.000000
    788         -3.413423   1.000000
    789         -3.413390   1.000000
    790         -3.413382   1.000000
    791         -3.413376   1.000000
    792         -3.413372   1.000000
    793         -3.413365   1.000000
    794         -3.413359   1.000000
    795         -3.413339   1.000000
    796         -3.413328   1.000000
    797         -3.413305   1.000000
    798         -3.413158   1.000000
    799         -3.406137   1.000000
    800         -3.406121   1.000000
    801         -3.406103   1.000000
    802         -3.406097   1.000000
    803         -3.406083   1.000000