 vasp.6.4.1 05Apr23 (build Jun  6 2023 14:46:38) gamma-only                      
 executed on        HPECrayEX_GCC date 2024.08.22  14:48:17
 running  512 mpi-ranks, with    1 threads/rank, on    4 nodes
 distrk:  each k-point on  512 cores,    1 groups
 distr:  one band on NCORE=   2 cores,  256 groups


--------------------------------------------------------------------------------------------------------


 INCAR:
   ALGO = Conjugate
   NCORE = 2
   PREC = Accurate
   EDIFF = 1E-7
   ENCUT = 1000
   ISMEAR = 0
   SIGMA = 0.01
   ISIF = 0
   SYMPREC = 1E-7
   IVDW = 11
   LWAVE = .FALSE.
   LCHARG = .FALSE.
   LWAVE = .FALSE.
   LCHARG = .FALSE.

 POTCAR:    PAW_PBE C_h 06Feb2004                 
 POTCAR:    PAW_PBE H_h 06Feb2004                 
 POTCAR:    PAW_PBE O_h 06Feb2004                 
 POTCAR:    PAW_PBE C_h 06Feb2004                 
   VRHFIN =C: s2p2                                                                                  
   LEXCH  = PE                                                                                      
   EATOM  =   147.1560 eV,   10.8157 Ry                                                             
                                                                                                    
   TITEL  = PAW_PBE C_h 06Feb2004                                                                   
   LULTRA =        F    use ultrasoft PP ?                                                          
   IUNSCR =        1    unscreen: 0-lin 1-nonlin 2-no                                               
   RPACOR =    0.800    partial core radius                                                         
   POMASS =   12.011; ZVAL   =    4.000    mass and valenz                                          
   RCORE  =    1.100    outmost cutoff radius                                                       
   RWIGS  =    1.630; RWIGS  =    0.863    wigner-seitz radius (au A)                               
   ENMAX  =  700.000; ENMIN  =  500.000 eV                                                          
   ICORE  =        2    local potential                                                             
   LCOR   =        T    correct aug charges                                                         
   LPAW   =        T    paw PP                                                                      
   EAUG   =  946.768                                                                                
   DEXC   =    0.000                                                                                
   RMAX   =    1.128    core radius for proj-oper                                                   
   RAUG   =    1.300    factor for augmentation sphere                                              
   RDEP   =    1.162    radius for radial grids                                                     
   RDEPT  =    1.088    core radius for aug-charge                                                  
                                                                                                    
   Atomic configuration                                                                             
    4 entries                                                                                       
     n  l   j            E        occ.                                                              
     1  0  0.50      -273.3789   2.0000                                                             
     2  0  0.50       -13.7508   2.0000                                                             
     2  1  0.50        -5.2854   2.0000                                                             
     3  2  1.50        -5.4423   0.0000                                                             
   Description                                                                                      
     l       E           TYP  RCUT    TYP  RCUT                                                     
     0    -13.7508458     23  1.100                                                                 
     0     -8.2022199     23  1.100                                                                 
     1     -5.2854383     23  1.100                                                                 
     1      1.1560700     23  1.100                                                                 
     2     -5.4423304      7  1.100                                                                 
  local pseudopotential read in
  partial core-charges read in
  partial kinetic energy density read in
  atomic valenz-charges read in
  non local Contribution for L=           0  read in
    real space projection operators read in
  non local Contribution for L=           0  read in
    real space projection operators read in
  non local Contribution for L=           1  read in
    real space projection operators read in
  non local Contribution for L=           1  read in
    real space projection operators read in
    PAW grid and wavefunctions read in

   number of l-projection  operators is LMAX  =           4
   number of lm-projection operators is LMMAX =           8

 POTCAR:    PAW_PBE H_h 06Feb2004                 
   VRHFIN =H: ultrasoft test                                                                        
   LEXCH  = PE                                                                                      
   EATOM  =    12.4884 eV,    0.9179 Ry                                                             
                                                                                                    
   TITEL  = PAW_PBE H_h 06Feb2004                                                                   
   LULTRA =        F    use ultrasoft PP ?                                                          
   IUNSCR =        0    unscreen: 0-lin 1-nonlin 2-no                                               
   RPACOR =    0.000    partial core radius                                                         
   POMASS =    1.000; ZVAL   =    1.000    mass and valenz                                          
   RCORE  =    0.800    outmost cutoff radius                                                       
   RWIGS  =    0.700; RWIGS  =    0.370    wigner-seitz radius (au A)                               
   ENMAX  =  700.000; ENMIN  =  350.000 eV                                                          
   RCLOC  =    0.701    cutoff for local pot                                                        
   LCOR   =        T    correct aug charges                                                         
   LPAW   =        T    paw PP                                                                      
   EAUG   = 1000.000                                                                                
   RMAX   =    0.819    core radius for proj-oper                                                   
   RAUG   =    1.000    factor for augmentation sphere                                              
   RDEP   =    0.817    radius for radial grids                                                     
   RDEPT  =    0.817    core radius for aug-charge                                                  
                                                                                                    
   Atomic configuration                                                                             
    2 entries                                                                                       
     n  l   j            E        occ.                                                              
     1  0  0.50        -6.4927   1.0000                                                             
     2  1  0.50        -3.4015   0.0000                                                             
   Description                                                                                      
     l       E           TYP  RCUT    TYP  RCUT                                                     
     0     -6.4927493     23  0.800                                                                 
     0      6.8029130     23  0.800                                                                 
     1     -6.8029130     23  0.800                                                                 
  local pseudopotential read in
  atomic valenz-charges read in
  non local Contribution for L=           0  read in
    real space projection operators read in
  non local Contribution for L=           0  read in
    real space projection operators read in
  non local Contribution for L=           1  read in
    real space projection operators read in
    PAW grid and wavefunctions read in

   number of l-projection  operators is LMAX  =           3
   number of lm-projection operators is LMMAX =           5

 POTCAR:    PAW_PBE O_h 06Feb2004                 
   VRHFIN =O: s2p4                                                                                  
   LEXCH  = PE                                                                                      
   EATOM  =   432.3788 eV,   31.7789 Ry                                                             
                                                                                                    
   TITEL  = PAW_PBE O_h 06Feb2004                                                                   
   LULTRA =        F    use ultrasoft PP ?                                                          
   IUNSCR =        1    unscreen: 0-lin 1-nonlin 2-no                                               
   RPACOR =    0.800    partial core radius                                                         
   POMASS =   16.000; ZVAL   =    6.000    mass and valenz                                          
   RCORE  =    1.100    outmost cutoff radius                                                       
   RWIGS  =    1.400; RWIGS  =    0.741    wigner-seitz radius (au A)                               
   ENMAX  =  700.000; ENMIN  =  500.000 eV                                                          
   ICORE  =        2    local potential                                                             
   LCOR   =        T    correct aug charges                                                         
   LPAW   =        T    paw PP                                                                      
   EAUG   =  888.804                                                                                
   DEXC   =    0.000                                                                                
   RMAX   =    1.128    core radius for proj-oper                                                   
   RAUG   =    1.300    factor for augmentation sphere                                              
   RDEP   =    1.125    radius for radial grids                                                     
   RDEPT  =    1.088    core radius for aug-charge                                                  
                                                                                                    
   Atomic configuration                                                                             
    4 entries                                                                                       
     n  l   j            E        occ.                                                              
     1  0  0.50      -514.6923   2.0000                                                             
     2  0  0.50       -23.9615   2.0000                                                             
     2  1  0.50        -9.0305   4.0000                                                             
     3  2  1.50        -9.5241   0.0000                                                             
   Description                                                                                      
     l       E           TYP  RCUT    TYP  RCUT                                                     
     0    -23.9615319     23  1.100                                                                 
     0    -25.3221145     23  1.100                                                                 
     1     -9.0304911     23  1.100                                                                 
     1     -5.4802209     23  1.100                                                                 
     2     -9.5240782      7  1.100                                                                 
  local pseudopotential read in
  partial core-charges read in
  partial kinetic energy density read in
  atomic valenz-charges read in
  non local Contribution for L=           0  read in
    real space projection operators read in
  non local Contribution for L=           0  read in
    real space projection operators read in
  non local Contribution for L=           1  read in
    real space projection operators read in
  non local Contribution for L=           1  read in
    real space projection operators read in
    PAW grid and wavefunctions read in

   number of l-projection  operators is LMAX  =           4
   number of lm-projection operators is LMMAX =           8

  PAW_PBE C_h 06Feb2004                 :
 energy of atom  1       EATOM= -147.1560
 kinetic energy error for atom=    0.0031 (will be added to EATOM!!)
  PAW_PBE H_h 06Feb2004                 :
 energy of atom  2       EATOM=  -12.4884
 kinetic energy error for atom=    0.0006 (will be added to EATOM!!)
  PAW_PBE O_h 06Feb2004                 :
 energy of atom  3       EATOM= -432.3788
 kinetic energy error for atom=    0.0171 (will be added to EATOM!!)


 POSCAR:  C  H  O
  positions in cartesian coordinates
  No initial velocities read in
 exchange correlation table for  LEXCH =        8
   RHO(1)=    0.500       N(1)  =     2000
   RHO(2)=  100.500       N(2)  =     4000

 VTST: version 4.1, (05/19/21)

 CHAIN: initializing optimizer
 
 OPT: Using VASP Dynamics algorithm
 CHAIN: Read ICHAIN            0

 POSCAR:  C  H  O
  positions in cartesian coordinates
  No initial velocities read in



--------------------------------------------------------------------------------------------------------


 ion  position               nearest neighbor table
   1  0.472  0.469  0.471-   7 1.10   8 1.10   4 1.52   2 1.53
   2  0.472  0.531  0.471-  10 1.10   9 1.10   3 1.52   1 1.53
   3  0.528  0.554  0.470-  11 1.21  12 1.36   2 1.52
   4  0.491  0.446  0.524-  13 1.21  14 1.36   1 1.52
   5  0.565  0.619  0.477-  12 0.97
   6  0.511  0.381  0.555-  14 0.97
   7  0.497  0.453  0.439-   1 1.10
   8  0.431  0.454  0.463-   1 1.10
   9  0.451  0.546  0.435-   2 1.10
  10  0.451  0.547  0.506-   2 1.10
  11  0.569  0.529  0.460-   3 1.21
  12  0.528  0.607  0.479-   5 0.97   3 1.36
  13  0.497  0.471  0.565-   4 1.21
  14  0.500  0.393  0.520-   6 0.97   4 1.36

  LATTYP: Found a simple cubic cell.
 ALAT       =    25.0000000000
  
  Lattice vectors:
  
 A1 = (  25.0000000000,   0.0000000000,   0.0000000000)
 A2 = (   0.0000000000,  25.0000000000,   0.0000000000)
 A3 = (   0.0000000000,   0.0000000000,  25.0000000000)


Analysis of symmetry for initial positions (statically):
=====================================================================
 Subroutine PRICEL returns:
 Original cell was already a primitive cell.
 

 Routine SETGRP: Setting up the symmetry group for a 
 simple cubic supercell.


 Subroutine GETGRP returns: Found  1 space group operations
 (whereof  1 operations were pure point group operations)
 out of a pool of 48 trial point group operations.


The static configuration has the point symmetry C_1 .


Analysis of symmetry for dynamics (positions and initial velocities):
=====================================================================
 Subroutine PRICEL returns:
 Original cell was already a primitive cell.
 

 Routine SETGRP: Setting up the symmetry group for a 
 simple cubic supercell.


 Subroutine GETGRP returns: Found  1 space group operations
 (whereof  1 operations were pure point group operations)
 out of a pool of 48 trial point group operations.


The dynamic configuration has the point symmetry C_1 .


 Subroutine INISYM returns: Found  1 space group operations
 (whereof  1 operations are pure point group operations),
 and found     1 'primitive' translations


----------------------------------------------------------------------------------------

                                     Primitive cell                                     

  volume of cell :   15625.0000

  direct lattice vectors                    reciprocal lattice vectors
    25.000000000  0.000000000  0.000000000     0.040000000  0.000000000  0.000000000
     0.000000000 25.000000000  0.000000000     0.000000000  0.040000000  0.000000000
     0.000000000  0.000000000 25.000000000     0.000000000  0.000000000  0.040000000

  length of vectors
    25.000000000 25.000000000 25.000000000     0.040000000  0.040000000  0.040000000

  position of ions in fractional coordinates (direct lattice)
     0.471842000  0.469412000  0.470636000
     0.471842000  0.530504000  0.470552000
     0.528014000  0.553660000  0.469528000
     0.490802000  0.446300000  0.523532000
     0.564790000  0.618640000  0.477404000
     0.511262000  0.381360000  0.555164000
     0.497230000  0.453288000  0.438572000
     0.431190000  0.454012000  0.463404000
     0.450678000  0.545852000  0.435076000
     0.450834000  0.546652000  0.505628000
     0.568810000  0.529036000  0.460360000
     0.527598000  0.607204000  0.479376000
     0.496650000  0.470944000  0.564924000
     0.499914000  0.392760000  0.519684000

  ion indices of the primitive-cell ions
   primitive index   ion index
                 1           1
                 2           2
                 3           3
                 4           4
                 5           5
                 6           6
                 7           7
                 8           8
                 9           9
                10          10
                11          11
                12          12
                13          13
                14          14

----------------------------------------------------------------------------------------



 KPOINTS: auto                                    

Automatic generation of k-mesh.
 Grid dimensions read from file:
 generate k-points for:    1    1    1

 Generating k-lattice:

  Cartesian coordinates                     Fractional coordinates (reciprocal lattice)
     0.040000000  0.000000000  0.000000000     1.000000000  0.000000000  0.000000000
     0.000000000  0.040000000  0.000000000     0.000000000  1.000000000  0.000000000
     0.000000000  0.000000000  0.040000000     0.000000000  0.000000000  1.000000000

  Length of vectors
     0.040000000  0.040000000  0.040000000

  Shift w.r.t. Gamma in fractional coordinates (k-lattice)
     0.000000000  0.000000000  0.000000000

 
 Subroutine IBZKPT returns following result:
 ===========================================
 
 Found      1 irreducible k-points:
 
 Following reciprocal coordinates:
            Coordinates               Weight
  0.000000  0.000000  0.000000      1.000000
 
 Following cartesian coordinates:
            Coordinates               Weight
  0.000000  0.000000  0.000000      1.000000
 


--------------------------------------------------------------------------------------------------------




 Dimension of arrays:
   k-points           NKPTS =      1   k-points in BZ     NKDIM =      1   number of bands    NBANDS=    256
   number of dos      NEDOS =    301   number of ions     NIONS =     14
   non local maximal  LDIM  =      4   non local SUM 2l+1 LMDIM =      8
   total plane-waves  NPLWV = ******
   max r-space proj   IRMAX =      1   max aug-charges    IRDMAX=   9386
   dimension x,y,z NGX =   270 NGY =  270 NGZ =  270
   dimension x,y,z NGXF=   540 NGYF=  540 NGZF=  540
   support grid    NGXF=   540 NGYF=  540 NGZF=  540
   ions per type =               4   6   4
   NGX,Y,Z   is equivalent  to a cutoff of  17.95, 17.95, 17.95 a.u.
   NGXF,Y,Z  is equivalent  to a cutoff of  35.91, 35.91, 35.91 a.u.

 SYSTEM =  unknown system                          
 POSCAR =   C  H  O                                

 Startparameter for this run:
   NWRITE =      2    write-flag & timer
   PREC   = accura    normal or accurate (medium, high low for compatibility)
   ISTART =      0    job   : 0-new  1-cont  2-samecut
   ICHARG =      2    charge: 1-file 2-atom 10-const
   ISPIN  =      1    spin polarized calculation?
   LNONCOLLINEAR =      F non collinear calculations
   LSORBIT =      F    spin-orbit coupling
   INIWAV =      1    electr: 0-lowe 1-rand  2-diag
   LASPH  =      F    aspherical Exc in radial PAW
 Electronic Relaxation 1
   ENCUT  = 1000.0 eV  73.50 Ry    8.57 a.u.  64.46 64.46 64.46*2*pi/ulx,y,z
   ENINI  = 1000.0     initial cutoff
   ENAUG  = 1000.0 eV  augmentation charge cutoff
   NELM   =     60;   NELMIN=  2; NELMDL= -5     # of ELM steps 
   EDIFF  = 0.1E-06   stopping-criterion for ELM
   LREAL  =      F    real-space projection
   NLSPLINE    = F    spline interpolate recip. space projectors
   LCOMPAT=      F    compatible to vasp.4.4
   GGA_COMPAT  = T    GGA compatible to vasp.4.4-vasp.4.6
   LMAXPAW     = -100 max onsite density
   LMAXMIX     =    2 max onsite mixed and CHGCAR
   VOSKOWN=      0    Vosko Wilk Nusair interpolation
   ROPT   =    0.00000   0.00000   0.00000
 Ionic relaxation
   EDIFFG = 0.1E-05   stopping-criterion for IOM
   NSW    =      0    number of steps for IOM
   NBLOCK =      1;   KBLOCK =      1    inner block; outer block 
   IBRION =     -1    ionic relax: 0-MD 1-quasi-New 2-CG
   NFREE  =      0    steps in history (QN), initial steepest desc. (CG)
   ISIF   =      0    stress and relaxation
   IWAVPR =     10    prediction:  0-non 1-charg 2-wave 3-comb
   ISYM   =      2    0-nonsym 1-usesym 2-fastsym
   LCORR  =      T    Harris-Foulkes like correction to forces

   POTIM  = 0.5000    time-step for ionic-motion
   TEIN   =    0.0    initial temperature
   TEBEG  =    0.0;   TEEND  =   0.0 temperature during run
   SMASS  =  -3.00    Nose mass-parameter (am)
   estimated Nose-frequenzy (Omega)   =  0.10E-29 period in steps = 0.13E+47 mass=  -0.143E-25a.u.
   SCALEE = 1.0000    scale energy and forces
   NPACO  =    256;   APACO  = 10.0  distance and # of slots for P.C.
   PSTRESS=    0.0 pullay stress

  Mass of Ions in am
   POMASS =  12.01  1.00 16.00
  Ionic Valenz
   ZVAL   =   4.00  1.00  6.00
  Atomic Wigner-Seitz radii
   RWIGS  =  -1.00 -1.00 -1.00
  virtual crystal weights 
   VCA    =   1.00  1.00  1.00
   NELECT =      46.0000    total number of electrons
   NUPDOWN=      -1.0000    fix difference up-down

 DOS related values:
   EMIN   =  10.00;   EMAX   =-10.00  energy-range for DOS
   EFERMI =   0.00;   METHOD = LEGACY      
   ISMEAR =     0;   SIGMA  =   0.01  broadening in eV -4-tet -1-fermi 0-gaus

 Electronic relaxation 2 (details)
   IALGO  =     58    algorithm
   LDIAG  =      T    sub-space diagonalisation (order eigenvalues)
   LSUBROT=      F    optimize rotation matrix (better conditioning)
   TURBO    =      0    0=normal 1=particle mesh
   IRESTART =      0    0=no restart 2=restart with 2 vectors
   NREBOOT  =      0    no. of reboots
   NMIN     =      0    reboot dimension
   EREF     =   0.00    reference energy to select bands
   IMIX   =      4    mixing-type and parameters
     AMIX     =   0.40;   BMIX     =  1.00
     AMIX_MAG =   1.60;   BMIX_MAG =  1.00
     AMIN     =   0.10
     WC   =   100.;   INIMIX=   1;  MIXPRE=   1;  MAXMIX= -45

 Intra band minimization:
   WEIMIN = 0.0000     energy-eigenvalue tresh-hold
   EBREAK =  0.98E-10  absolut break condition
   DEPER  =   0.30     relativ break condition  

   TIME   =   0.40     timestep for ELM

  volume/ion in A,a.u.               =    1116.07      7531.62
  Fermi-wavevector in a.u.,A,eV,Ry     =   0.234632  0.443390  0.749031  0.055052
  Thomas-Fermi vector in A             =   1.032875

 Write flags
   LWAVE        =      F    write WAVECAR
   LDOWNSAMPLE  =      F    k-point downsampling of WAVECAR
   LCHARG       =      F    write CHGCAR
   LVTOT        =      F    write LOCPOT, total local potential
   LVHAR        =      F    write LOCPOT, Hartree potential only
   LELF         =      F    write electronic localiz. function (ELF)
   LORBIT       =      0    0 simple, 1 ext, 2 COOP (PROOUT), +10 PAW based schemes


 Dipole corrections
   LMONO  =      F    monopole corrections only (constant potential shift)
   LDIPOL =      F    correct potential (dipole corrections)
   IDIPOL =      0    1-x, 2-y, 3-z, 4-all directions 
   EPSILON=  1.0000000 bulk dielectric constant

 Exchange correlation treatment:
   GGA     =    --    GGA type
   LEXCH   =     8    internal setting for exchange type
   LIBXC   =     F    Libxc                    
   VOSKOWN =     0    Vosko Wilk Nusair interpolation
   LHFCALC =     F    Hartree Fock is set to
   LHFONE  =     F    Hartree Fock one center treatment
   AEXX    =    0.0000 exact exchange contribution

 Linear response parameters
   LEPSILON=     F    determine dielectric tensor
   LRPA    =     F    only Hartree local field effects (RPA)
   LNABLA  =     F    use nabla operator in PAW spheres
   LVEL    =     F    velocity operator in full k-point grid
   CSHIFT  =0.1000    complex shift for real part using Kramers Kronig
   OMEGAMAX=  -1.0    maximum frequency
   DEG_THRESHOLD= 0.2000000E-02 threshold for treating states as degnerate
   RTIME   =   -0.100 relaxation time in fs
  (WPLASMAI=    0.000 imaginary part of plasma frequency in eV, 0.658/RTIME)
   DFIELD  = 0.0000000 0.0000000 0.0000000 field for delta impulse in time

  Optional k-point grid parameters
   LKPOINTS_OPT  =     F    use optional k-point grid
   KPOINTS_OPT_MODE=     1    mode for optional k-point grid

 Orbital magnetization related:
   ORBITALMAG=     F  switch on orbital magnetization
   LCHIMAG   =     F  perturbation theory with respect to B field
   DQ        =  0.001000  dq finite difference perturbation B field
   LLRAUG    =     F  two centre corrections for induced B field
   LBONE     =     F  B-component reconstruction in AE one-centre
   LVGVCALC  =     T  calculate vGv susceptibility
   LVGVAPPL  =     F  apply vGv susceptibility instead of pGv for G=0

 Random number generation:
   RANDOM_GENERATOR = DEFAULT
   PCG_SEED         = not used


--------------------------------------------------------------------------------------------------------


 Static calculation
 charge density and potential will be updated during run
 non-spin polarized calculation
 Conjugate gradient for all bands (Freysoldt, et al. PRB 79, 241103 (2009))
 preconditioned conjugated gradient                                        
 perform sub-space diagonalisation
    before iterative eigenvector-optimisation
 modified Broyden-mixing scheme, WC =      100.0
 initial mixing is a Kerker type mixing with AMIX =  0.4000 and BMIX =      1.0000
 Hartree-type preconditioning will be used
 using additional bands          233
 reciprocal scheme for non local part
 use partial core corrections
 no Harris-corrections to forces 
 use gradient corrections 
 use of overlap-Matrix (Vanderbilt PP)
 Gauss-broadening in eV      SIGMA  =   0.01


--------------------------------------------------------------------------------------------------------


  energy-cutoff  :     1000.00
  volume of cell :    15625.00
      direct lattice vectors                 reciprocal lattice vectors
    25.000000000  0.000000000  0.000000000     0.040000000  0.000000000  0.000000000
     0.000000000 25.000000000  0.000000000     0.000000000  0.040000000  0.000000000
     0.000000000  0.000000000 25.000000000     0.000000000  0.000000000  0.040000000

  length of vectors
    25.000000000 25.000000000 25.000000000     0.040000000  0.040000000  0.040000000



 k-points in units of 2pi/SCALE and weight: auto                                    
   0.00000000  0.00000000  0.00000000       1.000

 k-points in reciprocal lattice and weights: auto                                    
   0.00000000  0.00000000  0.00000000       1.000

 position of ions in fractional coordinates (direct lattice) 
   0.47184200  0.46941200  0.47063600
   0.47184200  0.53050400  0.47055200
   0.52801400  0.55366000  0.46952800
   0.49080200  0.44630000  0.52353200
   0.56479000  0.61864000  0.47740400
   0.51126200  0.38136000  0.55516400
   0.49723000  0.45328800  0.43857200
   0.43119000  0.45401200  0.46340400
   0.45067800  0.54585200  0.43507600
   0.45083400  0.54665200  0.50562800
   0.56881000  0.52903600  0.46036000
   0.52759800  0.60720400  0.47937600
   0.49665000  0.47094400  0.56492400
   0.49991400  0.39276000  0.51968400

 position of ions in cartesian coordinates  (Angst):
  11.79605000 11.73530000 11.76590000
  11.79605000 13.26260000 11.76380000
  13.20035000 13.84150000 11.73820000
  12.27005000 11.15750000 13.08830000
  14.11975000 15.46600000 11.93510000
  12.78155000  9.53400000 13.87910000
  12.43075000 11.33220000 10.96430000
  10.77975000 11.35030000 11.58510000
  11.26695000 13.64630000 10.87690000
  11.27085000 13.66630000 12.64070000
  14.22025000 13.22590000 11.50900000
  13.18995000 15.18010000 11.98440000
  12.41625000 11.77360000 14.12310000
  12.49785000  9.81900000 12.99210000



--------------------------------------------------------------------------------------------------------


 use parallel FFT for orbitals z direction half grid
 k-point   1 :   0.0000 0.0000 0.0000  plane waves:  561155

 maximum and minimum number of plane-waves per node :    280586   280569

 maximum number of plane-waves:    561155
 maximum index in each direction: 
   IXMAX=   64   IYMAX=   64   IZMAX=   64
   IXMIN=  -64   IYMIN=  -64   IZMIN=    0


 parallel 3D FFT for wavefunctions:
    minimum data exchange during FFTs selected (reduces bandwidth)
 parallel 3D FFT for charge:
    minimum data exchange during FFTs selected (reduces bandwidth)


 total amount of memory used by VASP MPI-rank0   814031. kBytes
=======================================================================

   base      :      30000. kBytes
   nonl-proj :     116719. kBytes
   fftplans  :     222158. kBytes
   grid      :     431671. kBytes
   one-center:         10. kBytes
   wavefun   :      13473. kBytes

     INWAV:  cpu time      0.0002: real time      0.0002
 Broyden mixing: mesh for mixing (old mesh)
   NGX =129   NGY =129   NGZ =129
  (NGX  =540   NGY  =540   NGZ  =540)
  gives a total of ****** points

 initial charge density was supplied:
 charge density of overlapping atoms calculated
 number of electron      46.0000000 magnetization 
 keeping initial charge density in first step


--------------------------------------------------------------------------------------------------------


 Maximum index for augmentation-charges            0 (set IRDMAX)


--------------------------------------------------------------------------------------------------------


 First call to EWALD:  gamma=   0.071
 Maximum number of real-space cells 3x 3x 3
 Maximum number of reciprocal cells 3x 3x 3

    FEWALD:  cpu time      0.0041: real time      0.0043


--------------------------------------- Ionic step        1  -------------------------------------------




--------------------------------------- Iteration      1(   1)  ---------------------------------------


    POTLOK:  cpu time      1.4996: real time      1.5009
    SETDIJ:  cpu time      0.0069: real time      0.0074
    TRIAL :  cpu time      7.9677: real time      7.9726
    CORREC:  cpu time      0.0025: real time      0.0025
    --------------------------------------------
      LOOP:  cpu time      9.4887: real time      9.4956

 eigenvalue-minimisations  :   512
 total energy-change (2. order) : 0.5478456E+03  (-0.1714897E+04)
 number of electron      46.0000000 magnetization 
 augmentation part       46.0000000 magnetization 

 Free energy of the ion-electron system (eV)
  ---------------------------------------------------
  alpha Z        PSCENC =         0.38735469
  Ewald energy   TEWEN  =      3873.62749281
  -Hartree energ DENC   =     -5698.90253086
  -exchange      EXHF   =         0.00000000
  -V(xc)+E(xc)   XCENC  =       146.74156419
  PAW double counting   =      1850.64643496    -1834.50040137
  entropy T*S    EENTRO =        -0.00102521
  eigenvalues    EBANDS =      -183.13857412
  atomic energy  EATOM  =      2392.98528967
  ---------------------------------------------------
  free energy    TOTEN  =       547.84560475 eV

  energy without entropy =      547.84662996  energy(sigma->0) =      547.84611735


--------------------------------------------------------------------------------------------------------




--------------------------------------- Iteration      1(   2)  ---------------------------------------


    TRIAL :  cpu time     18.7277: real time     18.7374
    CORREC:  cpu time      0.0002: real time      0.0002
    --------------------------------------------
      LOOP:  cpu time     18.7445: real time     18.7694

 eigenvalue-minimisations  :  1024
 total energy-change (2. order) :-0.6134208E+03  (-0.6132472E+03)
 number of electron      46.0000000 magnetization 
 augmentation part       46.0000000 magnetization 

 Free energy of the ion-electron system (eV)
  ---------------------------------------------------
  alpha Z        PSCENC =         0.38735469
  Ewald energy   TEWEN  =      3873.62749281
  -Hartree energ DENC   =     -5698.90253086
  -exchange      EXHF   =         0.00000000
  -V(xc)+E(xc)   XCENC  =       146.74156419
  PAW double counting   =      1850.64643496    -1834.50040137
  entropy T*S    EENTRO =        -0.00000000
  eigenvalues    EBANDS =      -796.56044348
  atomic energy  EATOM  =      2392.98528967
  ---------------------------------------------------
  free energy    TOTEN  =       -65.57523940 eV

  energy without entropy =      -65.57523940  energy(sigma->0) =      -65.57523940


--------------------------------------------------------------------------------------------------------




--------------------------------------- Iteration      1(   3)  ---------------------------------------


    TRIAL :  cpu time      8.1036: real time      8.1076
    CORREC:  cpu time      0.0002: real time      0.0002
    --------------------------------------------
      LOOP:  cpu time      8.1198: real time      8.1406

 eigenvalue-minimisations  :   512
 total energy-change (2. order) :-0.2813441E+02  (-0.2813441E+02)
 number of electron      46.0000000 magnetization 
 augmentation part       46.0000000 magnetization 

 Free energy of the ion-electron system (eV)
  ---------------------------------------------------
  alpha Z        PSCENC =         0.38735469
  Ewald energy   TEWEN  =      3873.62749281
  -Hartree energ DENC   =     -5698.90253086
  -exchange      EXHF   =         0.00000000
  -V(xc)+E(xc)   XCENC  =       146.74156419
  PAW double counting   =      1850.64643496    -1834.50040137
  entropy T*S    EENTRO =        -0.00000000
  eigenvalues    EBANDS =      -824.69485660
  atomic energy  EATOM  =      2392.98528967
  ---------------------------------------------------
  free energy    TOTEN  =       -93.70965252 eV

  energy without entropy =      -93.70965252  energy(sigma->0) =      -93.70965252


--------------------------------------------------------------------------------------------------------




--------------------------------------- Iteration      1(   4)  ---------------------------------------


    TRIAL :  cpu time      8.0794: real time      8.0829
    CORREC:  cpu time      0.0002: real time      0.0002
    --------------------------------------------
      LOOP:  cpu time      8.1113: real time      8.1149

 eigenvalue-minimisations  :   512
 total energy-change (2. order) :-0.3369878E+00  (-0.3369878E+00)
 number of electron      46.0000000 magnetization 
 augmentation part       46.0000000 magnetization 

 Free energy of the ion-electron system (eV)
  ---------------------------------------------------
  alpha Z        PSCENC =         0.38735469
  Ewald energy   TEWEN  =      3873.62749281
  -Hartree energ DENC   =     -5698.90253086
  -exchange      EXHF   =         0.00000000
  -V(xc)+E(xc)   XCENC  =       146.74156419
  PAW double counting   =      1850.64643496    -1834.50040137
  entropy T*S    EENTRO =        -0.00000000
  eigenvalues    EBANDS =      -825.03184439
  atomic energy  EATOM  =      2392.98528967
  ---------------------------------------------------
  free energy    TOTEN  =       -94.04664030 eV

  energy without entropy =      -94.04664030  energy(sigma->0) =      -94.04664030


--------------------------------------------------------------------------------------------------------




--------------------------------------- Iteration      1(   5)  ---------------------------------------


    TRIAL :  cpu time     18.4890: real time     18.4991
    CORREC:  cpu time      0.0002: real time      0.0002
    CHARGE:  cpu time      2.0395: real time      2.0415
    --------------------------------------------
      LOOP:  cpu time     20.5452: real time     20.5727

 eigenvalue-minimisations  :  1024
 total energy-change (2. order) :-0.5052889E-02  (-0.5052892E-02)
 number of electron      46.0000000 magnetization 
 augmentation part        0.3149217 magnetization 

 Free energy of the ion-electron system (eV)
  ---------------------------------------------------
  alpha Z        PSCENC =         0.38735469
  Ewald energy   TEWEN  =      3873.62749281
  -Hartree energ DENC   =     -5698.90253086
  -exchange      EXHF   =         0.00000000
  -V(xc)+E(xc)   XCENC  =       146.74156419
  PAW double counting   =      1850.64643496    -1834.50040137
  entropy T*S    EENTRO =        -0.00000000
  eigenvalues    EBANDS =      -825.03689727
  atomic energy  EATOM  =      2392.98528967
  ---------------------------------------------------
  free energy    TOTEN  =       -94.05169319 eV

  energy without entropy =      -94.05169319  energy(sigma->0) =      -94.05169319


--------------------------------------------------------------------------------------------------------




--------------------------------------- Iteration      1(   6)  ---------------------------------------


    POTLOK:  cpu time      0.9086: real time      0.9096
    SETDIJ:  cpu time      0.0019: real time      0.0019
    TRIAL :  cpu time      4.1214: real time      4.1265
    CORREC:  cpu time      3.9258: real time      3.9281
    CHARGE:  cpu time      2.0027: real time      2.0035
    --------------------------------------------
      LOOP:  cpu time     10.9792: real time     11.0014

 eigenvalue-minimisations  :     0
 total energy-change (2. order) : 0.1689797E+02  (-0.7350423E+01)
 number of electron      46.0000000 magnetization 
 augmentation part        0.2168355 magnetization 

 Free energy of the ion-electron system (eV)
  ---------------------------------------------------
  alpha Z        PSCENC =         0.38735469
  Ewald energy   TEWEN  =      3873.62749281
  -Hartree energ DENC   =     -6055.17377850
  -exchange      EXHF   =         0.00000000
  -V(xc)+E(xc)   XCENC  =       162.88457389
  PAW double counting   =     18943.64668017   -18930.57992469
  entropy T*S    EENTRO =        -0.00000000
  eigenvalues    EBANDS =      -464.93141188
  atomic energy  EATOM  =      2392.98528967
  ---------------------------------------------------
  free energy    TOTEN  =       -77.15372385 eV

  energy without entropy =      -77.15372385  energy(sigma->0) =      -77.15372385


--------------------------------------------------------------------------------------------------------




--------------------------------------- Iteration      1(   7)  ---------------------------------------


    POTLOK:  cpu time      0.9283: real time      0.9290
    SETDIJ:  cpu time      0.0019: real time      0.0019
    TRIAL :  cpu time      3.9710: real time      3.9739
    CORREC:  cpu time      3.8957: real time      3.8974
    CHARGE:  cpu time      1.9912: real time      1.9917
    --------------------------------------------
      LOOP:  cpu time     10.8187: real time     10.8247

 eigenvalue-minimisations  :     0
 total energy-change (2. order) :-0.7392831E+01  (-0.1041374E+01)
 number of electron      46.0000000 magnetization 
 augmentation part        0.1731752 magnetization 

 Free energy of the ion-electron system (eV)
  ---------------------------------------------------
  alpha Z        PSCENC =         0.38735469
  Ewald energy   TEWEN  =      3873.62749281
  -Hartree energ DENC   =     -5898.59885716
  -exchange      EXHF   =         0.00000000
  -V(xc)+E(xc)   XCENC  =       155.64772469
  PAW double counting   =     24292.43228513   -24277.84136095
  entropy T*S    EENTRO =        -0.00000000
  eigenvalues    EBANDS =      -623.18648380
  atomic energy  EATOM  =      2392.98528967
  ---------------------------------------------------
  free energy    TOTEN  =       -84.54655492 eV

  energy without entropy =      -84.54655492  energy(sigma->0) =      -84.54655492


--------------------------------------------------------------------------------------------------------




--------------------------------------- Iteration      1(   8)  ---------------------------------------


    POTLOK:  cpu time      0.9264: real time      0.9272
    SETDIJ:  cpu time      0.0019: real time      0.0019
    TRIAL :  cpu time      3.9635: real time      3.9663
    CORREC:  cpu time      3.9001: real time      3.9017
    CHARGE:  cpu time      2.0132: real time      2.0144
    --------------------------------------------
      LOOP:  cpu time     10.8218: real time     10.8429

 eigenvalue-minimisations  :     0
 total energy-change (2. order) :-0.1046490E+01  (-0.4962474E+00)
 number of electron      46.0000000 magnetization 
 augmentation part        0.1696518 magnetization 

 Free energy of the ion-electron system (eV)
  ---------------------------------------------------
  alpha Z        PSCENC =         0.38735469
  Ewald energy   TEWEN  =      3873.62749281
  -Hartree energ DENC   =     -5896.10687823
  -exchange      EXHF   =         0.00000000
  -V(xc)+E(xc)   XCENC  =       155.47909691
  PAW double counting   =     24296.62764223   -24281.78643394
  entropy T*S    EENTRO =        -0.00000000
  eigenvalues    EBANDS =      -626.80660857
  atomic energy  EATOM  =      2392.98528967
  ---------------------------------------------------
  free energy    TOTEN  =       -85.59304444 eV

  energy without entropy =      -85.59304444  energy(sigma->0) =      -85.59304444


--------------------------------------------------------------------------------------------------------




--------------------------------------- Iteration      1(   9)  ---------------------------------------


    POTLOK:  cpu time      0.9186: real time      0.9186
    SETDIJ:  cpu time      0.0019: real time      0.0019
    TRIAL :  cpu time      3.9556: real time      3.9573
    CORREC:  cpu time      3.9053: real time      3.9074
    CHARGE:  cpu time      1.9944: real time      1.9951
    --------------------------------------------
      LOOP:  cpu time     10.7881: real time     10.8110

 eigenvalue-minimisations  :     0
 total energy-change (2. order) :-0.4927153E+00  (-0.2084452E+00)
 number of electron      46.0000000 magnetization 
 augmentation part        0.1719878 magnetization 

 Free energy of the ion-electron system (eV)
  ---------------------------------------------------
  alpha Z        PSCENC =         0.38735469
  Ewald energy   TEWEN  =      3873.62749281
  -Hartree energ DENC   =     -5891.55962527
  -exchange      EXHF   =         0.00000000
  -V(xc)+E(xc)   XCENC  =       155.20062673
  PAW double counting   =     24754.91237645   -24740.00571784
  entropy T*S    EENTRO =        -0.00000000
  eigenvalues    EBANDS =      -631.63355693
  atomic energy  EATOM  =      2392.98528967
  ---------------------------------------------------
  free energy    TOTEN  =       -86.08575971 eV

  energy without entropy =      -86.08575971  energy(sigma->0) =      -86.08575971


--------------------------------------------------------------------------------------------------------




--------------------------------------- Iteration      1(  10)  ---------------------------------------


    POTLOK:  cpu time      0.9251: real time      0.9256
    SETDIJ:  cpu time      0.0019: real time      0.0019
    TRIAL :  cpu time      3.9722: real time      3.9751
    CORREC:  cpu time      3.8814: real time      3.8831
    CHARGE:  cpu time      1.9961: real time      1.9967
    --------------------------------------------
      LOOP:  cpu time     10.8077: real time     10.8136

 eigenvalue-minimisations  :     0
 total energy-change (2. order) :-0.2054535E+00  (-0.6357924E-01)
 number of electron      46.0000000 magnetization 
 augmentation part        0.1751669 magnetization 

 Free energy of the ion-electron system (eV)
  ---------------------------------------------------
  alpha Z        PSCENC =         0.38735469
  Ewald energy   TEWEN  =      3873.62749281
  -Hartree energ DENC   =     -5881.26175025
  -exchange      EXHF   =         0.00000000
  -V(xc)+E(xc)   XCENC  =       154.85960666
  PAW double counting   =     24267.69620855   -24252.78545127
  entropy T*S    EENTRO =        -0.00000000
  eigenvalues    EBANDS =      -641.79996409
  atomic energy  EATOM  =      2392.98528967
  ---------------------------------------------------
  free energy    TOTEN  =       -86.29121323 eV

  energy without entropy =      -86.29121323  energy(sigma->0) =      -86.29121323


--------------------------------------------------------------------------------------------------------




--------------------------------------- Iteration      1(  11)  ---------------------------------------


    POTLOK:  cpu time      0.9186: real time      0.9191
    SETDIJ:  cpu time      0.0019: real time      0.0019
    TRIAL :  cpu time      3.9800: real time      3.9832
    CORREC:  cpu time      3.9034: real time      3.9055
    CHARGE:  cpu time      2.0039: real time      2.0045
    --------------------------------------------
      LOOP:  cpu time     10.8221: real time     10.8456

 eigenvalue-minimisations  :     0
 total energy-change (2. order) :-0.6341186E-01  (-0.1900965E-01)
 number of electron      46.0000000 magnetization 
 augmentation part        0.1768322 magnetization 

 Free energy of the ion-electron system (eV)
  ---------------------------------------------------
  alpha Z        PSCENC =         0.38735469
  Ewald energy   TEWEN  =      3873.62749281
  -Hartree energ DENC   =     -5877.47034242
  -exchange      EXHF   =         0.00000000
  -V(xc)+E(xc)   XCENC  =       154.78673429
  PAW double counting   =     23746.84734488   -23731.97448179
  entropy T*S    EENTRO =        -0.00000000
  eigenvalues    EBANDS =      -645.54401722
  atomic energy  EATOM  =      2392.98528967
  ---------------------------------------------------
  free energy    TOTEN  =       -86.35462510 eV

  energy without entropy =      -86.35462510  energy(sigma->0) =      -86.35462510


--------------------------------------------------------------------------------------------------------




--------------------------------------- Iteration      1(  12)  ---------------------------------------


    POTLOK:  cpu time      0.9105: real time      0.9109
    SETDIJ:  cpu time      0.0019: real time      0.0019
    TRIAL :  cpu time      3.9592: real time      3.9615
    CORREC:  cpu time      3.8661: real time      3.8681
    CHARGE:  cpu time      2.0013: real time      2.0019
    --------------------------------------------
      LOOP:  cpu time     10.7532: real time     10.7748

 eigenvalue-minimisations  :     0
 total energy-change (2. order) :-0.1901198E-01  (-0.5712125E-02)
 number of electron      46.0000000 magnetization 
 augmentation part        0.1762405 magnetization 

 Free energy of the ion-electron system (eV)
  ---------------------------------------------------
  alpha Z        PSCENC =         0.38735469
  Ewald energy   TEWEN  =      3873.62749281
  -Hartree energ DENC   =     -5876.98180672
  -exchange      EXHF   =         0.00000000
  -V(xc)+E(xc)   XCENC  =       154.77338885
  PAW double counting   =     23648.88786984   -23634.03571815
  entropy T*S    EENTRO =        -0.00000000
  eigenvalues    EBANDS =      -646.01750805
  atomic energy  EATOM  =      2392.98528967
  ---------------------------------------------------
  free energy    TOTEN  =       -86.37363708 eV

  energy without entropy =      -86.37363708  energy(sigma->0) =      -86.37363708


--------------------------------------------------------------------------------------------------------




--------------------------------------- Iteration      1(  13)  ---------------------------------------


    POTLOK:  cpu time      0.9144: real time      0.9148
    SETDIJ:  cpu time      0.0019: real time      0.0019
    TRIAL :  cpu time      3.9577: real time      3.9604
    CORREC:  cpu time      3.8849: real time      3.8866
    CHARGE:  cpu time      1.9918: real time      1.9924
    --------------------------------------------
      LOOP:  cpu time     10.7649: real time     10.7881

 eigenvalue-minimisations  :     0
 total energy-change (2. order) :-0.5713895E-02  (-0.1825525E-02)
 number of electron      46.0000000 magnetization 
 augmentation part        0.1757922 magnetization 

 Free energy of the ion-electron system (eV)
  ---------------------------------------------------
  alpha Z        PSCENC =         0.38735469
  Ewald energy   TEWEN  =      3873.62749281
  -Hartree energ DENC   =     -5876.70570404
  -exchange      EXHF   =         0.00000000
  -V(xc)+E(xc)   XCENC  =       154.75374742
  PAW double counting   =     23706.13044771   -23691.27633823
  entropy T*S    EENTRO =        -0.00000000
  eigenvalues    EBANDS =      -646.28164101
  atomic energy  EATOM  =      2392.98528967
  ---------------------------------------------------
  free energy    TOTEN  =       -86.37935097 eV

  energy without entropy =      -86.37935097  energy(sigma->0) =      -86.37935097


--------------------------------------------------------------------------------------------------------




--------------------------------------- Iteration      1(  14)  ---------------------------------------


    POTLOK:  cpu time      0.8959: real time      0.8959
    SETDIJ:  cpu time      0.0019: real time      0.0019
    TRIAL :  cpu time      3.9711: real time      3.9736
    CORREC:  cpu time      3.8658: real time      3.8675
    CHARGE:  cpu time      1.9914: real time      1.9920
    --------------------------------------------
      LOOP:  cpu time     10.7407: real time     10.7617

 eigenvalue-minimisations  :     0
 total energy-change (2. order) :-0.1824987E-02  (-0.6363994E-03)
 number of electron      46.0000000 magnetization 
 augmentation part        0.1756220 magnetization 

 Free energy of the ion-electron system (eV)
  ---------------------------------------------------
  alpha Z        PSCENC =         0.38735469
  Ewald energy   TEWEN  =      3873.62749281
  -Hartree energ DENC   =     -5876.84252824
  -exchange      EXHF   =         0.00000000
  -V(xc)+E(xc)   XCENC  =       154.75832319
  PAW double counting   =     23757.18122596   -23742.32532792
  entropy T*S    EENTRO =        -0.00000000
  eigenvalues    EBANDS =      -646.15300611
  atomic energy  EATOM  =      2392.98528967
  ---------------------------------------------------
  free energy    TOTEN  =       -86.38117596 eV

  energy without entropy =      -86.38117596  energy(sigma->0) =      -86.38117596


--------------------------------------------------------------------------------------------------------




--------------------------------------- Iteration      1(  15)  ---------------------------------------


    POTLOK:  cpu time      0.8994: real time      0.8997
    SETDIJ:  cpu time      0.0019: real time      0.0019
    TRIAL :  cpu time      3.9709: real time      3.9734
    CORREC:  cpu time      3.8578: real time      3.8591
    CHARGE:  cpu time      1.9946: real time      1.9953
    --------------------------------------------
      LOOP:  cpu time     10.7726: real time     10.7776

 eigenvalue-minimisations  :     0
 total energy-change (2. order) :-0.6351833E-03  (-0.2245997E-03)
 number of electron      46.0000000 magnetization 
 augmentation part        0.1755670 magnetization 

 Free energy of the ion-electron system (eV)
  ---------------------------------------------------
  alpha Z        PSCENC =         0.38735469
  Ewald energy   TEWEN  =      3873.62749281
  -Hartree energ DENC   =     -5877.14358531
  -exchange      EXHF   =         0.00000000
  -V(xc)+E(xc)   XCENC  =       154.76821385
  PAW double counting   =     23771.97191609   -23757.11555678
  entropy T*S    EENTRO =        -0.00000000
  eigenvalues    EBANDS =      -645.86293616
  atomic energy  EATOM  =      2392.98528967
  ---------------------------------------------------
  free energy    TOTEN  =       -86.38181114 eV

  energy without entropy =      -86.38181114  energy(sigma->0) =      -86.38181114


--------------------------------------------------------------------------------------------------------




--------------------------------------- Iteration      1(  16)  ---------------------------------------


    POTLOK:  cpu time      0.8776: real time      0.8781
    SETDIJ:  cpu time      0.0019: real time      0.0019
    TRIAL :  cpu time      3.9586: real time      3.9615
    CORREC:  cpu time      3.8345: real time      3.8363
    CHARGE:  cpu time      1.9976: real time      1.9983
    --------------------------------------------
      LOOP:  cpu time     10.6896: real time     10.7084

 eigenvalue-minimisations  :     0
 total energy-change (2. order) :-0.2244691E-03  (-0.7334877E-04)
 number of electron      46.0000000 magnetization 
 augmentation part        0.1756610 magnetization 

 Free energy of the ion-electron system (eV)
  ---------------------------------------------------
  alpha Z        PSCENC =         0.38735469
  Ewald energy   TEWEN  =      3873.62749281
  -Hartree energ DENC   =     -5877.26306103
  -exchange      EXHF   =         0.00000000
  -V(xc)+E(xc)   XCENC  =       154.77056036
  PAW double counting   =     23764.67390581   -23749.81689057
  entropy T*S    EENTRO =        -0.00000000
  eigenvalues    EBANDS =      -645.74668735
  atomic energy  EATOM  =      2392.98528967
  ---------------------------------------------------
  free energy    TOTEN  =       -86.38203561 eV

  energy without entropy =      -86.38203561  energy(sigma->0) =      -86.38203561


--------------------------------------------------------------------------------------------------------




--------------------------------------- Iteration      1(  17)  ---------------------------------------


    POTLOK:  cpu time      0.8657: real time      0.8663
    SETDIJ:  cpu time      0.0019: real time      0.0019
    TRIAL :  cpu time      3.9549: real time      3.9574
    CORREC:  cpu time      3.8420: real time      3.8436
    CHARGE:  cpu time      1.9933: real time      1.9940
    --------------------------------------------
      LOOP:  cpu time     10.6739: real time     10.6956

 eigenvalue-minimisations  :     0
 total energy-change (2. order) :-0.7349703E-04  (-0.2180779E-04)
 number of electron      46.0000000 magnetization 
 augmentation part        0.1756847 magnetization 

 Free energy of the ion-electron system (eV)
  ---------------------------------------------------
  alpha Z        PSCENC =         0.38735469
  Ewald energy   TEWEN  =      3873.62749281
  -Hartree energ DENC   =     -5877.36545647
  -exchange      EXHF   =         0.00000000
  -V(xc)+E(xc)   XCENC  =       154.77491145
  PAW double counting   =     23755.21271318   -23740.35632880
  entropy T*S    EENTRO =        -0.00000000
  eigenvalues    EBANDS =      -645.64808562
  atomic energy  EATOM  =      2392.98528967
  ---------------------------------------------------
  free energy    TOTEN  =       -86.38210911 eV

  energy without entropy =      -86.38210911  energy(sigma->0) =      -86.38210911


--------------------------------------------------------------------------------------------------------




--------------------------------------- Iteration      1(  18)  ---------------------------------------


    POTLOK:  cpu time      0.8698: real time      0.8702
    SETDIJ:  cpu time      0.0019: real time      0.0019
    TRIAL :  cpu time      3.9552: real time      3.9578
    CORREC:  cpu time      3.8501: real time      3.8520
    CHARGE:  cpu time      1.9891: real time      1.9897
    --------------------------------------------
      LOOP:  cpu time     10.6983: real time     10.7040

 eigenvalue-minimisations  :     0
 total energy-change (2. order) :-0.2186605E-04  (-0.6510960E-05)
 number of electron      46.0000000 magnetization 
 augmentation part        0.1756668 magnetization 

 Free energy of the ion-electron system (eV)
  ---------------------------------------------------
  alpha Z        PSCENC =         0.38735469
  Ewald energy   TEWEN  =      3873.62749281
  -Hartree energ DENC   =     -5877.38761727
  -exchange      EXHF   =         0.00000000
  -V(xc)+E(xc)   XCENC  =       154.77589913
  PAW double counting   =     23755.24695072   -23740.39057018
  entropy T*S    EENTRO =        -0.00000000
  eigenvalues    EBANDS =      -645.62693054
  atomic energy  EATOM  =      2392.98528967
  ---------------------------------------------------
  free energy    TOTEN  =       -86.38213097 eV

  energy without entropy =      -86.38213097  energy(sigma->0) =      -86.38213097


--------------------------------------------------------------------------------------------------------




--------------------------------------- Iteration      1(  19)  ---------------------------------------


    POTLOK:  cpu time      0.8727: real time      0.8731
    SETDIJ:  cpu time      0.0019: real time      0.0019
    TRIAL :  cpu time      3.9607: real time      3.9636
    CORREC:  cpu time      3.8302: real time      3.8319
    CHARGE:  cpu time      1.9933: real time      1.9940
    --------------------------------------------
      LOOP:  cpu time     10.6783: real time     10.6961

 eigenvalue-minimisations  :     0
 total energy-change (2. order) :-0.6461589E-05  (-0.2030314E-05)
 number of electron      46.0000000 magnetization 
 augmentation part        0.1756568 magnetization 

 Free energy of the ion-electron system (eV)
  ---------------------------------------------------
  alpha Z        PSCENC =         0.38735469
  Ewald energy   TEWEN  =      3873.62749281
  -Hartree energ DENC   =     -5877.38891961
  -exchange      EXHF   =         0.00000000
  -V(xc)+E(xc)   XCENC  =       154.77600052
  PAW double counting   =     23759.42673843   -23744.57015629
  entropy T*S    EENTRO =        -0.00000000
  eigenvalues    EBANDS =      -645.62593765
  atomic energy  EATOM  =      2392.98528967
  ---------------------------------------------------
  free energy    TOTEN  =       -86.38213744 eV

  energy without entropy =      -86.38213744  energy(sigma->0) =      -86.38213744


--------------------------------------------------------------------------------------------------------




--------------------------------------- Iteration      1(  20)  ---------------------------------------


    POTLOK:  cpu time      0.8808: real time      0.8812
    SETDIJ:  cpu time      0.0019: real time      0.0019
    TRIAL :  cpu time      3.9538: real time      3.9564
    CORREC:  cpu time      3.8317: real time      3.8337
    CHARGE:  cpu time      1.9940: real time      1.9948
    --------------------------------------------
      LOOP:  cpu time     10.6784: real time     10.6986

 eigenvalue-minimisations  :     0
 total energy-change (2. order) :-0.1969329E-05  (-0.6868463E-06)
 number of electron      46.0000000 magnetization 
 augmentation part        0.1756516 magnetization 

 Free energy of the ion-electron system (eV)
  ---------------------------------------------------
  alpha Z        PSCENC =         0.38735469
  Ewald energy   TEWEN  =      3873.62749281
  -Hartree energ DENC   =     -5877.38861120
  -exchange      EXHF   =         0.00000000
  -V(xc)+E(xc)   XCENC  =       154.77619219
  PAW double counting   =     23762.55847472   -23747.70184611
  entropy T*S    EENTRO =        -0.00000000
  eigenvalues    EBANDS =      -645.62648617
  atomic energy  EATOM  =      2392.98528967
  ---------------------------------------------------
  free energy    TOTEN  =       -86.38213941 eV

  energy without entropy =      -86.38213941  energy(sigma->0) =      -86.38213941


--------------------------------------------------------------------------------------------------------




--------------------------------------- Iteration      1(  21)  ---------------------------------------


    POTLOK:  cpu time      0.8710: real time      0.8711
    SETDIJ:  cpu time      0.0019: real time      0.0019
    TRIAL :  cpu time      3.9610: real time      3.9634
    CORREC:  cpu time      3.8254: real time      3.8276
    CHARGE:  cpu time      1.9880: real time      1.9887
    --------------------------------------------
      LOOP:  cpu time     10.6778: real time     10.6833

 eigenvalue-minimisations  :     0
 total energy-change (2. order) :-0.6617774E-06  (-0.2450137E-06)
 number of electron      46.0000000 magnetization 
 augmentation part        0.1756559 magnetization 

 Free energy of the ion-electron system (eV)
  ---------------------------------------------------
  alpha Z        PSCENC =         0.38735469
  Ewald energy   TEWEN  =      3873.62749281
  -Hartree energ DENC   =     -5877.37968231
  -exchange      EXHF   =         0.00000000
  -V(xc)+E(xc)   XCENC  =       154.77583881
  PAW double counting   =     23763.69759039   -23748.84091657
  entropy T*S    EENTRO =        -0.00000000
  eigenvalues    EBANDS =      -645.63510755
  atomic energy  EATOM  =      2392.98528967
  ---------------------------------------------------
  free energy    TOTEN  =       -86.38214007 eV

  energy without entropy =      -86.38214007  energy(sigma->0) =      -86.38214007


--------------------------------------------------------------------------------------------------------




--------------------------------------- Iteration      1(  22)  ---------------------------------------


    POTLOK:  cpu time      0.8863: real time      0.8868
    SETDIJ:  cpu time      0.0019: real time      0.0019
    TRIAL :  cpu time      3.9567: real time      3.9593
    CORREC:  cpu time      3.8367: real time      3.8385
    CHARGE:  cpu time      2.0175: real time      2.0181
    --------------------------------------------
      LOOP:  cpu time     10.7216: real time     10.7420

 eigenvalue-minimisations  :     0
 total energy-change (2. order) :-0.2326669E-06  (-0.7499426E-07)
 number of electron      46.0000000 magnetization 
 augmentation part        0.1756591 magnetization 

 Free energy of the ion-electron system (eV)
  ---------------------------------------------------
  alpha Z        PSCENC =         0.38735469
  Ewald energy   TEWEN  =      3873.62749281
  -Hartree energ DENC   =     -5877.37877819
  -exchange      EXHF   =         0.00000000
  -V(xc)+E(xc)   XCENC  =       154.77579926
  PAW double counting   =     23763.23866473   -23748.38203873
  entropy T*S    EENTRO =        -0.00000000
  eigenvalues    EBANDS =      -645.63592453
  atomic energy  EATOM  =      2392.98528967
  ---------------------------------------------------
  free energy    TOTEN  =       -86.38214030 eV

  energy without entropy =      -86.38214030  energy(sigma->0) =      -86.38214030


--------------------------------------------------------------------------------------------------------




--------------------------------------- Iteration      1(  23)  ---------------------------------------


    POTLOK:  cpu time      0.8738: real time      0.8741
    SETDIJ:  cpu time      0.0019: real time      0.0019
    TRIAL :  cpu time      3.9539: real time      3.9564
    CORREC:  cpu time      3.8526: real time      3.8547
    EDDIAG:  cpu time      1.5352: real time      1.5359
    CHARGE:  cpu time      1.9943: real time      1.9949
    --------------------------------------------
      LOOP:  cpu time     12.2260: real time     12.2489

 eigenvalue-minimisations  :     0
 total energy-change (2. order) :-0.6702248E-07  (-0.2793490E-07)
 number of electron      46.0000000 magnetization 
 augmentation part        0.1756600 magnetization 

 Free energy of the ion-electron system (eV)
  ---------------------------------------------------
  alpha Z        PSCENC =         0.38735469
  Ewald energy   TEWEN  =      3873.62749281
  -Hartree energ DENC   =     -5877.37720458
  -exchange      EXHF   =         0.00000000
  -V(xc)+E(xc)   XCENC  =       154.77573585
  PAW double counting   =     23762.60708165   -23747.75047836
  entropy T*S    EENTRO =        -0.00000000
  eigenvalues    EBANDS =      -645.63741209
  atomic energy  EATOM  =      2392.98528967
  ---------------------------------------------------
  free energy    TOTEN  =       -86.38214037 eV

  energy without entropy =      -86.38214037  energy(sigma->0) =      -86.38214037


--------------------------------------------------------------------------------------------------------


  average scaling for gradient   1.8965


 average (electrostatic) potential at core
  the test charge radii are     0.5770  0.4325  0.5955
  (the norm of the test charge is              1.0000)
       1 -86.7428       2 -86.7430       3 -89.4528       4 -89.4526       5 -48.5410
       6 -48.5416       7 -45.3059       8 -45.5474       9 -45.5476      10 -45.3065
      11-119.4091      12-120.9439      13-119.4085      14-120.9432



 E-fermi :  -6.5039     XC(G=0):  -0.1297     alpha+bet : -0.0583

 Fermi energy:        -6.5039147280

 k-point     1 :       0.0000    0.0000    0.0000
  band No.  band energies     occupation 
      1     -27.8688      2.00000
      2     -27.8255      2.00000
      3     -25.5630      2.00000
      4     -25.5149      2.00000
      5     -20.2007      2.00000
      6     -17.8322      2.00000
      7     -15.6318      2.00000
      8     -14.2937      2.00000
      9     -12.6872      2.00000
     10     -12.5545      2.00000
     11     -11.8861      2.00000
     12     -11.7890      2.00000
     13     -11.3011      2.00000
     14     -11.1607      2.00000
     15      -9.9465      2.00000
     16      -9.9008      2.00000
     17      -9.6665      2.00000
     18      -9.1598      2.00000
     19      -9.0382      2.00000
     20      -7.9437      2.00000
     21      -7.8129      2.00000
     22      -6.6581      2.00000
     23      -6.5833      2.00000
     24      -1.2747      0.00000
     25      -1.1631      0.00000
     26      -0.7079      0.00000
     27      -0.5071      0.00000
     28      -0.1967      0.00000
     29       0.0689      0.00000
     30       0.1576      0.00000
     31       0.2637      0.00000
     32       0.2654      0.00000
     33       0.3022      0.00000
     34       0.3080      0.00000
     35       0.3619      0.00000
     36       0.3737      0.00000
     37       0.3891      0.00000
     38       0.4696      0.00000
     39       0.4827      0.00000
     40       0.4956      0.00000
     41       0.5102      0.00000
     42       0.5142      0.00000
     43       0.5168      0.00000
     44       0.5211      0.00000
     45       0.5875      0.00000
     46       0.5958      0.00000
     47       0.6356      0.00000
     48       0.6562      0.00000
     49       0.6851      0.00000
     50       0.6979      0.00000
     51       0.7201      0.00000
     52       0.7439      0.00000
     53       0.7712      0.00000
     54       0.8002      0.00000
     55       0.8381      0.00000
     56       0.8604      0.00000
     57       0.8909      0.00000
     58       0.9355      0.00000
     59       0.9586      0.00000
     60       0.9982      0.00000
     61       1.0375      0.00000
     62       1.0518      0.00000
     63       1.0589      0.00000
     64       1.0710      0.00000
     65       1.1052      0.00000
     66       1.1271      0.00000
     67       1.1284      0.00000
     68       1.1594      0.00000
     69       1.1882      0.00000
     70       1.2026      0.00000
     71       1.2076      0.00000
     72       1.2210      0.00000
     73       1.2238      0.00000
     74       1.2286      0.00000
     75       1.2328      0.00000
     76       1.2359      0.00000
     77       1.2372      0.00000
     78       1.2387      0.00000
     79       1.2420      0.00000
     80       1.2430      0.00000
     81       1.2437      0.00000
     82       1.2471      0.00000
     83       1.3152      0.00000
     84       1.3273      0.00000
     85       1.3526      0.00000
     86       1.3599      0.00000
     87       1.3680      0.00000
     88       1.3711      0.00000
     89       1.3910      0.00000
     90       1.4095      0.00000
     91       1.4159      0.00000
     92       1.4250      0.00000
     93       1.4289      0.00000
     94       1.4323      0.00000
     95       1.4511      0.00000
     96       1.4558      0.00000
     97       1.4646      0.00000
     98       1.4665      0.00000
     99       1.4691      0.00000
    100       1.4709      0.00000
    101       1.4752      0.00000
    102       1.4762      0.00000
    103       1.4794      0.00000
    104       1.4810      0.00000
    105       1.4832      0.00000
    106       1.4854      0.00000
    107       1.6289      0.00000
    108       1.6598      0.00000
    109       1.7559      0.00000
    110       1.7627      0.00000
    111       1.7761      0.00000
    112       1.7986      0.00000
    113       1.8233      0.00000
    114       1.8371      0.00000
    115       1.8670      0.00000
    116       1.8895      0.00000
    117       1.8955      0.00000
    118       1.9318      0.00000
    119       1.9395      0.00000
    120       1.9514      0.00000
    121       1.9666      0.00000
    122       1.9985      0.00000
    123       2.0168      0.00000
    124       2.0298      0.00000
    125       2.0414      0.00000
    126       2.0536      0.00000
    127       2.0673      0.00000
    128       2.0855      0.00000
    129       2.0896      0.00000
    130       2.1086      0.00000
    131       2.1282      0.00000
    132       2.1383      0.00000
    133       2.1477      0.00000
    134       2.1620      0.00000
    135       2.1658      0.00000
    136       2.1715      0.00000
    137       2.1784      0.00000
    138       2.1830      0.00000
    139       2.1853      0.00000
    140       2.1880      0.00000
    141       2.1935      0.00000
    142       2.1940      0.00000
    143       2.1967      0.00000
    144       2.1978      0.00000
    145       2.2018      0.00000
    146       2.2031      0.00000
    147       2.2045      0.00000
    148       2.2051      0.00000
    149       2.2627      0.00000
    150       2.2699      0.00000
    151       2.2749      0.00000
    152       2.2907      0.00000
    153       2.2989      0.00000
    154       2.3191      0.00000
    155       2.3517      0.00000
    156       2.3710      0.00000
    157       2.3752      0.00000
    158       2.3797      0.00000
    159       2.3839      0.00000
    160       2.3911      0.00000
    161       2.4006      0.00000
    162       2.4063      0.00000
    163       2.4072      0.00000
    164       2.4154      0.00000
    165       2.4201      0.00000
    166       2.4259      0.00000
    167       2.4369      0.00000
    168       2.4385      0.00000
    169       2.4404      0.00000
    170       2.4416      0.00000
    171       2.4421      0.00000
    172       2.4440      0.00000
    173       2.5028      0.00000
    174       2.5283      0.00000
    175       2.5506      0.00000
    176       2.5652      0.00000
    177       2.5769      0.00000
    178       2.5871      0.00000
    179       2.5908      0.00000
    180       2.5954      0.00000
    181       2.6076      0.00000
    182       2.6122      0.00000
    183       2.6138      0.00000
    184       2.6215      0.00000
    185       2.6266      0.00000
    186       2.6274      0.00000
    187       2.6337      0.00000
    188       2.6360      0.00000
    189       2.6496      0.00000
    190       2.6587      0.00000
    191       2.6592      0.00000
    192       2.6652      0.00000
    193       2.6659      0.00000
    194       2.6728      0.00000
    195       2.6748      0.00000
    196       2.6760      0.00000
    197       2.7605      0.00000
    198       2.7805      0.00000
    199       2.7873      0.00000
    200       2.8068      0.00000
    201       2.8241      0.00000
    202       2.8474      0.00000
    203       2.8490      0.00000
    204       2.8541      0.00000
    205       2.8757      0.00000
    206       2.9004      0.00000
    207       2.9174      0.00000
    208       2.9238      0.00000
    209       2.9583      0.00000
    210       2.9719      0.00000
    211       2.9878      0.00000
    212       3.0169      0.00000
    213       3.0253      0.00000
    214       3.0429      0.00000
    215       3.0604      0.00000
    216       3.0847      0.00000
    217       3.0956      0.00000
    218       3.1002      0.00000
    219       3.1128      0.00000
    220       3.1190      0.00000
    221       3.1269      0.00000
    222       3.1288      0.00000
    223       3.1455      0.00000
    224       3.1474      0.00000
    225       3.1510      0.00000
    226       3.1525      0.00000
    227       3.1554      0.00000
    228       3.1588      0.00000
    229       3.1618      0.00000
    230       3.1993      0.00000
    231       3.2135      0.00000
    232       3.2192      0.00000
    233       3.2413      0.00000
    234       3.2551      0.00000
    235       3.2602      0.00000
    236       3.2669      0.00000
    237       3.2725      0.00000
    238       3.2864      0.00000
    239       3.2889      0.00000
    240       3.3005      0.00000
    241       3.3116      0.00000
    242       3.3135      0.00000
    243       3.3221      0.00000
    244       3.3274      0.00000
    245       3.3340      0.00000
    246       3.3395      0.00000
    247       3.3455      0.00000
    248       3.3509      0.00000
    249       3.3561      0.00000
    250       3.3577      0.00000
    251       3.3630      0.00000
    252       3.3780      0.00000
    253       3.3884      0.00000
    254       3.4565      0.00000
    255       3.4907      0.00000
    256       3.5114      0.00000


--------------------------------------------------------------------------------------------------------


 soft charge-density along one line, spin component           1
         0         1         2         3         4         5         6         7         8         9
 total charge-density along one line

 pseudopotential strength for first ion, spin component:           1
 12.741  21.441   0.001   0.004  -0.000   0.001   0.007  -0.001
 21.441  36.081   0.001   0.007  -0.001   0.002   0.012  -0.001
  0.001   0.001  -3.188   0.000  -0.000  -5.715   0.001  -0.000
  0.004   0.007   0.000  -3.188  -0.000   0.001  -5.715  -0.000
 -0.000  -0.001  -0.000  -0.000  -3.187  -0.000  -0.000  -5.714
  0.001   0.002  -5.715   0.001  -0.000 -10.224   0.001  -0.000
  0.007   0.012   0.001  -5.715  -0.000   0.001 -10.224  -0.001
 -0.001  -0.001  -0.000  -0.000  -5.714  -0.000  -0.001 -10.223
 total augmentation occupancy for first ion, spin component:           1
  7.472  -2.580  -0.167   0.119   0.006   0.059  -0.084  -0.010
 -2.580   0.917   0.058  -0.105  -0.009  -0.016   0.059   0.010
 -0.167   0.058   5.789  -0.027  -0.016  -1.872   0.038   0.010
  0.119  -0.105  -0.027   5.779   0.006   0.038  -1.861  -0.025
  0.006  -0.009  -0.016   0.006   5.701   0.010  -0.025  -1.786
  0.059  -0.016  -1.872   0.038   0.010   0.615  -0.024  -0.006
 -0.084   0.059   0.038  -1.861  -0.025  -0.024   0.609   0.017
 -0.010   0.010   0.010  -0.025  -1.786  -0.006   0.017   0.564


------------------------ aborting loop because EDIFF is reached ----------------------------------------


    FORLOC:  cpu time      0.0324: real time      0.0324
    FORNL :  cpu time      0.5700: real time      0.5710
    FORCOR:  cpu time      0.5781: real time      0.5782
    OFIELD:  cpu time      0.0054: real time      0.0061

 ---------------------------------------------------------------------------------------------

         DFTD3 V3.0 Rev 1        
 IVDW         = 11
 DF pbe       
 parameters
 VDW_S6       =    1.0000
 VDW_S8       =    0.7220
 VDW_SR       =    1.2170
 rs18     =    1.0000
 alpha6   =   14.0000
 alpha8   =   16.0000
 k1-k3    =   16.0000    1.3333   -4.0000
 VDW_RADIUS   =   50.2022 A
 VDW_CNRADIUS =   21.1671 A
 Edisp (eV)   -0.15999

 E6    (eV) :    -0.0606
 E8    (eV) :    -0.0994
 % E8        : 62.12
    FORVDW:  cpu time      0.0731: real time      0.0753

 VOLUME and BASIS-vectors are now :
 -----------------------------------------------------------------------------
  energy-cutoff  :     1000.00
  volume of cell :    15625.00
      direct lattice vectors                 reciprocal lattice vectors
    25.000000000  0.000000000  0.000000000     0.040000000  0.000000000  0.000000000
     0.000000000 25.000000000  0.000000000     0.000000000  0.040000000  0.000000000
     0.000000000  0.000000000 25.000000000     0.000000000  0.000000000  0.040000000

  length of vectors
    25.000000000 25.000000000 25.000000000     0.040000000  0.040000000  0.040000000


 FORCES acting on ions:
    Electron-Ion                     Ewald-Force                    Non-Local-Force
 -----------------------------------------------------------------------------------------------
   0.110E+03 0.726E+02 0.130E+03   -.110E+03 -.731E+02 -.132E+03   -.193E+00 0.647E+00 0.262E+01
   0.161E+03 -.725E+02 0.568E+02   -.163E+03 0.730E+02 -.557E+02   0.239E+01 -.646E+00 -.111E+01
   0.424E+02 -.696E+02 0.301E+02   -.456E+02 0.619E+02 -.311E+02   0.290E+01 0.798E+01 0.113E+01
   0.431E+02 0.696E+02 0.290E+02   -.452E+02 -.619E+02 -.316E+02   0.209E+01 -.797E+01 0.231E+01
   -.972E+02 -.706E+02 0.171E+01   0.105E+03 0.733E+02 -.210E+01   -.793E+01 -.263E+01 0.373E+00
   -.329E+02 0.705E+02 -.915E+02   0.354E+02 -.732E+02 0.993E+02   -.247E+01 0.263E+01 -.755E+01
   -.226E+02 0.418E+02 0.762E+02   0.258E+02 -.438E+02 -.802E+02   -.327E+01 0.206E+01 0.410E+01
   0.823E+02 0.321E+02 0.304E+02   -.873E+02 -.341E+02 -.314E+02   0.506E+01 0.195E+01 0.963E+00
   0.576E+02 -.320E+02 0.662E+02   -.603E+02 0.339E+02 -.706E+02   0.269E+01 -.194E+01 0.439E+01
   0.633E+02 -.418E+02 -.481E+02   -.659E+02 0.438E+02 0.526E+02   0.268E+01 -.206E+01 -.451E+01
   -.378E+03 0.984E+02 0.128E+03   0.422E+03 -.126E+03 -.137E+03   -.441E+02 0.282E+02 0.995E+01
   0.174E+02 -.372E+03 -.356E+02   -.560E+02 0.400E+03 0.453E+02   0.385E+02 -.275E+02 -.973E+01
   -.146E+02 -.986E+02 -.399E+03   0.209E+02 0.127E+03 0.444E+03   -.629E+01 -.282E+02 -.448E+02
   -.275E+02 0.372E+03 0.287E+02   0.229E+02 -.400E+03 -.682E+02   0.453E+01 0.275E+02 0.394E+02
 -----------------------------------------------------------------------------------------------
   0.343E+01 -.943E-02 0.239E+01   -.121E-12 -.114E-12 0.995E-13   -.343E+01 0.940E-02 -.239E+01


 POSITION                                       TOTAL-FORCE (eV/Angst)
 -----------------------------------------------------------------------------------
     11.79605     11.73530     11.76590         0.040555      0.069432      0.088393
     11.79605     13.26260     11.76380         0.105261     -0.068755      0.006649
     13.20035     13.84150     11.73820        -0.076004     -0.057861      0.007311
     12.27005     11.15750     13.08830        -0.020331      0.057041     -0.067399
     14.11975     15.46600     11.93510         0.162617      0.070365     -0.005662
     12.78155      9.53400     13.87910         0.053499     -0.071856      0.158877
     12.43075     11.33220     10.96430        -0.009428      0.022842      0.025304
     10.77975     11.35030     11.58510         0.030936      0.011052      0.013600
     11.26695     13.64630     10.87690         0.023111     -0.012102      0.023959
     11.27085     13.66630     12.64070         0.019423     -0.023500     -0.015951
     14.22025     13.22590     11.50900        -0.043980     -0.051694     -0.003057
     13.18995     15.18010     11.98440        -0.202591     -0.050719      0.008542
     12.41625     11.77360     14.12310        -0.018160      0.051944     -0.042121
     12.49785      9.81900     12.99210        -0.064908      0.053810     -0.198444
 -----------------------------------------------------------------------------------
    total drift:                                0.000278     -0.000024      0.000180


--------------------------------------------------------------------------------------------------------



  FREE ENERGIE OF THE ION-ELECTRON SYSTEM (eV)
  ---------------------------------------------------
  free  energy   TOTEN  =       -86.54213108 eV

  energy  without entropy=      -86.54213108  energy(sigma->0) =      -86.54213108



--------------------------------------------------------------------------------------------------------


    POTLOK:  cpu time      0.8824: real time      0.8825


--------------------------------------------------------------------------------------------------------


 stress matrix after NEB project (eV)
     -0.01713     -0.03044      0.00078
     -0.03044     -0.00276      0.04415
      0.00078      0.04415     -0.01785
  FORCES: max atom, RMS     0.215612    0.124431
  FORCE total and by dimension    0.465576    0.202591
  Stress total and by dimension    0.079828    0.044147
     LOOP+:  cpu time    262.3090: real time    262.7071
    4ORBIT:  cpu time      0.0000: real time      0.0000

 total amount of memory used by VASP MPI-rank0   814031. kBytes
=======================================================================

   base      :      30000. kBytes
   nonl-proj :     116719. kBytes
   fftplans  :     222158. kBytes
   grid      :     431671. kBytes
   one-center:         10. kBytes
   wavefun   :      13473. kBytes

  
  
 General timing and accounting informations for this job:
 ========================================================
  
                  Total CPU time used (sec):      336.911
                            User time (sec):      294.864
                          System time (sec):       42.047
                         Elapsed time (sec):      357.690
  
                   Maximum memory used (kb):     1122804.
                   Average memory used (kb):          N/A
  
                          Minor page faults:      1661057
                          Major page faults:         1164
                 Voluntary context switches:        11835
