 vasp.6.4.1 05Apr23 (build Jun  6 2023 14:46:38) gamma-only                      
 executed on        HPECrayEX_GCC date 2024.08.22  14:45:54
 running  512 mpi-ranks, with    1 threads/rank, on    4 nodes
 distrk:  each k-point on  256 cores,    2 groups
 distr:  one band on NCORE=  32 cores,    8 groups


--------------------------------------------------------------------------------------------------------


 INCAR:
   ALGO = Conjugate
   KPAR = 2
   NCORE = 32
   PREC = Accurate
   EDIFF = 1E-7
   ENCUT = 1000
   ISMEAR = 0
   SIGMA = 0.01
   ISIF = 0
   GGA = PE
   IVDW = 202
   LVDWEXPANSION = .TRUE.
   LWAVE = .FALSE.
   LCHARG = .FALSE.
   SYMPREC = 1E-7
   LWAVE = .FALSE.
   LCHARG = .FALSE.

 POTCAR:    PAW_PBE C_h 06Feb2004                 
 POTCAR:    PAW_PBE H_h 06Feb2004                 
 POTCAR:    PAW_PBE O_h 06Feb2004                 
 POTCAR:    PAW_PBE C_h 06Feb2004                 
   VRHFIN =C: s2p2                                                                                  
   LEXCH  = PE                                                                                      
   EATOM  =   147.1560 eV,   10.8157 Ry                                                             
                                                                                                    
   TITEL  = PAW_PBE C_h 06Feb2004                                                                   
   LULTRA =        F    use ultrasoft PP ?                                                          
   IUNSCR =        1    unscreen: 0-lin 1-nonlin 2-no                                               
   RPACOR =    0.800    partial core radius                                                         
   POMASS =   12.011; ZVAL   =    4.000    mass and valenz                                          
   RCORE  =    1.100    outmost cutoff radius                                                       
   RWIGS  =    1.630; RWIGS  =    0.863    wigner-seitz radius (au A)                               
   ENMAX  =  700.000; ENMIN  =  500.000 eV                                                          
   ICORE  =        2    local potential                                                             
   LCOR   =        T    correct aug charges                                                         
   LPAW   =        T    paw PP                                                                      
   EAUG   =  946.768                                                                                
   DEXC   =    0.000                                                                                
   RMAX   =    1.128    core radius for proj-oper                                                   
   RAUG   =    1.300    factor for augmentation sphere                                              
   RDEP   =    1.162    radius for radial grids                                                     
   RDEPT  =    1.088    core radius for aug-charge                                                  
                                                                                                    
   Atomic configuration                                                                             
    4 entries                                                                                       
     n  l   j            E        occ.                                                              
     1  0  0.50      -273.3789   2.0000                                                             
     2  0  0.50       -13.7508   2.0000                                                             
     2  1  0.50        -5.2854   2.0000                                                             
     3  2  1.50        -5.4423   0.0000                                                             
   Description                                                                                      
     l       E           TYP  RCUT    TYP  RCUT                                                     
     0    -13.7508458     23  1.100                                                                 
     0     -8.2022199     23  1.100                                                                 
     1     -5.2854383     23  1.100                                                                 
     1      1.1560700     23  1.100                                                                 
     2     -5.4423304      7  1.100                                                                 
  local pseudopotential read in
  partial core-charges read in
  partial kinetic energy density read in
  atomic valenz-charges read in
  non local Contribution for L=           0  read in
    real space projection operators read in
  non local Contribution for L=           0  read in
    real space projection operators read in
  non local Contribution for L=           1  read in
    real space projection operators read in
  non local Contribution for L=           1  read in
    real space projection operators read in
    PAW grid and wavefunctions read in

   number of l-projection  operators is LMAX  =           4
   number of lm-projection operators is LMMAX =           8

 POTCAR:    PAW_PBE H_h 06Feb2004                 
   VRHFIN =H: ultrasoft test                                                                        
   LEXCH  = PE                                                                                      
   EATOM  =    12.4884 eV,    0.9179 Ry                                                             
                                                                                                    
   TITEL  = PAW_PBE H_h 06Feb2004                                                                   
   LULTRA =        F    use ultrasoft PP ?                                                          
   IUNSCR =        0    unscreen: 0-lin 1-nonlin 2-no                                               
   RPACOR =    0.000    partial core radius                                                         
   POMASS =    1.000; ZVAL   =    1.000    mass and valenz                                          
   RCORE  =    0.800    outmost cutoff radius                                                       
   RWIGS  =    0.700; RWIGS  =    0.370    wigner-seitz radius (au A)                               
   ENMAX  =  700.000; ENMIN  =  350.000 eV                                                          
   RCLOC  =    0.701    cutoff for local pot                                                        
   LCOR   =        T    correct aug charges                                                         
   LPAW   =        T    paw PP                                                                      
   EAUG   = 1000.000                                                                                
   RMAX   =    0.819    core radius for proj-oper                                                   
   RAUG   =    1.000    factor for augmentation sphere                                              
   RDEP   =    0.817    radius for radial grids                                                     
   RDEPT  =    0.817    core radius for aug-charge                                                  
                                                                                                    
   Atomic configuration                                                                             
    2 entries                                                                                       
     n  l   j            E        occ.                                                              
     1  0  0.50        -6.4927   1.0000                                                             
     2  1  0.50        -3.4015   0.0000                                                             
   Description                                                                                      
     l       E           TYP  RCUT    TYP  RCUT                                                     
     0     -6.4927493     23  0.800                                                                 
     0      6.8029130     23  0.800                                                                 
     1     -6.8029130     23  0.800                                                                 
  local pseudopotential read in
  atomic valenz-charges read in
  non local Contribution for L=           0  read in
    real space projection operators read in
  non local Contribution for L=           0  read in
    real space projection operators read in
  non local Contribution for L=           1  read in
    real space projection operators read in
    PAW grid and wavefunctions read in

   number of l-projection  operators is LMAX  =           3
   number of lm-projection operators is LMMAX =           5

 POTCAR:    PAW_PBE O_h 06Feb2004                 
   VRHFIN =O: s2p4                                                                                  
   LEXCH  = PE                                                                                      
   EATOM  =   432.3788 eV,   31.7789 Ry                                                             
                                                                                                    
   TITEL  = PAW_PBE O_h 06Feb2004                                                                   
   LULTRA =        F    use ultrasoft PP ?                                                          
   IUNSCR =        1    unscreen: 0-lin 1-nonlin 2-no                                               
   RPACOR =    0.800    partial core radius                                                         
   POMASS =   16.000; ZVAL   =    6.000    mass and valenz                                          
   RCORE  =    1.100    outmost cutoff radius                                                       
   RWIGS  =    1.400; RWIGS  =    0.741    wigner-seitz radius (au A)                               
   ENMAX  =  700.000; ENMIN  =  500.000 eV                                                          
   ICORE  =        2    local potential                                                             
   LCOR   =        T    correct aug charges                                                         
   LPAW   =        T    paw PP                                                                      
   EAUG   =  888.804                                                                                
   DEXC   =    0.000                                                                                
   RMAX   =    1.128    core radius for proj-oper                                                   
   RAUG   =    1.300    factor for augmentation sphere                                              
   RDEP   =    1.125    radius for radial grids                                                     
   RDEPT  =    1.088    core radius for aug-charge                                                  
                                                                                                    
   Atomic configuration                                                                             
    4 entries                                                                                       
     n  l   j            E        occ.                                                              
     1  0  0.50      -514.6923   2.0000                                                             
     2  0  0.50       -23.9615   2.0000                                                             
     2  1  0.50        -9.0305   4.0000                                                             
     3  2  1.50        -9.5241   0.0000                                                             
   Description                                                                                      
     l       E           TYP  RCUT    TYP  RCUT                                                     
     0    -23.9615319     23  1.100                                                                 
     0    -25.3221145     23  1.100                                                                 
     1     -9.0304911     23  1.100                                                                 
     1     -5.4802209     23  1.100                                                                 
     2     -9.5240782      7  1.100                                                                 
  local pseudopotential read in
  partial core-charges read in
  partial kinetic energy density read in
  atomic valenz-charges read in
  non local Contribution for L=           0  read in
    real space projection operators read in
  non local Contribution for L=           0  read in
    real space projection operators read in
  non local Contribution for L=           1  read in
    real space projection operators read in
  non local Contribution for L=           1  read in
    real space projection operators read in
    PAW grid and wavefunctions read in

   number of l-projection  operators is LMAX  =           4
   number of lm-projection operators is LMMAX =           8

  PAW_PBE C_h 06Feb2004                 :
 energy of atom  1       EATOM= -147.1560
 kinetic energy error for atom=    0.0031 (will be added to EATOM!!)
  PAW_PBE H_h 06Feb2004                 :
 energy of atom  2       EATOM=  -12.4884
 kinetic energy error for atom=    0.0006 (will be added to EATOM!!)
  PAW_PBE O_h 06Feb2004                 :
 energy of atom  3       EATOM= -432.3788
 kinetic energy error for atom=    0.0171 (will be added to EATOM!!)


 POSCAR:  C  H  O
  positions in cartesian coordinates
  No initial velocities read in
 exchange correlation table for  LEXCH =        8
   RHO(1)=    0.500       N(1)  =     2000
   RHO(2)=  100.500       N(2)  =     4000

 VTST: version 4.1, (05/19/21)

 CHAIN: initializing optimizer
 
 OPT: Using VASP Dynamics algorithm
 CHAIN: Read ICHAIN            0

 POSCAR:  C  H  O
  positions in cartesian coordinates
  No initial velocities read in



--------------------------------------------------------------------------------------------------------


 ion  position               nearest neighbor table
   1  0.472  0.469  0.471-   7 1.10   8 1.10   4 1.52   2 1.53
   2  0.472  0.531  0.471-  10 1.10   9 1.10   3 1.52   1 1.53
   3  0.528  0.554  0.470-  11 1.21  12 1.36   2 1.52
   4  0.491  0.446  0.524-  13 1.21  14 1.36   1 1.52
   5  0.565  0.619  0.477-  12 0.97
   6  0.511  0.381  0.555-  14 0.97
   7  0.497  0.453  0.439-   1 1.10
   8  0.431  0.454  0.463-   1 1.10
   9  0.451  0.546  0.435-   2 1.10
  10  0.451  0.547  0.506-   2 1.10
  11  0.569  0.529  0.460-   3 1.21
  12  0.528  0.607  0.479-   5 0.97   3 1.36
  13  0.497  0.471  0.565-   4 1.21
  14  0.500  0.393  0.520-   6 0.97   4 1.36

  LATTYP: Found a simple cubic cell.
 ALAT       =    25.0000000000
  
  Lattice vectors:
  
 A1 = (  25.0000000000,   0.0000000000,   0.0000000000)
 A2 = (   0.0000000000,  25.0000000000,   0.0000000000)
 A3 = (   0.0000000000,   0.0000000000,  25.0000000000)


Analysis of symmetry for initial positions (statically):
=====================================================================
 Subroutine PRICEL returns:
 Original cell was already a primitive cell.
 

 Routine SETGRP: Setting up the symmetry group for a 
 simple cubic supercell.


 Subroutine GETGRP returns: Found  1 space group operations
 (whereof  1 operations were pure point group operations)
 out of a pool of 48 trial point group operations.


The static configuration has the point symmetry C_1 .


Analysis of symmetry for dynamics (positions and initial velocities):
=====================================================================
 Subroutine PRICEL returns:
 Original cell was already a primitive cell.
 

 Routine SETGRP: Setting up the symmetry group for a 
 simple cubic supercell.


 Subroutine GETGRP returns: Found  1 space group operations
 (whereof  1 operations were pure point group operations)
 out of a pool of 48 trial point group operations.


The dynamic configuration has the point symmetry C_1 .


 Subroutine INISYM returns: Found  1 space group operations
 (whereof  1 operations are pure point group operations),
 and found     1 'primitive' translations


----------------------------------------------------------------------------------------

                                     Primitive cell                                     

  volume of cell :   15625.0000

  direct lattice vectors                    reciprocal lattice vectors
    25.000000000  0.000000000  0.000000000     0.040000000  0.000000000  0.000000000
     0.000000000 25.000000000  0.000000000     0.000000000  0.040000000  0.000000000
     0.000000000  0.000000000 25.000000000     0.000000000  0.000000000  0.040000000

  length of vectors
    25.000000000 25.000000000 25.000000000     0.040000000  0.040000000  0.040000000

  position of ions in fractional coordinates (direct lattice)
     0.471842000  0.469412000  0.470636000
     0.471842000  0.530504000  0.470552000
     0.528014000  0.553660000  0.469528000
     0.490802000  0.446300000  0.523532000
     0.564790000  0.618640000  0.477404000
     0.511262000  0.381360000  0.555164000
     0.497230000  0.453288000  0.438572000
     0.431190000  0.454012000  0.463404000
     0.450678000  0.545852000  0.435076000
     0.450834000  0.546652000  0.505628000
     0.568810000  0.529036000  0.460360000
     0.527598000  0.607204000  0.479376000
     0.496650000  0.470944000  0.564924000
     0.499914000  0.392760000  0.519684000

  ion indices of the primitive-cell ions
   primitive index   ion index
                 1           1
                 2           2
                 3           3
                 4           4
                 5           5
                 6           6
                 7           7
                 8           8
                 9           9
                10          10
                11          11
                12          12
                13          13
                14          14

----------------------------------------------------------------------------------------



 KPOINTS: auto                                    

Automatic generation of k-mesh.
 Grid dimensions read from file:
 generate k-points for:    1    1    1

 Generating k-lattice:

  Cartesian coordinates                     Fractional coordinates (reciprocal lattice)
     0.040000000  0.000000000  0.000000000     1.000000000  0.000000000  0.000000000
     0.000000000  0.040000000  0.000000000     0.000000000  1.000000000  0.000000000
     0.000000000  0.000000000  0.040000000     0.000000000  0.000000000  1.000000000

  Length of vectors
     0.040000000  0.040000000  0.040000000

  Shift w.r.t. Gamma in fractional coordinates (k-lattice)
     0.000000000  0.000000000  0.000000000

 
 Subroutine IBZKPT returns following result:
 ===========================================
 
 Found      1 irreducible k-points:
 
 Following reciprocal coordinates:
            Coordinates               Weight
  0.000000  0.000000  0.000000      1.000000
 
 Following cartesian coordinates:
            Coordinates               Weight
  0.000000  0.000000  0.000000      1.000000
 


--------------------------------------------------------------------------------------------------------




 Dimension of arrays:
   k-points           NKPTS =      1   k-points in BZ     NKDIM =      1   number of bands    NBANDS=     32
   number of dos      NEDOS =    301   number of ions     NIONS =     14
   non local maximal  LDIM  =      4   non local SUM 2l+1 LMDIM =      8
   total plane-waves  NPLWV = ******
   max r-space proj   IRMAX =      1   max aug-charges    IRDMAX=   9386
   dimension x,y,z NGX =   270 NGY =  270 NGZ =  270
   dimension x,y,z NGXF=   540 NGYF=  540 NGZF=  540
   support grid    NGXF=   540 NGYF=  540 NGZF=  540
   ions per type =               4   6   4
   NGX,Y,Z   is equivalent  to a cutoff of  17.95, 17.95, 17.95 a.u.
   NGXF,Y,Z  is equivalent  to a cutoff of  35.91, 35.91, 35.91 a.u.

 SYSTEM =  unknown system                          
 POSCAR =   C  H  O                                

 Startparameter for this run:
   NWRITE =      2    write-flag & timer
   PREC   = accura    normal or accurate (medium, high low for compatibility)
   ISTART =      0    job   : 0-new  1-cont  2-samecut
   ICHARG =      2    charge: 1-file 2-atom 10-const
   ISPIN  =      1    spin polarized calculation?
   LNONCOLLINEAR =      F non collinear calculations
   LSORBIT =      F    spin-orbit coupling
   INIWAV =      1    electr: 0-lowe 1-rand  2-diag
   LASPH  =      F    aspherical Exc in radial PAW
 Electronic Relaxation 1
   ENCUT  = 1000.0 eV  73.50 Ry    8.57 a.u.  64.46 64.46 64.46*2*pi/ulx,y,z
   ENINI  = 1000.0     initial cutoff
   ENAUG  = 1000.0 eV  augmentation charge cutoff
   NELM   =     60;   NELMIN=  2; NELMDL= -5     # of ELM steps 
   EDIFF  = 0.1E-06   stopping-criterion for ELM
   LREAL  =      F    real-space projection
   NLSPLINE    = F    spline interpolate recip. space projectors
   LCOMPAT=      F    compatible to vasp.4.4
   GGA_COMPAT  = T    GGA compatible to vasp.4.4-vasp.4.6
   LMAXPAW     = -100 max onsite density
   LMAXMIX     =    2 max onsite mixed and CHGCAR
   VOSKOWN=      0    Vosko Wilk Nusair interpolation
   ROPT   =    0.00000   0.00000   0.00000
 Ionic relaxation
   EDIFFG = 0.1E-05   stopping-criterion for IOM
   NSW    =      0    number of steps for IOM
   NBLOCK =      1;   KBLOCK =      1    inner block; outer block 
   IBRION =     -1    ionic relax: 0-MD 1-quasi-New 2-CG
   NFREE  =      0    steps in history (QN), initial steepest desc. (CG)
   ISIF   =      0    stress and relaxation
   IWAVPR =     10    prediction:  0-non 1-charg 2-wave 3-comb
   ISYM   =      2    0-nonsym 1-usesym 2-fastsym
   LCORR  =      T    Harris-Foulkes like correction to forces

   POTIM  = 0.5000    time-step for ionic-motion
   TEIN   =    0.0    initial temperature
   TEBEG  =    0.0;   TEEND  =   0.0 temperature during run
   SMASS  =  -3.00    Nose mass-parameter (am)
   estimated Nose-frequenzy (Omega)   =  0.10E-29 period in steps = 0.13E+47 mass=  -0.143E-25a.u.
   SCALEE = 1.0000    scale energy and forces
   NPACO  =    256;   APACO  = 10.0  distance and # of slots for P.C.
   PSTRESS=    0.0 pullay stress

  Mass of Ions in am
   POMASS =  12.01  1.00 16.00
  Ionic Valenz
   ZVAL   =   4.00  1.00  6.00
  Atomic Wigner-Seitz radii
   RWIGS  =  -1.00 -1.00 -1.00
  virtual crystal weights 
   VCA    =   1.00  1.00  1.00
   NELECT =      46.0000    total number of electrons
   NUPDOWN=      -1.0000    fix difference up-down

 DOS related values:
   EMIN   =  10.00;   EMAX   =-10.00  energy-range for DOS
   EFERMI =   0.00;   METHOD = LEGACY      
   ISMEAR =     0;   SIGMA  =   0.01  broadening in eV -4-tet -1-fermi 0-gaus

 Electronic relaxation 2 (details)
   IALGO  =     58    algorithm
   LDIAG  =      T    sub-space diagonalisation (order eigenvalues)
   LSUBROT=      F    optimize rotation matrix (better conditioning)
   TURBO    =      0    0=normal 1=particle mesh
   IRESTART =      0    0=no restart 2=restart with 2 vectors
   NREBOOT  =      0    no. of reboots
   NMIN     =      0    reboot dimension
   EREF     =   0.00    reference energy to select bands
   IMIX   =      4    mixing-type and parameters
     AMIX     =   0.40;   BMIX     =  1.00
     AMIX_MAG =   1.60;   BMIX_MAG =  1.00
     AMIN     =   0.10
     WC   =   100.;   INIMIX=   1;  MIXPRE=   1;  MAXMIX= -45

 Intra band minimization:
   WEIMIN = 0.0000     energy-eigenvalue tresh-hold
   EBREAK =  0.78E-09  absolut break condition
   DEPER  =   0.30     relativ break condition  

   TIME   =   0.40     timestep for ELM

  volume/ion in A,a.u.               =    1116.07      7531.62
  Fermi-wavevector in a.u.,A,eV,Ry     =   0.234632  0.443390  0.749031  0.055052
  Thomas-Fermi vector in A             =   1.032875

 Write flags
   LWAVE        =      F    write WAVECAR
   LDOWNSAMPLE  =      F    k-point downsampling of WAVECAR
   LCHARG       =      F    write CHGCAR
   LVTOT        =      F    write LOCPOT, total local potential
   LVHAR        =      F    write LOCPOT, Hartree potential only
   LELF         =      F    write electronic localiz. function (ELF)
   LORBIT       =      0    0 simple, 1 ext, 2 COOP (PROOUT), +10 PAW based schemes


 Dipole corrections
   LMONO  =      F    monopole corrections only (constant potential shift)
   LDIPOL =      F    correct potential (dipole corrections)
   IDIPOL =      0    1-x, 2-y, 3-z, 4-all directions 
   EPSILON=  1.0000000 bulk dielectric constant

 Exchange correlation treatment:
   GGA     =    PE    GGA type
   LEXCH   =     8    internal setting for exchange type
   LIBXC   =     F    Libxc                    
   VOSKOWN =     0    Vosko Wilk Nusair interpolation
   LHFCALC =     F    Hartree Fock is set to
   LHFONE  =     F    Hartree Fock one center treatment
   AEXX    =    0.0000 exact exchange contribution

 Linear response parameters
   LEPSILON=     F    determine dielectric tensor
   LRPA    =     F    only Hartree local field effects (RPA)
   LNABLA  =     F    use nabla operator in PAW spheres
   LVEL    =     F    velocity operator in full k-point grid
   CSHIFT  =0.1000    complex shift for real part using Kramers Kronig
   OMEGAMAX=  -1.0    maximum frequency
   DEG_THRESHOLD= 0.2000000E-02 threshold for treating states as degnerate
   RTIME   =   -0.100 relaxation time in fs
  (WPLASMAI=    0.000 imaginary part of plasma frequency in eV, 0.658/RTIME)
   DFIELD  = 0.0000000 0.0000000 0.0000000 field for delta impulse in time

  Optional k-point grid parameters
   LKPOINTS_OPT  =     F    use optional k-point grid
   KPOINTS_OPT_MODE=     1    mode for optional k-point grid

 Orbital magnetization related:
   ORBITALMAG=     F  switch on orbital magnetization
   LCHIMAG   =     F  perturbation theory with respect to B field
   DQ        =  0.001000  dq finite difference perturbation B field
   LLRAUG    =     F  two centre corrections for induced B field
   LBONE     =     F  B-component reconstruction in AE one-centre
   LVGVCALC  =     T  calculate vGv susceptibility
   LVGVAPPL  =     F  apply vGv susceptibility instead of pGv for G=0

 Random number generation:
   RANDOM_GENERATOR = DEFAULT
   PCG_SEED         = not used


--------------------------------------------------------------------------------------------------------


 Static calculation
 charge density and potential will be updated during run
 non-spin polarized calculation
 Conjugate gradient for all bands (Freysoldt, et al. PRB 79, 241103 (2009))
 preconditioned conjugated gradient                                        
 perform sub-space diagonalisation
    before iterative eigenvector-optimisation
 modified Broyden-mixing scheme, WC =      100.0
 initial mixing is a Kerker type mixing with AMIX =  0.4000 and BMIX =      1.0000
 Hartree-type preconditioning will be used
 using additional bands            9
 reciprocal scheme for non local part
 use partial core corrections
 no Harris-corrections to forces 
 use gradient corrections 
 use of overlap-Matrix (Vanderbilt PP)
 Gauss-broadening in eV      SIGMA  =   0.01


--------------------------------------------------------------------------------------------------------


  energy-cutoff  :     1000.00
  volume of cell :    15625.00
      direct lattice vectors                 reciprocal lattice vectors
    25.000000000  0.000000000  0.000000000     0.040000000  0.000000000  0.000000000
     0.000000000 25.000000000  0.000000000     0.000000000  0.040000000  0.000000000
     0.000000000  0.000000000 25.000000000     0.000000000  0.000000000  0.040000000

  length of vectors
    25.000000000 25.000000000 25.000000000     0.040000000  0.040000000  0.040000000



 k-points in units of 2pi/SCALE and weight: auto                                    
   0.00000000  0.00000000  0.00000000       1.000

 k-points in reciprocal lattice and weights: auto                                    
   0.00000000  0.00000000  0.00000000       1.000

 position of ions in fractional coordinates (direct lattice) 
   0.47184200  0.46941200  0.47063600
   0.47184200  0.53050400  0.47055200
   0.52801400  0.55366000  0.46952800
   0.49080200  0.44630000  0.52353200
   0.56479000  0.61864000  0.47740400
   0.51126200  0.38136000  0.55516400
   0.49723000  0.45328800  0.43857200
   0.43119000  0.45401200  0.46340400
   0.45067800  0.54585200  0.43507600
   0.45083400  0.54665200  0.50562800
   0.56881000  0.52903600  0.46036000
   0.52759800  0.60720400  0.47937600
   0.49665000  0.47094400  0.56492400
   0.49991400  0.39276000  0.51968400

 position of ions in cartesian coordinates  (Angst):
  11.79605000 11.73530000 11.76590000
  11.79605000 13.26260000 11.76380000
  13.20035000 13.84150000 11.73820000
  12.27005000 11.15750000 13.08830000
  14.11975000 15.46600000 11.93510000
  12.78155000  9.53400000 13.87910000
  12.43075000 11.33220000 10.96430000
  10.77975000 11.35030000 11.58510000
  11.26695000 13.64630000 10.87690000
  11.27085000 13.66630000 12.64070000
  14.22025000 13.22590000 11.50900000
  13.18995000 15.18010000 11.98440000
  12.41625000 11.77360000 14.12310000
  12.49785000  9.81900000 12.99210000



--------------------------------------------------------------------------------------------------------


 use parallel FFT for orbitals z direction half grid
 k-point   1 :   0.0000 0.0000 0.0000  plane waves:  561155

 maximum and minimum number of plane-waves per node :     17542    17530

 maximum number of plane-waves:    561155
 maximum index in each direction: 
   IXMAX=   64   IYMAX=   64   IZMAX=   64
   IXMIN=  -64   IYMIN=  -64   IZMIN=    0


 parallel 3D FFT for wavefunctions:
    minimum data exchange during FFTs selected (reduces bandwidth)
 parallel 3D FFT for charge:
    minimum data exchange during FFTs selected (reduces bandwidth)


 total amount of memory used by VASP MPI-rank0   164276. kBytes
=======================================================================

   base      :      30000. kBytes
   nonl-proj :       7294. kBytes
   fftplans  :      41190. kBytes
   grid      :      82425. kBytes
   one-center:          1. kBytes
   wavefun   :       3366. kBytes

     INWAV:  cpu time      0.0001: real time      0.0000
 Broyden mixing: mesh for mixing (old mesh)
   NGX =129   NGY =129   NGZ =129
  (NGX  =540   NGY  =540   NGZ  =540)
  gives a total of ****** points

 initial charge density was supplied:
 charge density of overlapping atoms calculated
 number of electron      46.0000000 magnetization 
 keeping initial charge density in first step


--------------------------------------------------------------------------------------------------------


 Maximum index for augmentation-charges          482 (set IRDMAX)


--------------------------------------------------------------------------------------------------------


 First call to EWALD:  gamma=   0.071
 Maximum number of real-space cells 3x 3x 3
 Maximum number of reciprocal cells 3x 3x 3

    FEWALD:  cpu time      0.0028: real time      0.0028


--------------------------------------- Ionic step        1  -------------------------------------------




--------------------------------------- Iteration      1(   1)  ---------------------------------------


    POTLOK:  cpu time      1.2005: real time      1.2015
    SETDIJ:  cpu time      0.0098: real time      0.0107
    TRIAL :  cpu time      1.3400: real time      1.3422
    CORREC:  cpu time      0.0010: real time      0.0010
    --------------------------------------------
      LOOP:  cpu time      2.5673: real time      2.5716

 eigenvalue-minimisations  :    80
 total energy-change (2. order) : 0.4895058E+03  (-0.1054337E+04)
 number of electron      46.0000000 magnetization 
 augmentation part       46.0000000 magnetization 

 Free energy of the ion-electron system (eV)
  ---------------------------------------------------
  alpha Z        PSCENC =         0.38735469
  Ewald energy   TEWEN  =      3873.62749281
  -Hartree energ DENC   =     -5698.90253085
  -exchange      EXHF   =         0.00000000
  -V(xc)+E(xc)   XCENC  =       146.74156419
  PAW double counting   =      1850.64643496    -1834.50040137
  entropy T*S    EENTRO =        -0.00000000
  eigenvalues    EBANDS =      -241.47938053
  atomic energy  EATOM  =      2392.98528967
  ---------------------------------------------------
  free energy    TOTEN  =       489.50582355 eV

  energy without entropy =      489.50582355  energy(sigma->0) =      489.50582355


--------------------------------------------------------------------------------------------------------




--------------------------------------- Iteration      1(   2)  ---------------------------------------


    TRIAL :  cpu time      1.6728: real time      1.6735
    CORREC:  cpu time      0.0004: real time      0.0004
    --------------------------------------------
      LOOP:  cpu time      1.6878: real time      1.7031

 eigenvalue-minimisations  :   112
 total energy-change (2. order) :-0.2097603E+03  (-0.2063911E+03)
 number of electron      46.0000000 magnetization 
 augmentation part       46.0000000 magnetization 

 Free energy of the ion-electron system (eV)
  ---------------------------------------------------
  alpha Z        PSCENC =         0.38735469
  Ewald energy   TEWEN  =      3873.62749281
  -Hartree energ DENC   =     -5698.90253085
  -exchange      EXHF   =         0.00000000
  -V(xc)+E(xc)   XCENC  =       146.74156419
  PAW double counting   =      1850.64643496    -1834.50040137
  entropy T*S    EENTRO =        -0.00000002
  eigenvalues    EBANDS =      -451.23965556
  atomic energy  EATOM  =      2392.98528967
  ---------------------------------------------------
  free energy    TOTEN  =       279.74554850 eV

  energy without entropy =      279.74554852  energy(sigma->0) =      279.74554851


--------------------------------------------------------------------------------------------------------




--------------------------------------- Iteration      1(   3)  ---------------------------------------


    TRIAL :  cpu time      1.5859: real time      1.5864
    CORREC:  cpu time      0.0001: real time      0.0001
    --------------------------------------------
      LOOP:  cpu time      1.6029: real time      1.6209

 eigenvalue-minimisations  :   104
 total energy-change (2. order) :-0.2169900E+03  (-0.2115474E+03)
 number of electron      46.0000000 magnetization 
 augmentation part       46.0000000 magnetization 

 Free energy of the ion-electron system (eV)
  ---------------------------------------------------
  alpha Z        PSCENC =         0.38735469
  Ewald energy   TEWEN  =      3873.62749281
  -Hartree energ DENC   =     -5698.90253085
  -exchange      EXHF   =         0.00000000
  -V(xc)+E(xc)   XCENC  =       146.74156419
  PAW double counting   =      1850.64643496    -1834.50040137
  entropy T*S    EENTRO =        -0.00000000
  eigenvalues    EBANDS =      -668.22964003
  atomic energy  EATOM  =      2392.98528967
  ---------------------------------------------------
  free energy    TOTEN  =        62.75556405 eV

  energy without entropy =       62.75556405  energy(sigma->0) =       62.75556405


--------------------------------------------------------------------------------------------------------




--------------------------------------- Iteration      1(   4)  ---------------------------------------


    TRIAL :  cpu time      1.4899: real time      1.4908
    CORREC:  cpu time      0.0001: real time      0.0001
    --------------------------------------------
      LOOP:  cpu time      1.5204: real time      1.5215

 eigenvalue-minimisations  :    96
 total energy-change (2. order) :-0.1324568E+03  (-0.1308336E+03)
 number of electron      46.0000000 magnetization 
 augmentation part       46.0000000 magnetization 

 Free energy of the ion-electron system (eV)
  ---------------------------------------------------
  alpha Z        PSCENC =         0.38735469
  Ewald energy   TEWEN  =      3873.62749281
  -Hartree energ DENC   =     -5698.90253085
  -exchange      EXHF   =         0.00000000
  -V(xc)+E(xc)   XCENC  =       146.74156419
  PAW double counting   =      1850.64643496    -1834.50040137
  entropy T*S    EENTRO =        -0.00000000
  eigenvalues    EBANDS =      -800.68642844
  atomic energy  EATOM  =      2392.98528967
  ---------------------------------------------------
  free energy    TOTEN  =       -69.70122436 eV

  energy without entropy =      -69.70122436  energy(sigma->0) =      -69.70122436


--------------------------------------------------------------------------------------------------------




--------------------------------------- Iteration      1(   5)  ---------------------------------------


    TRIAL :  cpu time      1.3057: real time      1.3064
    CORREC:  cpu time      0.0002: real time      0.0002
    CHARGE:  cpu time      0.3468: real time      0.3483
    --------------------------------------------
      LOOP:  cpu time      1.6656: real time      1.6855

 eigenvalue-minimisations  :    80
 total energy-change (2. order) :-0.2365896E+02  (-0.2356558E+02)
 number of electron      46.0000000 magnetization 
 augmentation part        0.2776901 magnetization 

 Free energy of the ion-electron system (eV)
  ---------------------------------------------------
  alpha Z        PSCENC =         0.38735469
  Ewald energy   TEWEN  =      3873.62749281
  -Hartree energ DENC   =     -5698.90253085
  -exchange      EXHF   =         0.00000000
  -V(xc)+E(xc)   XCENC  =       146.74156419
  PAW double counting   =      1850.64643496    -1834.50040137
  entropy T*S    EENTRO =        -0.00000000
  eigenvalues    EBANDS =      -824.34538577
  atomic energy  EATOM  =      2392.98528967
  ---------------------------------------------------
  free energy    TOTEN  =       -93.36018169 eV

  energy without entropy =      -93.36018169  energy(sigma->0) =      -93.36018169


--------------------------------------------------------------------------------------------------------




--------------------------------------- Iteration      1(   6)  ---------------------------------------


    POTLOK:  cpu time      1.2319: real time      1.2331
    SETDIJ:  cpu time      0.0009: real time      0.0009
    TRIAL :  cpu time      0.7574: real time      0.7589
    CORREC:  cpu time      1.7727: real time      1.7740
    CHARGE:  cpu time      0.3236: real time      0.3238
    --------------------------------------------
      LOOP:  cpu time      4.1016: real time      4.1206

 eigenvalue-minimisations  :     0
 total energy-change (2. order) : 0.1520633E+02  (-0.6615849E+01)
 number of electron      46.0000000 magnetization 
 augmentation part        0.2124764 magnetization 

 Free energy of the ion-electron system (eV)
  ---------------------------------------------------
  alpha Z        PSCENC =         0.38735469
  Ewald energy   TEWEN  =      3873.62749281
  -Hartree energ DENC   =     -6044.05943445
  -exchange      EXHF   =         0.00000000
  -V(xc)+E(xc)   XCENC  =       162.03559333
  PAW double counting   =     20772.33427568   -20758.95399397
  entropy T*S    EENTRO =        -0.00000000
  eigenvalues    EBANDS =      -476.51042923
  atomic energy  EATOM  =      2392.98528967
  ---------------------------------------------------
  free energy    TOTEN  =       -78.15385148 eV

  energy without entropy =      -78.15385148  energy(sigma->0) =      -78.15385148


--------------------------------------------------------------------------------------------------------




--------------------------------------- Iteration      1(   7)  ---------------------------------------


    POTLOK:  cpu time      1.2349: real time      1.2356
    SETDIJ:  cpu time      0.0007: real time      0.0007
    TRIAL :  cpu time      0.7501: real time      0.7504
    CORREC:  cpu time      1.7657: real time      1.7665
    CHARGE:  cpu time      0.3226: real time      0.3231
    --------------------------------------------
      LOOP:  cpu time      4.0916: real time      4.1068

 eigenvalue-minimisations  :     0
 total energy-change (2. order) :-0.6699671E+01  (-0.9295300E+00)
 number of electron      46.0000000 magnetization 
 augmentation part        0.1742267 magnetization 

 Free energy of the ion-electron system (eV)
  ---------------------------------------------------
  alpha Z        PSCENC =         0.38735469
  Ewald energy   TEWEN  =      3873.62749281
  -Hartree energ DENC   =     -5876.20591201
  -exchange      EXHF   =         0.00000000
  -V(xc)+E(xc)   XCENC  =       154.73556476
  PAW double counting   =     24519.29066882   -24504.61275008
  entropy T*S    EENTRO =        -0.00000000
  eigenvalues    EBANDS =      -645.06123073
  atomic energy  EATOM  =      2392.98528967
  ---------------------------------------------------
  free energy    TOTEN  =       -84.85352208 eV

  energy without entropy =      -84.85352208  energy(sigma->0) =      -84.85352208


--------------------------------------------------------------------------------------------------------




--------------------------------------- Iteration      1(   8)  ---------------------------------------


    POTLOK:  cpu time      1.2278: real time      1.2284
    SETDIJ:  cpu time      0.0007: real time      0.0007
    TRIAL :  cpu time      0.7559: real time      0.7564
    CORREC:  cpu time      1.7646: real time      1.7652
    CHARGE:  cpu time      0.3224: real time      0.3229
    --------------------------------------------
      LOOP:  cpu time      4.0877: real time      4.1037

 eigenvalue-minimisations  :     0
 total energy-change (2. order) :-0.9324147E+00  (-0.3572281E+00)
 number of electron      46.0000000 magnetization 
 augmentation part        0.1708059 magnetization 

 Free energy of the ion-electron system (eV)
  ---------------------------------------------------
  alpha Z        PSCENC =         0.38735469
  Ewald energy   TEWEN  =      3873.62749281
  -Hartree energ DENC   =     -5881.43129117
  -exchange      EXHF   =         0.00000000
  -V(xc)+E(xc)   XCENC  =       154.92173754
  PAW double counting   =     24285.19650526   -24270.34308165
  entropy T*S    EENTRO =        -0.00000000
  eigenvalues    EBANDS =      -641.12994389
  atomic energy  EATOM  =      2392.98528967
  ---------------------------------------------------
  free energy    TOTEN  =       -85.78593676 eV

  energy without entropy =      -85.78593676  energy(sigma->0) =      -85.78593676


--------------------------------------------------------------------------------------------------------




--------------------------------------- Iteration      1(   9)  ---------------------------------------


    POTLOK:  cpu time      1.2279: real time      1.2285
    SETDIJ:  cpu time      0.0007: real time      0.0008
    TRIAL :  cpu time      0.7526: real time      0.7535
    CORREC:  cpu time      1.7636: real time      1.7642
    CHARGE:  cpu time      0.3228: real time      0.3233
    --------------------------------------------
      LOOP:  cpu time      4.0847: real time      4.1017

 eigenvalue-minimisations  :     0
 total energy-change (2. order) :-0.3571789E+00  (-0.1551378E+00)
 number of electron      46.0000000 magnetization 
 augmentation part        0.1710119 magnetization 

 Free energy of the ion-electron system (eV)
  ---------------------------------------------------
  alpha Z        PSCENC =         0.38735469
  Ewald energy   TEWEN  =      3873.62749281
  -Hartree energ DENC   =     -5886.39336935
  -exchange      EXHF   =         0.00000000
  -V(xc)+E(xc)   XCENC  =       155.01488688
  PAW double counting   =     24450.31503687   -24435.43162175
  entropy T*S    EENTRO =        -0.00000000
  eigenvalues    EBANDS =      -636.64818550
  atomic energy  EATOM  =      2392.98528967
  ---------------------------------------------------
  free energy    TOTEN  =       -86.14311569 eV

  energy without entropy =      -86.14311569  energy(sigma->0) =      -86.14311569


--------------------------------------------------------------------------------------------------------




--------------------------------------- Iteration      1(  10)  ---------------------------------------


    POTLOK:  cpu time      1.2289: real time      1.2294
    SETDIJ:  cpu time      0.0007: real time      0.0007
    TRIAL :  cpu time      0.7475: real time      0.7478
    CORREC:  cpu time      1.7605: real time      1.7617
    CHARGE:  cpu time      0.3234: real time      0.3236
    --------------------------------------------
      LOOP:  cpu time      4.0912: real time      4.0938

 eigenvalue-minimisations  :     0
 total energy-change (2. order) :-0.1540301E+00  (-0.5585828E-01)
 number of electron      46.0000000 magnetization 
 augmentation part        0.1734241 magnetization 

 Free energy of the ion-electron system (eV)
  ---------------------------------------------------
  alpha Z        PSCENC =         0.38735469
  Ewald energy   TEWEN  =      3873.62749281
  -Hartree energ DENC   =     -5880.76328550
  -exchange      EXHF   =         0.00000000
  -V(xc)+E(xc)   XCENC  =       154.84185498
  PAW double counting   =     24158.58748393   -24143.69051013
  entropy T*S    EENTRO =        -0.00000000
  eigenvalues    EBANDS =      -642.27282620
  atomic energy  EATOM  =      2392.98528967
  ---------------------------------------------------
  free energy    TOTEN  =       -86.29714575 eV

  energy without entropy =      -86.29714575  energy(sigma->0) =      -86.29714575


--------------------------------------------------------------------------------------------------------




--------------------------------------- Iteration      1(  11)  ---------------------------------------


    POTLOK:  cpu time      1.2263: real time      1.2266
    SETDIJ:  cpu time      0.0007: real time      0.0007
    TRIAL :  cpu time      0.7531: real time      0.7535
    CORREC:  cpu time      1.7534: real time      1.7546
    CHARGE:  cpu time      0.3223: real time      0.3224
    --------------------------------------------
      LOOP:  cpu time      4.0703: real time      4.0887

 eigenvalue-minimisations  :     0
 total energy-change (2. order) :-0.5562664E-01  (-0.1945138E-01)
 number of electron      46.0000000 magnetization 
 augmentation part        0.1752209 magnetization 

 Free energy of the ion-electron system (eV)
  ---------------------------------------------------
  alpha Z        PSCENC =         0.38735469
  Ewald energy   TEWEN  =      3873.62749281
  -Hartree energ DENC   =     -5878.09606754
  -exchange      EXHF   =         0.00000000
  -V(xc)+E(xc)   XCENC  =       154.82038752
  PAW double counting   =     23760.78228159   -23745.91333565
  entropy T*S    EENTRO =        -0.00000000
  eigenvalues    EBANDS =      -644.94617547
  atomic energy  EATOM  =      2392.98528967
  ---------------------------------------------------
  free energy    TOTEN  =       -86.35277240 eV

  energy without entropy =      -86.35277240  energy(sigma->0) =      -86.35277240


--------------------------------------------------------------------------------------------------------




--------------------------------------- Iteration      1(  12)  ---------------------------------------


    POTLOK:  cpu time      1.2162: real time      1.2165
    SETDIJ:  cpu time      0.0009: real time      0.0009
    TRIAL :  cpu time      0.7479: real time      0.7484
    CORREC:  cpu time      1.7420: real time      1.7431
    CHARGE:  cpu time      0.3235: real time      0.3237
    --------------------------------------------
      LOOP:  cpu time      4.0435: real time      4.0629

 eigenvalue-minimisations  :     0
 total energy-change (2. order) :-0.1939707E-01  (-0.6220868E-02)
 number of electron      46.0000000 magnetization 
 augmentation part        0.1750485 magnetization 

 Free energy of the ion-electron system (eV)
  ---------------------------------------------------
  alpha Z        PSCENC =         0.38735469
  Ewald energy   TEWEN  =      3873.62749281
  -Hartree energ DENC   =     -5877.44641177
  -exchange      EXHF   =         0.00000000
  -V(xc)+E(xc)   XCENC  =       154.79216445
  PAW double counting   =     23696.03744624   -23681.18168088
  entropy T*S    EENTRO =        -0.00000000
  eigenvalues    EBANDS =      -645.57382468
  atomic energy  EATOM  =      2392.98528967
  ---------------------------------------------------
  free energy    TOTEN  =       -86.37216947 eV

  energy without entropy =      -86.37216947  energy(sigma->0) =      -86.37216947


--------------------------------------------------------------------------------------------------------




--------------------------------------- Iteration      1(  13)  ---------------------------------------


    POTLOK:  cpu time      1.2051: real time      1.2056
    SETDIJ:  cpu time      0.0007: real time      0.0007
    TRIAL :  cpu time      0.7503: real time      0.7507
    CORREC:  cpu time      1.7187: real time      1.7199
    CHARGE:  cpu time      0.3239: real time      0.3243
    --------------------------------------------
      LOOP:  cpu time      4.0119: real time      4.0318

 eigenvalue-minimisations  :     0
 total energy-change (2. order) :-0.6214512E-02  (-0.2242769E-02)
 number of electron      46.0000000 magnetization 
 augmentation part        0.1751719 magnetization 

 Free energy of the ion-electron system (eV)
  ---------------------------------------------------
  alpha Z        PSCENC =         0.38735469
  Ewald energy   TEWEN  =      3873.62749281
  -Hartree energ DENC   =     -5877.12247199
  -exchange      EXHF   =         0.00000000
  -V(xc)+E(xc)   XCENC  =       154.76584309
  PAW double counting   =     23764.11625998   -23749.25730682
  entropy T*S    EENTRO =        -0.00000000
  eigenvalues    EBANDS =      -645.88084541
  atomic energy  EATOM  =      2392.98528967
  ---------------------------------------------------
  free energy    TOTEN  =       -86.37838398 eV

  energy without entropy =      -86.37838398  energy(sigma->0) =      -86.37838398


--------------------------------------------------------------------------------------------------------




--------------------------------------- Iteration      1(  14)  ---------------------------------------


    POTLOK:  cpu time      1.1805: real time      1.1811
    SETDIJ:  cpu time      0.0007: real time      0.0007
    TRIAL :  cpu time      0.7501: real time      0.7504
    CORREC:  cpu time      1.7125: real time      1.7137
    CHARGE:  cpu time      0.3241: real time      0.3243
    --------------------------------------------
      LOOP:  cpu time      3.9829: real time      3.9999

 eigenvalue-minimisations  :     0
 total energy-change (2. order) :-0.2242468E-02  (-0.8705403E-03)
 number of electron      46.0000000 magnetization 
 augmentation part        0.1753420 magnetization 

 Free energy of the ion-electron system (eV)
  ---------------------------------------------------
  alpha Z        PSCENC =         0.38735469
  Ewald energy   TEWEN  =      3873.62749281
  -Hartree energ DENC   =     -5877.19161527
  -exchange      EXHF   =         0.00000000
  -V(xc)+E(xc)   XCENC  =       154.77230738
  PAW double counting   =     23806.28696246   -23791.42920262
  entropy T*S    EENTRO =        -0.00000000
  eigenvalues    EBANDS =      -645.81921557
  atomic energy  EATOM  =      2392.98528967
  ---------------------------------------------------
  free energy    TOTEN  =       -86.38062645 eV

  energy without entropy =      -86.38062645  energy(sigma->0) =      -86.38062645


--------------------------------------------------------------------------------------------------------




--------------------------------------- Iteration      1(  15)  ---------------------------------------


    POTLOK:  cpu time      1.1794: real time      1.1799
    SETDIJ:  cpu time      0.0009: real time      0.0009
    TRIAL :  cpu time      0.7512: real time      0.7516
    CORREC:  cpu time      1.7060: real time      1.7070
    CHARGE:  cpu time      0.3240: real time      0.3242
    --------------------------------------------
      LOOP:  cpu time      3.9913: real time      3.9935

 eigenvalue-minimisations  :     0
 total energy-change (2. order) :-0.8715608E-03  (-0.3864128E-03)
 number of electron      46.0000000 magnetization 
 augmentation part        0.1755593 magnetization 

 Free energy of the ion-electron system (eV)
  ---------------------------------------------------
  alpha Z        PSCENC =         0.38735469
  Ewald energy   TEWEN  =      3873.62749281
  -Hartree energ DENC   =     -5877.11968037
  -exchange      EXHF   =         0.00000000
  -V(xc)+E(xc)   XCENC  =       154.76777944
  PAW double counting   =     23810.05063758   -23795.19252765
  entropy T*S    EENTRO =        -0.00000000
  eigenvalues    EBANDS =      -645.88784418
  atomic energy  EATOM  =      2392.98528967
  ---------------------------------------------------
  free energy    TOTEN  =       -86.38149801 eV

  energy without entropy =      -86.38149801  energy(sigma->0) =      -86.38149801


--------------------------------------------------------------------------------------------------------




--------------------------------------- Iteration      1(  16)  ---------------------------------------


    POTLOK:  cpu time      1.1696: real time      1.1702
    SETDIJ:  cpu time      0.0007: real time      0.0007
    TRIAL :  cpu time      0.7479: real time      0.7483
    CORREC:  cpu time      1.7023: real time      1.7035
    CHARGE:  cpu time      0.3241: real time      0.3243
    --------------------------------------------
      LOOP:  cpu time      3.9594: real time      3.9806

 eigenvalue-minimisations  :     0
 total energy-change (2. order) :-0.3873851E-03  (-0.1612685E-03)
 number of electron      46.0000000 magnetization 
 augmentation part        0.1757147 magnetization 

 Free energy of the ion-electron system (eV)
  ---------------------------------------------------
  alpha Z        PSCENC =         0.38735469
  Ewald energy   TEWEN  =      3873.62749281
  -Hartree energ DENC   =     -5877.32668051
  -exchange      EXHF   =         0.00000000
  -V(xc)+E(xc)   XCENC  =       154.77199986
  PAW double counting   =     23783.98396076   -23769.12671022
  entropy T*S    EENTRO =        -0.00000000
  eigenvalues    EBANDS =      -645.68459245
  atomic energy  EATOM  =      2392.98528967
  ---------------------------------------------------
  free energy    TOTEN  =       -86.38188540 eV

  energy without entropy =      -86.38188540  energy(sigma->0) =      -86.38188540


--------------------------------------------------------------------------------------------------------




--------------------------------------- Iteration      1(  17)  ---------------------------------------


    POTLOK:  cpu time      1.1630: real time      1.1637
    SETDIJ:  cpu time      0.0007: real time      0.0007
    TRIAL :  cpu time      0.7505: real time      0.7509
    CORREC:  cpu time      1.7029: real time      1.7039
    CHARGE:  cpu time      0.3231: real time      0.3233
    --------------------------------------------
      LOOP:  cpu time      3.9543: real time      3.9727

 eigenvalue-minimisations  :     0
 total energy-change (2. order) :-0.1618295E-03  (-0.6021480E-04)
 number of electron      46.0000000 magnetization 
 augmentation part        0.1757465 magnetization 

 Free energy of the ion-electron system (eV)
  ---------------------------------------------------
  alpha Z        PSCENC =         0.38735469
  Ewald energy   TEWEN  =      3873.62749281
  -Hartree energ DENC   =     -5877.38291941
  -exchange      EXHF   =         0.00000000
  -V(xc)+E(xc)   XCENC  =       154.77446178
  PAW double counting   =     23758.23052123   -23743.37409570
  entropy T*S    EENTRO =        -0.00000000
  eigenvalues    EBANDS =      -645.63015229
  atomic energy  EATOM  =      2392.98528967
  ---------------------------------------------------
  free energy    TOTEN  =       -86.38204723 eV

  energy without entropy =      -86.38204723  energy(sigma->0) =      -86.38204723


--------------------------------------------------------------------------------------------------------




--------------------------------------- Iteration      1(  18)  ---------------------------------------


    POTLOK:  cpu time      1.1613: real time      1.1617
    SETDIJ:  cpu time      0.0007: real time      0.0007
    TRIAL :  cpu time      0.7503: real time      0.7507
    CORREC:  cpu time      1.6964: real time      1.6975
    CHARGE:  cpu time      0.3231: real time      0.3233
    --------------------------------------------
      LOOP:  cpu time      3.9616: real time      3.9637

 eigenvalue-minimisations  :     0
 total energy-change (2. order) :-0.6033299E-04  (-0.2089153E-04)
 number of electron      46.0000000 magnetization 
 augmentation part        0.1757359 magnetization 

 Free energy of the ion-electron system (eV)
  ---------------------------------------------------
  alpha Z        PSCENC =         0.38735469
  Ewald energy   TEWEN  =      3873.62749281
  -Hartree energ DENC   =     -5877.36052836
  -exchange      EXHF   =         0.00000000
  -V(xc)+E(xc)   XCENC  =       154.77437244
  PAW double counting   =     23750.25404240   -23735.39764831
  entropy T*S    EENTRO =        -0.00000000
  eigenvalues    EBANDS =      -645.65248290
  atomic energy  EATOM  =      2392.98528967
  ---------------------------------------------------
  free energy    TOTEN  =       -86.38210756 eV

  energy without entropy =      -86.38210756  energy(sigma->0) =      -86.38210756


--------------------------------------------------------------------------------------------------------




--------------------------------------- Iteration      1(  19)  ---------------------------------------


    POTLOK:  cpu time      1.1632: real time      1.1637
    SETDIJ:  cpu time      0.0009: real time      0.0009
    TRIAL :  cpu time      0.7505: real time      0.7510
    CORREC:  cpu time      1.6995: real time      1.7007
    CHARGE:  cpu time      0.3233: real time      0.3235
    --------------------------------------------
      LOOP:  cpu time      3.9512: real time      3.9694

 eigenvalue-minimisations  :     0
 total energy-change (2. order) :-0.2074429E-04  (-0.7487990E-05)
 number of electron      46.0000000 magnetization 
 augmentation part        0.1756806 magnetization 

 Free energy of the ion-electron system (eV)
  ---------------------------------------------------
  alpha Z        PSCENC =         0.38735469
  Ewald energy   TEWEN  =      3873.62749281
  -Hartree energ DENC   =     -5877.40956080
  -exchange      EXHF   =         0.00000000
  -V(xc)+E(xc)   XCENC  =       154.77656374
  PAW double counting   =     23752.86757787   -23738.01128974
  entropy T*S    EENTRO =        -0.00000000
  eigenvalues    EBANDS =      -645.60555654
  atomic energy  EATOM  =      2392.98528967
  ---------------------------------------------------
  free energy    TOTEN  =       -86.38212831 eV

  energy without entropy =      -86.38212831  energy(sigma->0) =      -86.38212831


--------------------------------------------------------------------------------------------------------




--------------------------------------- Iteration      1(  20)  ---------------------------------------


    POTLOK:  cpu time      1.1618: real time      1.1623
    SETDIJ:  cpu time      0.0007: real time      0.0007
    TRIAL :  cpu time      0.7493: real time      0.7498
    CORREC:  cpu time      1.7011: real time      1.7022
    CHARGE:  cpu time      0.3225: real time      0.3227
    --------------------------------------------
      LOOP:  cpu time      3.9484: real time      3.9677

 eigenvalue-minimisations  :     0
 total energy-change (2. order) :-0.7365339E-05  (-0.3008265E-05)
 number of electron      46.0000000 magnetization 
 augmentation part        0.1756691 magnetization 

 Free energy of the ion-electron system (eV)
  ---------------------------------------------------
  alpha Z        PSCENC =         0.38735469
  Ewald energy   TEWEN  =      3873.62749281
  -Hartree energ DENC   =     -5877.37812021
  -exchange      EXHF   =         0.00000000
  -V(xc)+E(xc)   XCENC  =       154.77557723
  PAW double counting   =     23758.24982091   -23743.39316517
  entropy T*S    EENTRO =        -0.00000000
  eigenvalues    EBANDS =      -645.63638559
  atomic energy  EATOM  =      2392.98528967
  ---------------------------------------------------
  free energy    TOTEN  =       -86.38213567 eV

  energy without entropy =      -86.38213567  energy(sigma->0) =      -86.38213567


--------------------------------------------------------------------------------------------------------




--------------------------------------- Iteration      1(  21)  ---------------------------------------


    POTLOK:  cpu time      1.1595: real time      1.1600
    SETDIJ:  cpu time      0.0007: real time      0.0008
    TRIAL :  cpu time      0.7498: real time      0.7503
    CORREC:  cpu time      1.6978: real time      1.6988
    CHARGE:  cpu time      0.3221: real time      0.3223
    --------------------------------------------
      LOOP:  cpu time      3.9595: real time      3.9621

 eigenvalue-minimisations  :     0
 total energy-change (2. order) :-0.2904850E-05  (-0.1191943E-05)
 number of electron      46.0000000 magnetization 
 augmentation part        0.1756506 magnetization 

 Free energy of the ion-electron system (eV)
  ---------------------------------------------------
  alpha Z        PSCENC =         0.38735469
  Ewald energy   TEWEN  =      3873.62749281
  -Hartree energ DENC   =     -5877.38744236
  -exchange      EXHF   =         0.00000000
  -V(xc)+E(xc)   XCENC  =       154.77623966
  PAW double counting   =     23761.71377037   -23746.85718834
  entropy T*S    EENTRO =        -0.00000000
  eigenvalues    EBANDS =      -645.62765507
  atomic energy  EATOM  =      2392.98528967
  ---------------------------------------------------
  free energy    TOTEN  =       -86.38213858 eV

  energy without entropy =      -86.38213858  energy(sigma->0) =      -86.38213858


--------------------------------------------------------------------------------------------------------




--------------------------------------- Iteration      1(  22)  ---------------------------------------


    POTLOK:  cpu time      1.1617: real time      1.1623
    SETDIJ:  cpu time      0.0007: real time      0.0007
    TRIAL :  cpu time      0.7472: real time      0.7477
    CORREC:  cpu time      1.6979: real time      1.6990
    CHARGE:  cpu time      0.3238: real time      0.3240
    --------------------------------------------
      LOOP:  cpu time      3.9468: real time      3.9662

 eigenvalue-minimisations  :     0
 total energy-change (2. order) :-0.1148303E-05  (-0.4645808E-06)
 number of electron      46.0000000 magnetization 
 augmentation part        0.1756549 magnetization 

 Free energy of the ion-electron system (eV)
  ---------------------------------------------------
  alpha Z        PSCENC =         0.38735469
  Ewald energy   TEWEN  =      3873.62749281
  -Hartree energ DENC   =     -5877.37508775
  -exchange      EXHF   =         0.00000000
  -V(xc)+E(xc)   XCENC  =       154.77565185
  PAW double counting   =     23763.13722946   -23748.28053192
  entropy T*S    EENTRO =        -0.00000000
  eigenvalues    EBANDS =      -645.63953853
  atomic energy  EATOM  =      2392.98528967
  ---------------------------------------------------
  free energy    TOTEN  =       -86.38213972 eV

  energy without entropy =      -86.38213972  energy(sigma->0) =      -86.38213972


--------------------------------------------------------------------------------------------------------




--------------------------------------- Iteration      1(  23)  ---------------------------------------


    POTLOK:  cpu time      1.1626: real time      1.1631
    SETDIJ:  cpu time      0.0009: real time      0.0009
    TRIAL :  cpu time      0.7497: real time      0.7502
    CORREC:  cpu time      1.7006: real time      1.7015
    CHARGE:  cpu time      0.3226: real time      0.3229
    --------------------------------------------
      LOOP:  cpu time      3.9495: real time      3.9691

 eigenvalue-minimisations  :     0
 total energy-change (2. order) :-0.4474714E-06  (-0.1501432E-06)
 number of electron      46.0000000 magnetization 
 augmentation part        0.1756544 magnetization 

 Free energy of the ion-electron system (eV)
  ---------------------------------------------------
  alpha Z        PSCENC =         0.38735469
  Ewald energy   TEWEN  =      3873.62749281
  -Hartree energ DENC   =     -5877.37977350
  -exchange      EXHF   =         0.00000000
  -V(xc)+E(xc)   XCENC  =       154.77587107
  PAW double counting   =     23762.82019877   -23747.96358457
  entropy T*S    EENTRO =        -0.00000000
  eigenvalues    EBANDS =      -645.63498911
  atomic energy  EATOM  =      2392.98528967
  ---------------------------------------------------
  free energy    TOTEN  =       -86.38214017 eV

  energy without entropy =      -86.38214017  energy(sigma->0) =      -86.38214017


--------------------------------------------------------------------------------------------------------




--------------------------------------- Iteration      1(  24)  ---------------------------------------


    POTLOK:  cpu time      1.1604: real time      1.1609
    SETDIJ:  cpu time      0.0007: real time      0.0007
    TRIAL :  cpu time      0.7495: real time      0.7500
    CORREC:  cpu time      1.6999: real time      1.7007
    CHARGE:  cpu time      0.3213: real time      0.3220
    --------------------------------------------
      LOOP:  cpu time      3.9454: real time      3.9650

 eigenvalue-minimisations  :     0
 total energy-change (2. order) :-0.1481494E-06  (-0.5569688E-07)
 number of electron      46.0000000 magnetization 
 augmentation part        0.1756572 magnetization 

 Free energy of the ion-electron system (eV)
  ---------------------------------------------------
  alpha Z        PSCENC =         0.38735469
  Ewald energy   TEWEN  =      3873.62749281
  -Hartree energ DENC   =     -5877.37476227
  -exchange      EXHF   =         0.00000000
  -V(xc)+E(xc)   XCENC  =       154.77564807
  PAW double counting   =     23762.37862804   -23747.52199932
  entropy T*S    EENTRO =        -0.00000000
  eigenvalues    EBANDS =      -645.63979200
  atomic energy  EATOM  =      2392.98528967
  ---------------------------------------------------
  free energy    TOTEN  =       -86.38214032 eV

  energy without entropy =      -86.38214032  energy(sigma->0) =      -86.38214032


--------------------------------------------------------------------------------------------------------




--------------------------------------- Iteration      1(  25)  ---------------------------------------


    POTLOK:  cpu time      1.1563: real time      1.1572
    SETDIJ:  cpu time      0.0007: real time      0.0007
    TRIAL :  cpu time      0.7493: real time      0.7497
    CORREC:  cpu time      1.6973: real time      1.6979
    EDDIAG:  cpu time      0.3363: real time      0.3368
    CHARGE:  cpu time      0.3222: real time      0.3225
    --------------------------------------------
      LOOP:  cpu time      4.2795: real time      4.2952

 eigenvalue-minimisations  :     0
 total energy-change (2. order) :-0.5246329E-07  (-0.2000567E-07)
 number of electron      46.0000000 magnetization 
 augmentation part        0.1756587 magnetization 

 Free energy of the ion-electron system (eV)
  ---------------------------------------------------
  alpha Z        PSCENC =         0.38735469
  Ewald energy   TEWEN  =      3873.62749281
  -Hartree energ DENC   =     -5877.37660399
  -exchange      EXHF   =         0.00000000
  -V(xc)+E(xc)   XCENC  =       154.77569527
  PAW double counting   =     23762.13253621   -23747.27592502
  entropy T*S    EENTRO =        -0.00000000
  eigenvalues    EBANDS =      -645.63798001
  atomic energy  EATOM  =      2392.98528967
  ---------------------------------------------------
  free energy    TOTEN  =       -86.38214037 eV

  energy without entropy =      -86.38214037  energy(sigma->0) =      -86.38214037


--------------------------------------------------------------------------------------------------------


  average scaling for gradient   0.8336


 average (electrostatic) potential at core
  the test charge radii are     0.5770  0.4325  0.5955
  (the norm of the test charge is              1.0000)
       1 -86.7428       2 -86.7430       3 -89.4528       4 -89.4526       5 -48.5410
       6 -48.5416       7 -45.3059       8 -45.5474       9 -45.5476      10 -45.3065
      11-119.4091      12-120.9439      13-119.4085      14-120.9431



 E-fermi :  -6.4917     XC(G=0):  -0.1297     alpha+bet : -0.0583

 Fermi energy:        -6.4916619026

 k-point     1 :       0.0000    0.0000    0.0000
  band No.  band energies     occupation 
      1     -27.8687      2.00000
      2     -27.8255      2.00000
      3     -25.5630      2.00000
      4     -25.5149      2.00000
      5     -20.2007      2.00000
      6     -17.8322      2.00000
      7     -15.6318      2.00000
      8     -14.2937      2.00000
      9     -12.6872      2.00000
     10     -12.5545      2.00000
     11     -11.8861      2.00000
     12     -11.7890      2.00000
     13     -11.3011      2.00000
     14     -11.1607      2.00000
     15      -9.9465      2.00000
     16      -9.9008      2.00000
     17      -9.6665      2.00000
     18      -9.1598      2.00000
     19      -9.0382      2.00000
     20      -7.9437      2.00000
     21      -7.8129      2.00000
     22      -6.6580      2.00000
     23      -6.5833      2.00000
     24      -1.2747      0.00000
     25      -1.1631      0.00000
     26      -0.7079      0.00000
     27      -0.5071      0.00000
     28      -0.1967      0.00000
     29       0.0689      0.00000
     30       0.1598      0.00000
     31       0.2962      0.00000
     32       0.3712      0.00000


--------------------------------------------------------------------------------------------------------


 soft charge-density along one line, spin component           1
         0         1         2         3         4         5         6         7         8         9
 total charge-density along one line

 pseudopotential strength for first ion, spin component:           1
 12.741  21.441   0.001   0.004  -0.000   0.001   0.007  -0.001
 21.441  36.081   0.001   0.007  -0.001   0.002   0.012  -0.001
  0.001   0.001  -3.188   0.000  -0.000  -5.715   0.001  -0.000
  0.004   0.007   0.000  -3.188  -0.000   0.001  -5.715  -0.000
 -0.000  -0.001  -0.000  -0.000  -3.187  -0.000  -0.000  -5.714
  0.001   0.002  -5.715   0.001  -0.000 -10.224   0.001  -0.000
  0.007   0.012   0.001  -5.715  -0.000   0.001 -10.224  -0.001
 -0.001  -0.001  -0.000  -0.000  -5.714  -0.000  -0.001 -10.223
 total augmentation occupancy for first ion, spin component:           1
  7.472  -2.580  -0.167   0.119   0.006   0.059  -0.084  -0.010
 -2.580   0.917   0.058  -0.105  -0.009  -0.016   0.059   0.010
 -0.167   0.058   5.789  -0.027  -0.016  -1.872   0.038   0.010
  0.119  -0.105  -0.027   5.780   0.006   0.038  -1.861  -0.025
  0.006  -0.009  -0.016   0.006   5.701   0.010  -0.025  -1.786
  0.059  -0.016  -1.872   0.038   0.010   0.615  -0.024  -0.006
 -0.084   0.059   0.038  -1.861  -0.025  -0.024   0.609   0.017
 -0.010   0.010   0.010  -0.025  -1.786  -0.006   0.017   0.564


------------------------ aborting loop because EDIFF is reached ----------------------------------------


    FORLOC:  cpu time      0.0693: real time      0.0693
    FORNL :  cpu time      0.0586: real time      0.0587
    FORCOR:  cpu time      1.0417: real time      1.0420
    OFIELD:  cpu time      0.0075: real time      0.0085

  Hirshfeld charges:
            ion         q(e)     
   ------------------------------
      1     C       -0.06959547
      2     C       -0.06958254
      3     C        0.19205214
      4     C        0.19205179
      5     H        0.17184944
      6     H        0.17182761
      7     H        0.05237056
      8     H        0.05858970
      9     H        0.05859429
     10     H        0.05237525
     11     O       -0.24706139
     12     O       -0.15817136
     13     O       -0.24709546
     14     O       -0.15820458

  Atomic reference data used in the T-S method for vdW correction:
            C6at              R0at           ALPHAat      REFSTATE
            (au)              (au)            (au)                
   ---------------------------------------------------------------
   C          46.600          3.590         12.000         0
   H           6.500          3.099          4.500         0
   O          15.600          3.194          5.400         0
 
 Nth order contribution to Edisp (eV)
 Edisp(N=2): -0.24970992540324202     
 Edisp(N=3):   5.4929220472206353E-003
 Edisp(N=4):  -1.9458159653423215E-003
 Edisp(N=5):   1.2574791018189145E-004
 Edisp(N=6):  -3.7510505110097105E-005
 Edisp(N=inf): -0.24607163414383976     

  Tkatchenko/Scheffler method for vdW energy calculation
  ---------------------------------------------------------------------------------------------

  Parameters of vdW forcefield:
            C6ts              R0ts          ALPHAts         R0scs        ALPHAscs        RELVOL 
            (au)              (au)           (au)            (au)          (au)                 
   ---------------------------------------------------------------------------------------------
   C          29.641          3.330          9.570          3.427         10.434          0.798
   C          29.639          3.330          9.570          3.427         10.434          0.798
   C          32.063          3.374          9.954          3.398         10.175          0.829
   C          32.064          3.374          9.954          3.398         10.176          0.829
   H           2.506          2.644          2.794          2.489          2.331          0.621
   H           2.506          2.644          2.794          2.489          2.330          0.621
   H           2.846          2.701          2.978          2.250          1.722          0.662
   H           2.364          2.618          2.714          2.266          1.759          0.603
   H           2.364          2.618          2.714          2.266          1.759          0.603
   H           2.846          2.701          2.978          2.250          1.722          0.662
   O          14.183          3.143          5.149          2.903          4.054          0.953
   O          12.081          3.060          4.752          2.987          4.419          0.880
   O          14.184          3.143          5.149          2.903          4.054          0.954
   O          12.081          3.060          4.752          2.987          4.419          0.880

  vdW correction parametrized for the method pbe       

  IVDW = 202
  VDW_RADIUS =    50.000 A
  VDW_SR =     0.830
  VDW_D =     6.000
  SCSRAD =   120.000 A
  LVDWSCS = T
  LSCSGRAD = T
  LSCALER0 = T
  ITIM = -1
  Edisp (eV):   -0.24607
    FORVDW:  cpu time      7.3259: real time      7.3302

 VOLUME and BASIS-vectors are now :
 -----------------------------------------------------------------------------
  energy-cutoff  :     1000.00
  volume of cell :    15625.00
      direct lattice vectors                 reciprocal lattice vectors
    25.000000000  0.000000000  0.000000000     0.040000000  0.000000000  0.000000000
     0.000000000 25.000000000  0.000000000     0.000000000  0.040000000  0.000000000
     0.000000000  0.000000000 25.000000000     0.000000000  0.000000000  0.040000000

  length of vectors
    25.000000000 25.000000000 25.000000000     0.040000000  0.040000000  0.040000000


 FORCES acting on ions:
    Electron-Ion                     Ewald-Force                    Non-Local-Force
 -----------------------------------------------------------------------------------------------
   0.110E+03 0.726E+02 0.130E+03   -.110E+03 -.731E+02 -.132E+03   -.193E+00 0.648E+00 0.262E+01
   0.161E+03 -.725E+02 0.568E+02   -.163E+03 0.730E+02 -.557E+02   0.239E+01 -.646E+00 -.111E+01
   0.424E+02 -.696E+02 0.301E+02   -.456E+02 0.619E+02 -.311E+02   0.290E+01 0.798E+01 0.113E+01
   0.431E+02 0.696E+02 0.290E+02   -.452E+02 -.619E+02 -.316E+02   0.209E+01 -.797E+01 0.231E+01
   -.972E+02 -.706E+02 0.171E+01   0.105E+03 0.733E+02 -.210E+01   -.793E+01 -.263E+01 0.373E+00
   -.329E+02 0.705E+02 -.915E+02   0.354E+02 -.732E+02 0.993E+02   -.247E+01 0.263E+01 -.755E+01
   -.226E+02 0.418E+02 0.762E+02   0.258E+02 -.438E+02 -.802E+02   -.327E+01 0.206E+01 0.410E+01
   0.823E+02 0.321E+02 0.304E+02   -.873E+02 -.341E+02 -.314E+02   0.506E+01 0.195E+01 0.963E+00
   0.576E+02 -.320E+02 0.662E+02   -.603E+02 0.339E+02 -.706E+02   0.269E+01 -.194E+01 0.439E+01
   0.633E+02 -.418E+02 -.481E+02   -.659E+02 0.438E+02 0.526E+02   0.268E+01 -.206E+01 -.451E+01
   -.378E+03 0.984E+02 0.128E+03   0.422E+03 -.126E+03 -.137E+03   -.441E+02 0.282E+02 0.995E+01
   0.174E+02 -.372E+03 -.356E+02   -.560E+02 0.400E+03 0.453E+02   0.385E+02 -.275E+02 -.973E+01
   -.146E+02 -.986E+02 -.399E+03   0.209E+02 0.127E+03 0.444E+03   -.629E+01 -.282E+02 -.448E+02
   -.275E+02 0.372E+03 0.287E+02   0.229E+02 -.400E+03 -.682E+02   0.453E+01 0.275E+02 0.394E+02
 -----------------------------------------------------------------------------------------------
   0.343E+01 -.932E-02 0.239E+01   -.121E-12 -.114E-12 0.995E-13   -.343E+01 0.932E-02 -.239E+01


 POSITION                                       TOTAL-FORCE (eV/Angst)
 -----------------------------------------------------------------------------------
     11.79605     11.73530     11.76590         0.047922      0.066200      0.093247
     11.79605     13.26260     11.76380         0.112369     -0.065516      0.011804
     13.20035     13.84150     11.73820        -0.073054     -0.067906      0.006622
     12.27005     11.15750     13.08830        -0.019932      0.067059     -0.064427
     14.11975     15.46600     11.93510         0.160618      0.063117     -0.007007
     12.78155      9.53400     13.87910         0.051519     -0.064621      0.157495
     12.43075     11.33220     10.96430        -0.010657      0.030337      0.030276
     10.77975     11.35030     11.58510         0.033082      0.018685      0.014271
     11.26695     13.64630     10.87690         0.024496     -0.019747      0.025733
     11.27085     13.66630     12.64070         0.023642     -0.030964     -0.018858
     14.22025     13.22590     11.50900        -0.062304     -0.038803      0.002670
     13.18995     15.18010     11.98440        -0.201955     -0.060211      0.006660
     12.41625     11.77360     14.12310        -0.019277      0.039060     -0.061273
     12.49785      9.81900     12.99210        -0.066470      0.063310     -0.197211
 -----------------------------------------------------------------------------------
    total drift:                               -0.000410      0.000004     -0.000318


--------------------------------------------------------------------------------------------------------



  FREE ENERGIE OF THE ION-ELECTRON SYSTEM (eV)
  ---------------------------------------------------
  free  energy   TOTEN  =       -86.62821201 eV

  energy  without entropy=      -86.62821201  energy(sigma->0) =      -86.62821201



--------------------------------------------------------------------------------------------------------


    POTLOK:  cpu time      1.1626: real time      1.1630


--------------------------------------------------------------------------------------------------------


 stress matrix after NEB project (eV)
     -0.06911     -0.02754      0.00021
     -0.02754     -0.13639      0.04001
      0.00021      0.04001     -0.06919
  FORCES: max atom, RMS     0.217529    0.126174
  FORCE total and by dimension    0.472101    0.201955
  Stress total and by dimension    0.181336    0.136386
     LOOP+:  cpu time     99.1521: real time     99.5409
    4ORBIT:  cpu time      0.0000: real time      0.0000

 total amount of memory used by VASP MPI-rank0   164276. kBytes
=======================================================================

   base      :      30000. kBytes
   nonl-proj :       7294. kBytes
   fftplans  :      41190. kBytes
   grid      :      82425. kBytes
   one-center:          1. kBytes
   wavefun   :       3366. kBytes

  
  
 General timing and accounting informations for this job:
 ========================================================
  
                  Total CPU time used (sec):      130.948
                            User time (sec):      126.520
                          System time (sec):        4.428
                         Elapsed time (sec):      139.320
  
                   Maximum memory used (kb):      374484.
                   Average memory used (kb):          N/A
  
                          Minor page faults:       184680
                          Major page faults:          760
                 Voluntary context switches:         7990
