 vasp.6.4.1 05Apr23 (build Jun  6 2023 14:46:38) gamma-only                      
 executed on        HPECrayEX_GCC date 2024.08.27  08:34:14
 running  512 mpi-ranks, with    1 threads/rank, on    4 nodes
 distrk:  each k-point on  256 cores,    2 groups
 distr:  one band on NCORE=  32 cores,    8 groups


--------------------------------------------------------------------------------------------------------


 INCAR:
   ALGO = Conjugate
   KPAR = 2
   NCORE = 32
   ISMEAR = 0
   SIGMA = 0.01
   PREC = Accurate
   EDIFF = 1E-7
   ENCUT = 1000
   ISIF = 0
   METAGGA = SCAN
   LUSE_VDW = .TRUE.
   BPARAM = 15.7
   LASPH = .TRUE.
   SYMPREC = 1E-7
   NELM = 200
   LWAVE = .FALSE.
   LCHARG = .FALSE.

 POTCAR:    PAW_PBE C_h 06Feb2004                 
 POTCAR:    PAW_PBE H_h 06Feb2004                 
 POTCAR:    PAW_PBE O_h 06Feb2004                 
 -----------------------------------------------------------------------------
|                                                                             |
|               ----> ADVICE to this user running VASP <----                  |
|                                                                             |
|     You have switched on vdW-DFT.                                           |
|     This routine was written and supplied by Jiri Klimes. We recommend      |
|     that you carefully read and cite the following publications:            |
|       J. Klimes, D.R. Bowler, A. Michelides                                 |
|          J. Phys.: Cond Matt. 22 022201 (2010)                              |
|       J. Klimes, D.R. Bowler, A. Michelides                                 |
|          Phys. Rev. B. 83, 195131 (2011)                                    |
|     and references therein.                                                 |
|                                                                             |
 -----------------------------------------------------------------------------

 POTCAR:    PAW_PBE C_h 06Feb2004                 
   VRHFIN =C: s2p2                                                                                  
   LEXCH  = PE                                                                                      
   EATOM  =   147.1560 eV,   10.8157 Ry                                                             
                                                                                                    
   TITEL  = PAW_PBE C_h 06Feb2004                                                                   
   LULTRA =        F    use ultrasoft PP ?                                                          
   IUNSCR =        1    unscreen: 0-lin 1-nonlin 2-no                                               
   RPACOR =    0.800    partial core radius                                                         
   POMASS =   12.011; ZVAL   =    4.000    mass and valenz                                          
   RCORE  =    1.100    outmost cutoff radius                                                       
   RWIGS  =    1.630; RWIGS  =    0.863    wigner-seitz radius (au A)                               
   ENMAX  =  700.000; ENMIN  =  500.000 eV                                                          
   ICORE  =        2    local potential                                                             
   LCOR   =        T    correct aug charges                                                         
   LPAW   =        T    paw PP                                                                      
   EAUG   =  946.768                                                                                
   DEXC   =    0.000                                                                                
   RMAX   =    1.128    core radius for proj-oper                                                   
   RAUG   =    1.300    factor for augmentation sphere                                              
   RDEP   =    1.162    radius for radial grids                                                     
   RDEPT  =    1.088    core radius for aug-charge                                                  
                                                                                                    
   Atomic configuration                                                                             
    4 entries                                                                                       
     n  l   j            E        occ.                                                              
     1  0  0.50      -273.3789   2.0000                                                             
     2  0  0.50       -13.7508   2.0000                                                             
     2  1  0.50        -5.2854   2.0000                                                             
     3  2  1.50        -5.4423   0.0000                                                             
   Description                                                                                      
     l       E           TYP  RCUT    TYP  RCUT                                                     
     0    -13.7508458     23  1.100                                                                 
     0     -8.2022199     23  1.100                                                                 
     1     -5.2854383     23  1.100                                                                 
     1      1.1560700     23  1.100                                                                 
     2     -5.4423304      7  1.100                                                                 
  local pseudopotential read in
  partial core-charges read in
  partial kinetic energy density read in
  atomic valenz-charges read in
  non local Contribution for L=           0  read in
    real space projection operators read in
  non local Contribution for L=           0  read in
    real space projection operators read in
  non local Contribution for L=           1  read in
    real space projection operators read in
  non local Contribution for L=           1  read in
    real space projection operators read in
    PAW grid and wavefunctions read in

   number of l-projection  operators is LMAX  =           4
   number of lm-projection operators is LMMAX =           8

 POTCAR:    PAW_PBE H_h 06Feb2004                 
   VRHFIN =H: ultrasoft test                                                                        
   LEXCH  = PE                                                                                      
   EATOM  =    12.4884 eV,    0.9179 Ry                                                             
                                                                                                    
   TITEL  = PAW_PBE H_h 06Feb2004                                                                   
   LULTRA =        F    use ultrasoft PP ?                                                          
   IUNSCR =        0    unscreen: 0-lin 1-nonlin 2-no                                               
   RPACOR =    0.000    partial core radius                                                         
   POMASS =    1.000; ZVAL   =    1.000    mass and valenz                                          
   RCORE  =    0.800    outmost cutoff radius                                                       
   RWIGS  =    0.700; RWIGS  =    0.370    wigner-seitz radius (au A)                               
   ENMAX  =  700.000; ENMIN  =  350.000 eV                                                          
   RCLOC  =    0.701    cutoff for local pot                                                        
   LCOR   =        T    correct aug charges                                                         
   LPAW   =        T    paw PP                                                                      
   EAUG   = 1000.000                                                                                
   RMAX   =    0.819    core radius for proj-oper                                                   
   RAUG   =    1.000    factor for augmentation sphere                                              
   RDEP   =    0.817    radius for radial grids                                                     
   RDEPT  =    0.817    core radius for aug-charge                                                  
                                                                                                    
   Atomic configuration                                                                             
    2 entries                                                                                       
     n  l   j            E        occ.                                                              
     1  0  0.50        -6.4927   1.0000                                                             
     2  1  0.50        -3.4015   0.0000                                                             
   Description                                                                                      
     l       E           TYP  RCUT    TYP  RCUT                                                     
     0     -6.4927493     23  0.800                                                                 
     0      6.8029130     23  0.800                                                                 
     1     -6.8029130     23  0.800                                                                 
  local pseudopotential read in
  atomic valenz-charges read in
  non local Contribution for L=           0  read in
    real space projection operators read in
  non local Contribution for L=           0  read in
    real space projection operators read in
  non local Contribution for L=           1  read in
    real space projection operators read in
    PAW grid and wavefunctions read in

   number of l-projection  operators is LMAX  =           3
   number of lm-projection operators is LMMAX =           5

 POTCAR:    PAW_PBE O_h 06Feb2004                 
   VRHFIN =O: s2p4                                                                                  
   LEXCH  = PE                                                                                      
   EATOM  =   432.3788 eV,   31.7789 Ry                                                             
                                                                                                    
   TITEL  = PAW_PBE O_h 06Feb2004                                                                   
   LULTRA =        F    use ultrasoft PP ?                                                          
   IUNSCR =        1    unscreen: 0-lin 1-nonlin 2-no                                               
   RPACOR =    0.800    partial core radius                                                         
   POMASS =   16.000; ZVAL   =    6.000    mass and valenz                                          
   RCORE  =    1.100    outmost cutoff radius                                                       
   RWIGS  =    1.400; RWIGS  =    0.741    wigner-seitz radius (au A)                               
   ENMAX  =  700.000; ENMIN  =  500.000 eV                                                          
   ICORE  =        2    local potential                                                             
   LCOR   =        T    correct aug charges                                                         
   LPAW   =        T    paw PP                                                                      
   EAUG   =  888.804                                                                                
   DEXC   =    0.000                                                                                
   RMAX   =    1.128    core radius for proj-oper                                                   
   RAUG   =    1.300    factor for augmentation sphere                                              
   RDEP   =    1.125    radius for radial grids                                                     
   RDEPT  =    1.088    core radius for aug-charge                                                  
                                                                                                    
   Atomic configuration                                                                             
    4 entries                                                                                       
     n  l   j            E        occ.                                                              
     1  0  0.50      -514.6923   2.0000                                                             
     2  0  0.50       -23.9615   2.0000                                                             
     2  1  0.50        -9.0305   4.0000                                                             
     3  2  1.50        -9.5241   0.0000                                                             
   Description                                                                                      
     l       E           TYP  RCUT    TYP  RCUT                                                     
     0    -23.9615319     23  1.100                                                                 
     0    -25.3221145     23  1.100                                                                 
     1     -9.0304911     23  1.100                                                                 
     1     -5.4802209     23  1.100                                                                 
     2     -9.5240782      7  1.100                                                                 
  local pseudopotential read in
  partial core-charges read in
  partial kinetic energy density read in
  atomic valenz-charges read in
  non local Contribution for L=           0  read in
    real space projection operators read in
  non local Contribution for L=           0  read in
    real space projection operators read in
  non local Contribution for L=           1  read in
    real space projection operators read in
  non local Contribution for L=           1  read in
    real space projection operators read in
    PAW grid and wavefunctions read in

   number of l-projection  operators is LMAX  =           4
   number of lm-projection operators is LMMAX =           8

  PAW_PBE C_h 06Feb2004                 :
 energy of atom  1       EATOM= -147.1560
 kinetic energy error for atom=    0.0031 (will be added to EATOM!!)
  PAW_PBE H_h 06Feb2004                 :
 energy of atom  2       EATOM=  -12.4884
 kinetic energy error for atom=    0.0006 (will be added to EATOM!!)
  PAW_PBE O_h 06Feb2004                 :
 energy of atom  3       EATOM= -432.3788
 kinetic energy error for atom=    0.0171 (will be added to EATOM!!)


 POSCAR:  C  H  O
  positions in cartesian coordinates
  No initial velocities read in

 METAGGA = SCAN                                        LMAXTAU =  6    LMIXTAU =  F

 exchange correlation table for  LEXCH =        8
   RHO(1)=    0.500       N(1)  =     2000
   RHO(2)=  100.500       N(2)  =     4000

 VTST: version 4.1, (05/19/21)

 CHAIN: initializing optimizer
 
 OPT: Using VASP Dynamics algorithm
 CHAIN: Read ICHAIN            0

 POSCAR:  C  H  O
  positions in cartesian coordinates
  No initial velocities read in



--------------------------------------------------------------------------------------------------------


 ion  position               nearest neighbor table
   1  0.472  0.469  0.471-   7 1.10   8 1.10   4 1.52   2 1.53
   2  0.472  0.531  0.471-  10 1.10   9 1.10   3 1.52   1 1.53
   3  0.528  0.554  0.470-  11 1.21  12 1.36   2 1.52
   4  0.491  0.446  0.524-  13 1.21  14 1.36   1 1.52
   5  0.565  0.619  0.477-  12 0.97
   6  0.511  0.381  0.555-  14 0.97
   7  0.497  0.453  0.439-   1 1.10
   8  0.431  0.454  0.463-   1 1.10
   9  0.451  0.546  0.435-   2 1.10
  10  0.451  0.547  0.506-   2 1.10
  11  0.569  0.529  0.460-   3 1.21
  12  0.528  0.607  0.479-   5 0.97   3 1.36
  13  0.497  0.471  0.565-   4 1.21
  14  0.500  0.393  0.520-   6 0.97   4 1.36

  LATTYP: Found a simple cubic cell.
 ALAT       =    25.0000000000
  
  Lattice vectors:
  
 A1 = (  25.0000000000,   0.0000000000,   0.0000000000)
 A2 = (   0.0000000000,  25.0000000000,   0.0000000000)
 A3 = (   0.0000000000,   0.0000000000,  25.0000000000)


Analysis of symmetry for initial positions (statically):
=====================================================================
 Subroutine PRICEL returns:
 Original cell was already a primitive cell.
 

 Routine SETGRP: Setting up the symmetry group for a 
 simple cubic supercell.


 Subroutine GETGRP returns: Found  1 space group operations
 (whereof  1 operations were pure point group operations)
 out of a pool of 48 trial point group operations.


The static configuration has the point symmetry C_1 .


Analysis of symmetry for dynamics (positions and initial velocities):
=====================================================================
 Subroutine PRICEL returns:
 Original cell was already a primitive cell.
 

 Routine SETGRP: Setting up the symmetry group for a 
 simple cubic supercell.


 Subroutine GETGRP returns: Found  1 space group operations
 (whereof  1 operations were pure point group operations)
 out of a pool of 48 trial point group operations.


The dynamic configuration has the point symmetry C_1 .


 Subroutine INISYM returns: Found  1 space group operations
 (whereof  1 operations are pure point group operations),
 and found     1 'primitive' translations


----------------------------------------------------------------------------------------

                                     Primitive cell                                     

  volume of cell :   15625.0000

  direct lattice vectors                    reciprocal lattice vectors
    25.000000000  0.000000000  0.000000000     0.040000000  0.000000000  0.000000000
     0.000000000 25.000000000  0.000000000     0.000000000  0.040000000  0.000000000
     0.000000000  0.000000000 25.000000000     0.000000000  0.000000000  0.040000000

  length of vectors
    25.000000000 25.000000000 25.000000000     0.040000000  0.040000000  0.040000000

  position of ions in fractional coordinates (direct lattice)
     0.471842000  0.469412000  0.470636000
     0.471842000  0.530504000  0.470552000
     0.528014000  0.553660000  0.469528000
     0.490802000  0.446300000  0.523532000
     0.564790000  0.618640000  0.477404000
     0.511262000  0.381360000  0.555164000
     0.497230000  0.453288000  0.438572000
     0.431190000  0.454012000  0.463404000
     0.450678000  0.545852000  0.435076000
     0.450834000  0.546652000  0.505628000
     0.568810000  0.529036000  0.460360000
     0.527598000  0.607204000  0.479376000
     0.496650000  0.470944000  0.564924000
     0.499914000  0.392760000  0.519684000

  ion indices of the primitive-cell ions
   primitive index   ion index
                 1           1
                 2           2
                 3           3
                 4           4
                 5           5
                 6           6
                 7           7
                 8           8
                 9           9
                10          10
                11          11
                12          12
                13          13
                14          14

----------------------------------------------------------------------------------------



 KPOINTS: auto                                    

Automatic generation of k-mesh.
 Grid dimensions read from file:
 generate k-points for:    1    1    1

 Generating k-lattice:

  Cartesian coordinates                     Fractional coordinates (reciprocal lattice)
     0.040000000  0.000000000  0.000000000     1.000000000  0.000000000  0.000000000
     0.000000000  0.040000000  0.000000000     0.000000000  1.000000000  0.000000000
     0.000000000  0.000000000  0.040000000     0.000000000  0.000000000  1.000000000

  Length of vectors
     0.040000000  0.040000000  0.040000000

  Shift w.r.t. Gamma in fractional coordinates (k-lattice)
     0.000000000  0.000000000  0.000000000

 
 Subroutine IBZKPT returns following result:
 ===========================================
 
 Found      1 irreducible k-points:
 
 Following reciprocal coordinates:
            Coordinates               Weight
  0.000000  0.000000  0.000000      1.000000
 
 Following cartesian coordinates:
            Coordinates               Weight
  0.000000  0.000000  0.000000      1.000000
 


--------------------------------------------------------------------------------------------------------




 Dimension of arrays:
   k-points           NKPTS =      1   k-points in BZ     NKDIM =      1   number of bands    NBANDS=     32
   number of dos      NEDOS =    301   number of ions     NIONS =     14
   non local maximal  LDIM  =      4   non local SUM 2l+1 LMDIM =      8
   total plane-waves  NPLWV = ******
   max r-space proj   IRMAX =      1   max aug-charges    IRDMAX=   9386
   dimension x,y,z NGX =   270 NGY =  270 NGZ =  270
   dimension x,y,z NGXF=   540 NGYF=  540 NGZF=  540
   support grid    NGXF=   540 NGYF=  540 NGZF=  540
   ions per type =               4   6   4
   NGX,Y,Z   is equivalent  to a cutoff of  17.95, 17.95, 17.95 a.u.
   NGXF,Y,Z  is equivalent  to a cutoff of  35.91, 35.91, 35.91 a.u.

 SYSTEM =  unknown system                          
 POSCAR =   C  H  O                                

 Startparameter for this run:
   NWRITE =      2    write-flag & timer
   PREC   = accura    normal or accurate (medium, high low for compatibility)
   ISTART =      0    job   : 0-new  1-cont  2-samecut
   ICHARG =      2    charge: 1-file 2-atom 10-const
   ISPIN  =      1    spin polarized calculation?
   LNONCOLLINEAR =      F non collinear calculations
   LSORBIT =      F    spin-orbit coupling
   INIWAV =      1    electr: 0-lowe 1-rand  2-diag
   LASPH  =      T    aspherical Exc in radial PAW
 Electronic Relaxation 1
   ENCUT  = 1000.0 eV  73.50 Ry    8.57 a.u.  64.46 64.46 64.46*2*pi/ulx,y,z
   ENINI  = 1000.0     initial cutoff
   ENAUG  = 1000.0 eV  augmentation charge cutoff
   NELM   =    200;   NELMIN=  2; NELMDL= -5     # of ELM steps 
   EDIFF  = 0.1E-06   stopping-criterion for ELM
   LREAL  =      F    real-space projection
   NLSPLINE    = F    spline interpolate recip. space projectors
   LCOMPAT=      F    compatible to vasp.4.4
   GGA_COMPAT  = T    GGA compatible to vasp.4.4-vasp.4.6
   LMAXPAW     = -100 max onsite density
   LMAXMIX     =    2 max onsite mixed and CHGCAR
   VOSKOWN=      0    Vosko Wilk Nusair interpolation
   ROPT   =    0.00000   0.00000   0.00000
 Ionic relaxation
   EDIFFG = 0.1E-05   stopping-criterion for IOM
   NSW    =      0    number of steps for IOM
   NBLOCK =      1;   KBLOCK =      1    inner block; outer block 
   IBRION =     -1    ionic relax: 0-MD 1-quasi-New 2-CG
   NFREE  =      0    steps in history (QN), initial steepest desc. (CG)
   ISIF   =      0    stress and relaxation
   IWAVPR =     10    prediction:  0-non 1-charg 2-wave 3-comb
   ISYM   =      2    0-nonsym 1-usesym 2-fastsym
   LCORR  =      T    Harris-Foulkes like correction to forces

   POTIM  = 0.5000    time-step for ionic-motion
   TEIN   =    0.0    initial temperature
   TEBEG  =    0.0;   TEEND  =   0.0 temperature during run
   SMASS  =  -3.00    Nose mass-parameter (am)
   estimated Nose-frequenzy (Omega)   =  0.10E-29 period in steps = 0.13E+47 mass=  -0.143E-25a.u.
   SCALEE = 1.0000    scale energy and forces
   NPACO  =    256;   APACO  = 10.0  distance and # of slots for P.C.
   PSTRESS=    0.0 pullay stress

  Mass of Ions in am
   POMASS =  12.01  1.00 16.00
  Ionic Valenz
   ZVAL   =   4.00  1.00  6.00
  Atomic Wigner-Seitz radii
   RWIGS  =  -1.00 -1.00 -1.00
  virtual crystal weights 
   VCA    =   1.00  1.00  1.00
   NELECT =      46.0000    total number of electrons
   NUPDOWN=      -1.0000    fix difference up-down

 DOS related values:
   EMIN   =  10.00;   EMAX   =-10.00  energy-range for DOS
   EFERMI =   0.00;   METHOD = LEGACY      
   ISMEAR =     0;   SIGMA  =   0.01  broadening in eV -4-tet -1-fermi 0-gaus

 Electronic relaxation 2 (details)
   IALGO  =     58    algorithm
   LDIAG  =      T    sub-space diagonalisation (order eigenvalues)
   LSUBROT=      F    optimize rotation matrix (better conditioning)
   TURBO    =      0    0=normal 1=particle mesh
   IRESTART =      0    0=no restart 2=restart with 2 vectors
   NREBOOT  =      0    no. of reboots
   NMIN     =      0    reboot dimension
   EREF     =   0.00    reference energy to select bands
   IMIX   =      4    mixing-type and parameters
     AMIX     =   0.40;   BMIX     =  1.00
     AMIX_MAG =   1.60;   BMIX_MAG =  1.00
     AMIN     =   0.10
     WC   =   100.;   INIMIX=   1;  MIXPRE=   1;  MAXMIX= -45

 Intra band minimization:
   WEIMIN = 0.0000     energy-eigenvalue tresh-hold
   EBREAK =  0.78E-09  absolut break condition
   DEPER  =   0.30     relativ break condition  

   TIME   =   0.40     timestep for ELM

  volume/ion in A,a.u.               =    1116.07      7531.62
  Fermi-wavevector in a.u.,A,eV,Ry     =   0.234632  0.443390  0.749031  0.055052
  Thomas-Fermi vector in A             =   1.032875

 Write flags
   LWAVE        =      F    write WAVECAR
   LDOWNSAMPLE  =      F    k-point downsampling of WAVECAR
   LCHARG       =      F    write CHGCAR
   LVTOT        =      F    write LOCPOT, total local potential
   LVHAR        =      F    write LOCPOT, Hartree potential only
   LELF         =      F    write electronic localiz. function (ELF)
   LORBIT       =      0    0 simple, 1 ext, 2 COOP (PROOUT), +10 PAW based schemes


 Dipole corrections
   LMONO  =      F    monopole corrections only (constant potential shift)
   LDIPOL =      F    correct potential (dipole corrections)
   IDIPOL =      0    1-x, 2-y, 3-z, 4-all directions 
   EPSILON=  1.0000000 bulk dielectric constant

 Exchange correlation treatment:
   GGA     =    --    GGA type
   LEXCH   =     8    internal setting for exchange type
   LIBXC   =     F    Libxc                    
   VOSKOWN =     0    Vosko Wilk Nusair interpolation
   LHFCALC =     F    Hartree Fock is set to
   LHFONE  =     F    Hartree Fock one center treatment
   AEXX    =    0.0000 exact exchange contribution

 vdW DFT:
   LUSE_VDW   =     T    switch on vdW DFT
   IVDW_NL    =     2    kernel type
   LSPIN_VDW  =     F    use spin-polarized vdW DFT
   Zab_VDW    =-.8491    correlation parameter
   PARAM1     =0.1234
   PARAM2     =1.0000
   PARAM3     =0.0000
   -- rVV10 --
   BPARAM     =15.7000
   CPARAM     = 0.0093

 Linear response parameters
   LEPSILON=     F    determine dielectric tensor
   LRPA    =     F    only Hartree local field effects (RPA)
   LNABLA  =     F    use nabla operator in PAW spheres
   LVEL    =     F    velocity operator in full k-point grid
   CSHIFT  =0.1000    complex shift for real part using Kramers Kronig
   OMEGAMAX=  -1.0    maximum frequency
   DEG_THRESHOLD= 0.2000000E-02 threshold for treating states as degnerate
   RTIME   =   -0.100 relaxation time in fs
  (WPLASMAI=    0.000 imaginary part of plasma frequency in eV, 0.658/RTIME)
   DFIELD  = 0.0000000 0.0000000 0.0000000 field for delta impulse in time

  Optional k-point grid parameters
   LKPOINTS_OPT  =     F    use optional k-point grid
   KPOINTS_OPT_MODE=     1    mode for optional k-point grid

 Orbital magnetization related:
   ORBITALMAG=     F  switch on orbital magnetization
   LCHIMAG   =     F  perturbation theory with respect to B field
   DQ        =  0.001000  dq finite difference perturbation B field
   LLRAUG    =     F  two centre corrections for induced B field
   LBONE     =     F  B-component reconstruction in AE one-centre
   LVGVCALC  =     T  calculate vGv susceptibility
   LVGVAPPL  =     F  apply vGv susceptibility instead of pGv for G=0

 Random number generation:
   RANDOM_GENERATOR = DEFAULT
   PCG_SEED         = not used


--------------------------------------------------------------------------------------------------------


 Static calculation
 charge density and potential will be updated during run
 non-spin polarized calculation
 Conjugate gradient for all bands (Freysoldt, et al. PRB 79, 241103 (2009))
 preconditioned conjugated gradient                                        
 perform sub-space diagonalisation
    before iterative eigenvector-optimisation
 modified Broyden-mixing scheme, WC =      100.0
 initial mixing is a Kerker type mixing with AMIX =  0.4000 and BMIX =      1.0000
 Hartree-type preconditioning will be used
 using additional bands            9
 reciprocal scheme for non local part
 use partial core corrections
 no Harris-corrections to forces 
 use gradient corrections 
 use of overlap-Matrix (Vanderbilt PP)
 Gauss-broadening in eV      SIGMA  =   0.01


--------------------------------------------------------------------------------------------------------


  energy-cutoff  :     1000.00
  volume of cell :    15625.00
      direct lattice vectors                 reciprocal lattice vectors
    25.000000000  0.000000000  0.000000000     0.040000000  0.000000000  0.000000000
     0.000000000 25.000000000  0.000000000     0.000000000  0.040000000  0.000000000
     0.000000000  0.000000000 25.000000000     0.000000000  0.000000000  0.040000000

  length of vectors
    25.000000000 25.000000000 25.000000000     0.040000000  0.040000000  0.040000000



 k-points in units of 2pi/SCALE and weight: auto                                    
   0.00000000  0.00000000  0.00000000       1.000

 k-points in reciprocal lattice and weights: auto                                    
   0.00000000  0.00000000  0.00000000       1.000

 position of ions in fractional coordinates (direct lattice) 
   0.47184200  0.46941200  0.47063600
   0.47184200  0.53050400  0.47055200
   0.52801400  0.55366000  0.46952800
   0.49080200  0.44630000  0.52353200
   0.56479000  0.61864000  0.47740400
   0.51126200  0.38136000  0.55516400
   0.49723000  0.45328800  0.43857200
   0.43119000  0.45401200  0.46340400
   0.45067800  0.54585200  0.43507600
   0.45083400  0.54665200  0.50562800
   0.56881000  0.52903600  0.46036000
   0.52759800  0.60720400  0.47937600
   0.49665000  0.47094400  0.56492400
   0.49991400  0.39276000  0.51968400

 position of ions in cartesian coordinates  (Angst):
  11.79605000 11.73530000 11.76590000
  11.79605000 13.26260000 11.76380000
  13.20035000 13.84150000 11.73820000
  12.27005000 11.15750000 13.08830000
  14.11975000 15.46600000 11.93510000
  12.78155000  9.53400000 13.87910000
  12.43075000 11.33220000 10.96430000
  10.77975000 11.35030000 11.58510000
  11.26695000 13.64630000 10.87690000
  11.27085000 13.66630000 12.64070000
  14.22025000 13.22590000 11.50900000
  13.18995000 15.18010000 11.98440000
  12.41625000 11.77360000 14.12310000
  12.49785000  9.81900000 12.99210000



--------------------------------------------------------------------------------------------------------


 use parallel FFT for orbitals z direction half grid
 k-point   1 :   0.0000 0.0000 0.0000  plane waves:  561155

 maximum and minimum number of plane-waves per node :     17542    17530

 maximum number of plane-waves:    561155
 maximum index in each direction: 
   IXMAX=   64   IYMAX=   64   IZMAX=   64
   IXMIN=  -64   IYMIN=  -64   IZMIN=    0


 parallel 3D FFT for wavefunctions:
    minimum data exchange during FFTs selected (reduces bandwidth)
 parallel 3D FFT for charge:
    minimum data exchange during FFTs selected (reduces bandwidth)


 total amount of memory used by VASP MPI-rank0   192295. kBytes
=======================================================================

   base      :      30000. kBytes
   nonl-proj :       7294. kBytes
   fftplans  :      41190. kBytes
   grid      :     110444. kBytes
   one-center:          1. kBytes
   wavefun   :       3366. kBytes

     INWAV:  cpu time      0.0000: real time      0.0000
 Broyden mixing: mesh for mixing (old mesh)
   NGX =129   NGY =129   NGZ =129
  (NGX  =540   NGY  =540   NGZ  =540)
  gives a total of ****** points

 initial charge density was supplied:
 charge density of overlapping atoms calculated
 number of electron      46.0000000 magnetization 
 keeping initial charge density in first step


--------------------------------------------------------------------------------------------------------


 Maximum index for augmentation-charges          482 (set IRDMAX)


--------------------------------------------------------------------------------------------------------


 First call to EWALD:  gamma=   0.071
 Maximum number of real-space cells 3x 3x 3
 Maximum number of reciprocal cells 3x 3x 3

    FEWALD:  cpu time      0.0035: real time      0.0036


--------------------------------------- Ionic step        1  -------------------------------------------




--------------------------------------- Iteration      1(   1)  ---------------------------------------


    POTLOK:  cpu time     25.2396: real time     25.2472
    SETDIJ:  cpu time      0.1236: real time      0.1242
    TRIAL :  cpu time      6.0897: real time      6.1015
    CORREC:  cpu time      0.0010: real time      0.0010
    --------------------------------------------
      LOOP:  cpu time     31.4692: real time     31.4896

 eigenvalue-minimisations  :    80
 total energy-change (2. order) : 0.4921616E+03  (-0.1066228E+04)
 number of electron      46.0000000 magnetization 
 augmentation part       46.0000000 magnetization 

 Free energy of the ion-electron system (eV)
  ---------------------------------------------------
  alpha Z        PSCENC =         0.38735469
  Ewald energy   TEWEN  =      3873.62749281
  -Hartree energ DENC   =     -5698.90253085
  -exchange      EXHF   =         0.00000000
  -V(xc)+E(xc)   XCENC  =       186.13863704
  PAW double counting   =      1809.71102259    -1812.63465872
  entropy T*S    EENTRO =        -0.00000000
  eigenvalues    EBANDS =      -259.15097733
  atomic energy  EATOM  =      2392.98528967
  ---------------------------------------------------
  free energy    TOTEN  =       492.16162989 eV

  energy without entropy =      492.16162989  energy(sigma->0) =      492.16162989


--------------------------------------------------------------------------------------------------------




--------------------------------------- Iteration      1(   2)  ---------------------------------------


    TRIAL :  cpu time      7.4224: real time      7.4258
    CORREC:  cpu time      0.0005: real time      0.0005
    --------------------------------------------
      LOOP:  cpu time      7.4418: real time      7.4560

 eigenvalue-minimisations  :   112
 total energy-change (2. order) :-0.2262276E+03  (-0.2221759E+03)
 number of electron      46.0000000 magnetization 
 augmentation part       46.0000000 magnetization 

 Free energy of the ion-electron system (eV)
  ---------------------------------------------------
  alpha Z        PSCENC =         0.38735469
  Ewald energy   TEWEN  =      3873.62749281
  -Hartree energ DENC   =     -5698.90253085
  -exchange      EXHF   =         0.00000000
  -V(xc)+E(xc)   XCENC  =       186.13863704
  PAW double counting   =      1809.71102259    -1812.63465872
  entropy T*S    EENTRO =        -0.00010697
  eigenvalues    EBANDS =      -485.37850030
  atomic energy  EATOM  =      2392.98528967
  ---------------------------------------------------
  free energy    TOTEN  =       265.93399995 eV

  energy without entropy =      265.93410692  energy(sigma->0) =      265.93405344


--------------------------------------------------------------------------------------------------------




--------------------------------------- Iteration      1(   3)  ---------------------------------------


    TRIAL :  cpu time      7.0767: real time      7.0809
    CORREC:  cpu time      0.0001: real time      0.0001
    --------------------------------------------
      LOOP:  cpu time      7.0922: real time      7.1118

 eigenvalue-minimisations  :   104
 total energy-change (2. order) :-0.2332731E+03  (-0.2258432E+03)
 number of electron      46.0000000 magnetization 
 augmentation part       46.0000000 magnetization 

 Free energy of the ion-electron system (eV)
  ---------------------------------------------------
  alpha Z        PSCENC =         0.38735469
  Ewald energy   TEWEN  =      3873.62749281
  -Hartree energ DENC   =     -5698.90253085
  -exchange      EXHF   =         0.00000000
  -V(xc)+E(xc)   XCENC  =       186.13863704
  PAW double counting   =      1809.71102259    -1812.63465872
  entropy T*S    EENTRO =        -0.00000000
  eigenvalues    EBANDS =      -718.65169537
  atomic energy  EATOM  =      2392.98528967
  ---------------------------------------------------
  free energy    TOTEN  =        32.66091185 eV

  energy without entropy =       32.66091185  energy(sigma->0) =       32.66091185


--------------------------------------------------------------------------------------------------------




--------------------------------------- Iteration      1(   4)  ---------------------------------------


    TRIAL :  cpu time      6.7276: real time      6.7315
    CORREC:  cpu time      0.0001: real time      0.0001
    --------------------------------------------
      LOOP:  cpu time      6.7596: real time      6.7644

 eigenvalue-minimisations  :    96
 total energy-change (2. order) :-0.1284625E+03  (-0.1275287E+03)
 number of electron      46.0000000 magnetization 
 augmentation part       46.0000000 magnetization 

 Free energy of the ion-electron system (eV)
  ---------------------------------------------------
  alpha Z        PSCENC =         0.38735469
  Ewald energy   TEWEN  =      3873.62749281
  -Hartree energ DENC   =     -5698.90253085
  -exchange      EXHF   =         0.00000000
  -V(xc)+E(xc)   XCENC  =       186.13863704
  PAW double counting   =      1809.71102259    -1812.63465872
  entropy T*S    EENTRO =        -0.00000000
  eigenvalues    EBANDS =      -847.11421560
  atomic energy  EATOM  =      2392.98528967
  ---------------------------------------------------
  free energy    TOTEN  =       -95.80160838 eV

  energy without entropy =      -95.80160838  energy(sigma->0) =      -95.80160838


--------------------------------------------------------------------------------------------------------




--------------------------------------- Iteration      1(   5)  ---------------------------------------


    TRIAL :  cpu time      6.0318: real time      6.0349
    CORREC:  cpu time      0.0001: real time      0.0001
    CHARGE:  cpu time      1.0709: real time      1.0732
    --------------------------------------------
      LOOP:  cpu time      7.1178: real time      7.1382

 eigenvalue-minimisations  :    80
 total energy-change (2. order) :-0.2045447E+02  (-0.2034257E+02)
 number of electron      46.0000000 magnetization 
 augmentation part        0.2076850 magnetization 

 Free energy of the ion-electron system (eV)
  ---------------------------------------------------
  alpha Z        PSCENC =         0.38735469
  Ewald energy   TEWEN  =      3873.62749281
  -Hartree energ DENC   =     -5698.90253085
  -exchange      EXHF   =         0.00000000
  -V(xc)+E(xc)   XCENC  =       186.13863704
  PAW double counting   =      1809.71102259    -1812.63465872
  entropy T*S    EENTRO =        -0.00000000
  eigenvalues    EBANDS =      -867.56868448
  atomic energy  EATOM  =      2392.98528967
  ---------------------------------------------------
  free energy    TOTEN  =      -116.25607726 eV

  energy without entropy =     -116.25607726  energy(sigma->0) =     -116.25607726


--------------------------------------------------------------------------------------------------------




--------------------------------------- Iteration      1(   6)  ---------------------------------------


    POTLOK:  cpu time     25.0747: real time     25.0826
    SETDIJ:  cpu time      0.1880: real time      0.1880
    TRIAL :  cpu time      5.1688: real time      5.1726
    CORREC:  cpu time     27.7004: real time     27.7101
    CHARGE:  cpu time      1.0433: real time      1.0439
    --------------------------------------------
      LOOP:  cpu time     59.1886: real time     59.2298

 eigenvalue-minimisations  :     0
 total energy-change (2. order) : 0.2909247E+02  (-0.5522819E+01)
 number of electron      46.0000000 magnetization 
 augmentation part        0.1668969 magnetization 

 Free energy of the ion-electron system (eV)
  ---------------------------------------------------
  alpha Z        PSCENC =         0.38735469
  Ewald energy   TEWEN  =      3873.62749281
  -Hartree energ DENC   =     -6031.88606513
  -exchange      EXHF   =         0.00000000
  -V(xc)+E(xc)   XCENC  =       209.08800831
  PAW double counting   =     27179.70048834   -27184.89088390
  entropy T*S    EENTRO =        -0.00000000
  eigenvalues    EBANDS =      -526.17529153
  atomic energy  EATOM  =      2392.98528967
  ---------------------------------------------------
  free energy    TOTEN  =       -87.16360676 eV

  energy without entropy =      -87.16360676  energy(sigma->0) =      -87.16360676


--------------------------------------------------------------------------------------------------------




--------------------------------------- Iteration      1(   7)  ---------------------------------------


    POTLOK:  cpu time     25.1010: real time     25.1090
    SETDIJ:  cpu time      0.0997: real time      0.0997
    TRIAL :  cpu time      5.1635: real time      5.1671
    CORREC:  cpu time     27.6153: real time     27.6256
    CHARGE:  cpu time      1.0396: real time      1.0403
    --------------------------------------------
      LOOP:  cpu time     59.0521: real time     59.0748

 eigenvalue-minimisations  :     0
 total energy-change (2. order) :-0.5570327E+01  (-0.8708923E+00)
 number of electron      46.0000000 magnetization 
 augmentation part        0.1388594 magnetization 

 Free energy of the ion-electron system (eV)
  ---------------------------------------------------
  alpha Z        PSCENC =         0.38735469
  Ewald energy   TEWEN  =      3873.62749281
  -Hartree energ DENC   =     -5883.49123398
  -exchange      EXHF   =         0.00000000
  -V(xc)+E(xc)   XCENC  =       200.56031087
  PAW double counting   =     29066.32043586   -29070.21734329
  entropy T*S    EENTRO =        -0.00000000
  eigenvalues    EBANDS =      -672.90624085
  atomic energy  EATOM  =      2392.98528967
  ---------------------------------------------------
  free energy    TOTEN  =       -92.73393422 eV

  energy without entropy =      -92.73393422  energy(sigma->0) =      -92.73393422


--------------------------------------------------------------------------------------------------------




--------------------------------------- Iteration      1(   8)  ---------------------------------------


    POTLOK:  cpu time     25.1020: real time     25.1100
    SETDIJ:  cpu time      0.1496: real time      0.1498
    TRIAL :  cpu time      5.1577: real time      5.1608
    CORREC:  cpu time     27.6622: real time     27.6730
    CHARGE:  cpu time      1.0407: real time      1.0413
    --------------------------------------------
      LOOP:  cpu time     59.1271: real time     59.1654

 eigenvalue-minimisations  :     0
 total energy-change (2. order) :-0.8738483E+00  (-0.3536958E+00)
 number of electron      46.0000000 magnetization 
 augmentation part        0.1451311 magnetization 

 Free energy of the ion-electron system (eV)
  ---------------------------------------------------
  alpha Z        PSCENC =         0.38735469
  Ewald energy   TEWEN  =      3873.62749281
  -Hartree energ DENC   =     -5886.93245300
  -exchange      EXHF   =         0.00000000
  -V(xc)+E(xc)   XCENC  =       200.55014517
  PAW double counting   =     29694.70630042   -29698.45703147
  entropy T*S    EENTRO =        -0.00000000
  eigenvalues    EBANDS =      -670.47488080
  atomic energy  EATOM  =      2392.98528967
  ---------------------------------------------------
  free energy    TOTEN  =       -93.60778252 eV

  energy without entropy =      -93.60778252  energy(sigma->0) =      -93.60778252


--------------------------------------------------------------------------------------------------------




--------------------------------------- Iteration      1(   9)  ---------------------------------------


    POTLOK:  cpu time     25.0567: real time     25.0660
    SETDIJ:  cpu time      0.1737: real time      0.1738
    TRIAL :  cpu time      5.1600: real time      5.1630
    CORREC:  cpu time     27.7550: real time     27.7663
    CHARGE:  cpu time      1.0396: real time      1.0401
    --------------------------------------------
      LOOP:  cpu time     59.2000: real time     59.2410

 eigenvalue-minimisations  :     0
 total energy-change (2. order) :-0.3539039E+00  (-0.1541654E+00)
 number of electron      46.0000000 magnetization 
 augmentation part        0.1504078 magnetization 

 Free energy of the ion-electron system (eV)
  ---------------------------------------------------
  alpha Z        PSCENC =         0.38735469
  Ewald energy   TEWEN  =      3873.62749281
  -Hartree energ DENC   =     -5892.56737228
  -exchange      EXHF   =         0.00000000
  -V(xc)+E(xc)   XCENC  =       200.66536360
  PAW double counting   =     30879.57438151   -30883.32335576
  entropy T*S    EENTRO =        -0.00000000
  eigenvalues    EBANDS =      -665.31084068
  atomic energy  EATOM  =      2392.98528967
  ---------------------------------------------------
  free energy    TOTEN  =       -93.96168644 eV

  energy without entropy =      -93.96168644  energy(sigma->0) =      -93.96168644


--------------------------------------------------------------------------------------------------------




--------------------------------------- Iteration      1(  10)  ---------------------------------------


    POTLOK:  cpu time     25.0745: real time     25.0832
    SETDIJ:  cpu time      0.1426: real time      0.1426
    TRIAL :  cpu time      5.1577: real time      5.1608
    CORREC:  cpu time     27.7136: real time     27.7249
    CHARGE:  cpu time      1.0412: real time      1.0419
    --------------------------------------------
      LOOP:  cpu time     59.1606: real time     59.1845

 eigenvalue-minimisations  :     0
 total energy-change (2. order) :-0.1536641E+00  (-0.5948969E-01)
 number of electron      46.0000000 magnetization 
 augmentation part        0.1530790 magnetization 

 Free energy of the ion-electron system (eV)
  ---------------------------------------------------
  alpha Z        PSCENC =         0.38735469
  Ewald energy   TEWEN  =      3873.62749281
  -Hartree energ DENC   =     -5887.40686364
  -exchange      EXHF   =         0.00000000
  -V(xc)+E(xc)   XCENC  =       200.46803060
  PAW double counting   =     31414.99781677   -31418.74627667
  entropy T*S    EENTRO =        -0.00000000
  eigenvalues    EBANDS =      -670.42819474
  atomic energy  EATOM  =      2392.98528967
  ---------------------------------------------------
  free energy    TOTEN  =       -94.11535053 eV

  energy without entropy =      -94.11535053  energy(sigma->0) =      -94.11535053


--------------------------------------------------------------------------------------------------------




--------------------------------------- Iteration      1(  11)  ---------------------------------------


    POTLOK:  cpu time     25.0910: real time     25.1000
    SETDIJ:  cpu time      0.1821: real time      0.1821
    TRIAL :  cpu time      5.1606: real time      5.1631
    CORREC:  cpu time     27.7343: real time     27.7453
    CHARGE:  cpu time      1.0395: real time      1.0400
    --------------------------------------------
      LOOP:  cpu time     59.2216: real time     59.2612

 eigenvalue-minimisations  :     0
 total energy-change (2. order) :-0.5925434E-01  (-0.2107622E-01)
 number of electron      46.0000000 magnetization 
 augmentation part        0.1548271 magnetization 

 Free energy of the ion-electron system (eV)
  ---------------------------------------------------
  alpha Z        PSCENC =         0.38735469
  Ewald energy   TEWEN  =      3873.62749281
  -Hartree energ DENC   =     -5884.07004902
  -exchange      EXHF   =         0.00000000
  -V(xc)+E(xc)   XCENC  =       200.43023842
  PAW double counting   =     31225.93812653   -31229.71479624
  entropy T*S    EENTRO =        -0.00000000
  eigenvalues    EBANDS =      -673.75826172
  atomic energy  EATOM  =      2392.98528967
  ---------------------------------------------------
  free energy    TOTEN  =       -94.17460486 eV

  energy without entropy =      -94.17460486  energy(sigma->0) =      -94.17460486


--------------------------------------------------------------------------------------------------------




--------------------------------------- Iteration      1(  12)  ---------------------------------------


    POTLOK:  cpu time     25.0693: real time     25.0785
    SETDIJ:  cpu time      0.1580: real time      0.1580
    TRIAL :  cpu time      5.1698: real time      5.1734
    CORREC:  cpu time     27.6539: real time     27.6650
    CHARGE:  cpu time      1.0411: real time      1.0415
    --------------------------------------------
      LOOP:  cpu time     59.1071: real time     59.1478

 eigenvalue-minimisations  :     0
 total energy-change (2. order) :-0.2103429E-01  (-0.6922914E-02)
 number of electron      46.0000000 magnetization 
 augmentation part        0.1545109 magnetization 

 Free energy of the ion-electron system (eV)
  ---------------------------------------------------
  alpha Z        PSCENC =         0.38735469
  Ewald energy   TEWEN  =      3873.62749281
  -Hartree energ DENC   =     -5883.53521675
  -exchange      EXHF   =         0.00000000
  -V(xc)+E(xc)   XCENC  =       200.42159721
  PAW double counting   =     31098.57614190   -31102.36880083
  entropy T*S    EENTRO =        -0.00000000
  eigenvalues    EBANDS =      -674.28949784
  atomic energy  EATOM  =      2392.98528967
  ---------------------------------------------------
  free energy    TOTEN  =       -94.19563915 eV

  energy without entropy =      -94.19563915  energy(sigma->0) =      -94.19563915


--------------------------------------------------------------------------------------------------------




--------------------------------------- Iteration      1(  13)  ---------------------------------------


    POTLOK:  cpu time     25.1012: real time     25.1090
    SETDIJ:  cpu time      0.1784: real time      0.1787
    TRIAL :  cpu time      5.1598: real time      5.1631
    CORREC:  cpu time     27.6880: real time     27.6998
    CHARGE:  cpu time      1.0414: real time      1.0421
    --------------------------------------------
      LOOP:  cpu time     59.1841: real time     59.2236

 eigenvalue-minimisations  :     0
 total energy-change (2. order) :-0.6936576E-02  (-0.2429785E-02)
 number of electron      46.0000000 magnetization 
 augmentation part        0.1542198 magnetization 

 Free energy of the ion-electron system (eV)
  ---------------------------------------------------
  alpha Z        PSCENC =         0.38735469
  Ewald energy   TEWEN  =      3873.62749281
  -Hartree energ DENC   =     -5883.13890869
  -exchange      EXHF   =         0.00000000
  -V(xc)+E(xc)   XCENC  =       200.38277733
  PAW double counting   =     31050.75753450   -31054.54513121
  entropy T*S    EENTRO =        -0.00000000
  eigenvalues    EBANDS =      -674.65898482
  atomic energy  EATOM  =      2392.98528967
  ---------------------------------------------------
  free energy    TOTEN  =       -94.20257573 eV

  energy without entropy =      -94.20257573  energy(sigma->0) =      -94.20257573


--------------------------------------------------------------------------------------------------------




--------------------------------------- Iteration      1(  14)  ---------------------------------------


    POTLOK:  cpu time     25.0568: real time     25.0661
    SETDIJ:  cpu time      0.2119: real time      0.2119
    TRIAL :  cpu time      5.1618: real time      5.1650
    CORREC:  cpu time     27.6853: real time     27.6953
    CHARGE:  cpu time      1.0407: real time      1.0411
    --------------------------------------------
      LOOP:  cpu time     59.1691: real time     59.2110

 eigenvalue-minimisations  :     0
 total energy-change (2. order) :-0.2434343E-02  (-0.9272969E-03)
 number of electron      46.0000000 magnetization 
 augmentation part        0.1542988 magnetization 

 Free energy of the ion-electron system (eV)
  ---------------------------------------------------
  alpha Z        PSCENC =         0.38735469
  Ewald energy   TEWEN  =      3873.62749281
  -Hartree energ DENC   =     -5883.14617252
  -exchange      EXHF   =         0.00000000
  -V(xc)+E(xc)   XCENC  =       200.38338859
  PAW double counting   =     30956.75938092   -30960.54594929
  entropy T*S    EENTRO =        -0.00000000
  eigenvalues    EBANDS =      -674.65579494
  atomic energy  EATOM  =      2392.98528967
  ---------------------------------------------------
  free energy    TOTEN  =       -94.20501007 eV

  energy without entropy =      -94.20501007  energy(sigma->0) =      -94.20501007


--------------------------------------------------------------------------------------------------------




--------------------------------------- Iteration      1(  15)  ---------------------------------------


    POTLOK:  cpu time     25.1234: real time     25.1307
    SETDIJ:  cpu time      0.1389: real time      0.1389
    TRIAL :  cpu time      5.1734: real time      5.1762
    CORREC:  cpu time     27.6418: real time     27.6512
    CHARGE:  cpu time      1.0412: real time      1.0417
    --------------------------------------------
      LOOP:  cpu time     59.1500: real time     59.1700

 eigenvalue-minimisations  :     0
 total energy-change (2. order) :-0.9274331E-03  (-0.3928636E-03)
 number of electron      46.0000000 magnetization 
 augmentation part        0.1543871 magnetization 

 Free energy of the ion-electron system (eV)
  ---------------------------------------------------
  alpha Z        PSCENC =         0.38735469
  Ewald energy   TEWEN  =      3873.62749281
  -Hartree energ DENC   =     -5883.20574624
  -exchange      EXHF   =         0.00000000
  -V(xc)+E(xc)   XCENC  =       200.38673213
  PAW double counting   =     30848.46576860   -30852.25309248
  entropy T*S    EENTRO =        -0.00000000
  eigenvalues    EBANDS =      -674.59973669
  atomic energy  EATOM  =      2392.98528967
  ---------------------------------------------------
  free energy    TOTEN  =       -94.20593751 eV

  energy without entropy =      -94.20593751  energy(sigma->0) =      -94.20593751


--------------------------------------------------------------------------------------------------------




--------------------------------------- Iteration      1(  16)  ---------------------------------------


    POTLOK:  cpu time     25.1616: real time     25.1701
    SETDIJ:  cpu time      0.1046: real time      0.1046
    TRIAL :  cpu time      5.1801: real time      5.1831
    CORREC:  cpu time     27.7191: real time     27.7290
    CHARGE:  cpu time      1.0422: real time      1.0428
    --------------------------------------------
      LOOP:  cpu time     59.2318: real time     59.2731

 eigenvalue-minimisations  :     0
 total energy-change (2. order) :-0.3952746E-03  (-0.1710708E-03)
 number of electron      46.0000000 magnetization 
 augmentation part        0.1545237 magnetization 

 Free energy of the ion-electron system (eV)
  ---------------------------------------------------
  alpha Z        PSCENC =         0.38735469
  Ewald energy   TEWEN  =      3873.62749281
  -Hartree energ DENC   =     -5883.22905389
  -exchange      EXHF   =         0.00000000
  -V(xc)+E(xc)   XCENC  =       200.38354607
  PAW double counting   =     30761.10682217   -30764.89383601
  entropy T*S    EENTRO =        -0.00000000
  eigenvalues    EBANDS =      -674.57394828
  atomic energy  EATOM  =      2392.98528967
  ---------------------------------------------------
  free energy    TOTEN  =       -94.20633278 eV

  energy without entropy =      -94.20633278  energy(sigma->0) =      -94.20633278


--------------------------------------------------------------------------------------------------------




--------------------------------------- Iteration      1(  17)  ---------------------------------------


    POTLOK:  cpu time     25.1084: real time     25.1163
    SETDIJ:  cpu time      0.2030: real time      0.2032
    TRIAL :  cpu time      5.1730: real time      5.1758
    CORREC:  cpu time     27.6250: real time     27.6348
    CHARGE:  cpu time      1.0408: real time      1.0411
    --------------------------------------------
      LOOP:  cpu time     59.1824: real time     59.2035

 eigenvalue-minimisations  :     0
 total energy-change (2. order) :-0.1685585E-03  (-0.6252400E-04)
 number of electron      46.0000000 magnetization 
 augmentation part        0.1545332 magnetization 

 Free energy of the ion-electron system (eV)
  ---------------------------------------------------
  alpha Z        PSCENC =         0.38735469
  Ewald energy   TEWEN  =      3873.62749281
  -Hartree energ DENC   =     -5883.36636075
  -exchange      EXHF   =         0.00000000
  -V(xc)+E(xc)   XCENC  =       200.39032798
  PAW double counting   =     30708.58507288   -30712.37325513
  entropy T*S    EENTRO =        -0.00000000
  eigenvalues    EBANDS =      -674.44242348
  atomic energy  EATOM  =      2392.98528967
  ---------------------------------------------------
  free energy    TOTEN  =       -94.20650134 eV

  energy without entropy =      -94.20650134  energy(sigma->0) =      -94.20650134


--------------------------------------------------------------------------------------------------------




--------------------------------------- Iteration      1(  18)  ---------------------------------------


    POTLOK:  cpu time     25.1433: real time     25.1522
    SETDIJ:  cpu time      0.1282: real time      0.1282
    TRIAL :  cpu time      5.1723: real time      5.1751
    CORREC:  cpu time     27.6887: real time     27.6993
    CHARGE:  cpu time      1.0423: real time      1.0433
    --------------------------------------------
      LOOP:  cpu time     59.2056: real time     59.2290

 eigenvalue-minimisations  :     0
 total energy-change (2. order) :-0.6245085E-04  (-0.2248357E-04)
 number of electron      46.0000000 magnetization 
 augmentation part        0.1545294 magnetization 

 Free energy of the ion-electron system (eV)
  ---------------------------------------------------
  alpha Z        PSCENC =         0.38735469
  Ewald energy   TEWEN  =      3873.62749281
  -Hartree energ DENC   =     -5883.33296302
  -exchange      EXHF   =         0.00000000
  -V(xc)+E(xc)   XCENC  =       200.38935109
  PAW double counting   =     30701.53180904   -30705.31971621
  entropy T*S    EENTRO =        -0.00000000
  eigenvalues    EBANDS =      -674.47518185
  atomic energy  EATOM  =      2392.98528967
  ---------------------------------------------------
  free energy    TOTEN  =       -94.20656379 eV

  energy without entropy =      -94.20656379  energy(sigma->0) =      -94.20656379


--------------------------------------------------------------------------------------------------------




--------------------------------------- Iteration      1(  19)  ---------------------------------------


    POTLOK:  cpu time     25.1250: real time     25.1350
    SETDIJ:  cpu time      0.1966: real time      0.1966
    TRIAL :  cpu time      5.1613: real time      5.1649
    CORREC:  cpu time     27.6594: real time     27.6712
    CHARGE:  cpu time      1.0408: real time      1.0413
    --------------------------------------------
      LOOP:  cpu time     59.1964: real time     59.2400

 eigenvalue-minimisations  :     0
 total energy-change (2. order) :-0.2189094E-04  (-0.7773010E-05)
 number of electron      46.0000000 magnetization 
 augmentation part        0.1545053 magnetization 

 Free energy of the ion-electron system (eV)
  ---------------------------------------------------
  alpha Z        PSCENC =         0.38735469
  Ewald energy   TEWEN  =      3873.62749281
  -Hartree energ DENC   =     -5883.36069012
  -exchange      EXHF   =         0.00000000
  -V(xc)+E(xc)   XCENC  =       200.39090790
  PAW double counting   =     30716.50424262   -30720.29213910
  entropy T*S    EENTRO =        -0.00000000
  eigenvalues    EBANDS =      -674.44904414
  atomic energy  EATOM  =      2392.98528967
  ---------------------------------------------------
  free energy    TOTEN  =       -94.20658568 eV

  energy without entropy =      -94.20658568  energy(sigma->0) =      -94.20658568


--------------------------------------------------------------------------------------------------------




--------------------------------------- Iteration      1(  20)  ---------------------------------------


    POTLOK:  cpu time     25.1017: real time     25.1111
    SETDIJ:  cpu time      0.1406: real time      0.1406
    TRIAL :  cpu time      5.1797: real time      5.1827
    CORREC:  cpu time     27.6579: real time     27.6683
    CHARGE:  cpu time      1.0390: real time      1.0395
    --------------------------------------------
      LOOP:  cpu time     59.1327: real time     59.1735

 eigenvalue-minimisations  :     0
 total energy-change (2. order) :-0.7519040E-05  (-0.3712023E-05)
 number of electron      46.0000000 magnetization 
 augmentation part        0.1544969 magnetization 

 Free energy of the ion-electron system (eV)
  ---------------------------------------------------
  alpha Z        PSCENC =         0.38735469
  Ewald energy   TEWEN  =      3873.62749281
  -Hartree energ DENC   =     -5883.35553114
  -exchange      EXHF   =         0.00000000
  -V(xc)+E(xc)   XCENC  =       200.39087152
  PAW double counting   =     30734.11595624   -30737.90372594
  entropy T*S    EENTRO =        -0.00000000
  eigenvalues    EBANDS =      -674.45430104
  atomic energy  EATOM  =      2392.98528967
  ---------------------------------------------------
  free energy    TOTEN  =       -94.20659320 eV

  energy without entropy =      -94.20659320  energy(sigma->0) =      -94.20659320


--------------------------------------------------------------------------------------------------------




--------------------------------------- Iteration      1(  21)  ---------------------------------------


    POTLOK:  cpu time     25.1690: real time     25.1776
    SETDIJ:  cpu time      0.2621: real time      0.2621
    TRIAL :  cpu time      5.1624: real time      5.1661
    CORREC:  cpu time     27.6563: real time     27.6661
    CHARGE:  cpu time      1.0387: real time      1.0391
    --------------------------------------------
      LOOP:  cpu time     59.3023: real time     59.3426

 eigenvalue-minimisations  :     0
 total energy-change (2. order) :-0.2788067E-05  (-0.1394819E-05)
 number of electron      46.0000000 magnetization 
 augmentation part        0.1544935 magnetization 

 Free energy of the ion-electron system (eV)
  ---------------------------------------------------
  alpha Z        PSCENC =         0.38735469
  Ewald energy   TEWEN  =      3873.62749281
  -Hartree energ DENC   =     -5883.34706012
  -exchange      EXHF   =         0.00000000
  -V(xc)+E(xc)   XCENC  =       200.39074550
  PAW double counting   =     30749.67702182   -30753.46483057
  entropy T*S    EENTRO =        -0.00000000
  eigenvalues    EBANDS =      -674.46260978
  atomic energy  EATOM  =      2392.98528967
  ---------------------------------------------------
  free energy    TOTEN  =       -94.20659599 eV

  energy without entropy =      -94.20659599  energy(sigma->0) =      -94.20659599


--------------------------------------------------------------------------------------------------------




--------------------------------------- Iteration      1(  22)  ---------------------------------------


    POTLOK:  cpu time     25.0848: real time     25.0940
    SETDIJ:  cpu time      0.1855: real time      0.1855
    TRIAL :  cpu time      5.1679: real time      5.1707
    CORREC:  cpu time     27.7232: real time     27.7335
    CHARGE:  cpu time      1.0401: real time      1.0405
    --------------------------------------------
      LOOP:  cpu time     59.2177: real time     59.2557

 eigenvalue-minimisations  :     0
 total energy-change (2. order) :-0.1070533E-05  (-0.8256813E-06)
 number of electron      46.0000000 magnetization 
 augmentation part        0.1544962 magnetization 

 Free energy of the ion-electron system (eV)
  ---------------------------------------------------
  alpha Z        PSCENC =         0.38735469
  Ewald energy   TEWEN  =      3873.62749281
  -Hartree energ DENC   =     -5883.34543967
  -exchange      EXHF   =         0.00000000
  -V(xc)+E(xc)   XCENC  =       200.39067034
  PAW double counting   =     30758.77529636   -30762.56316041
  entropy T*S    EENTRO =        -0.00000000
  eigenvalues    EBANDS =      -674.46410082
  atomic energy  EATOM  =      2392.98528967
  ---------------------------------------------------
  free energy    TOTEN  =       -94.20659706 eV

  energy without entropy =      -94.20659706  energy(sigma->0) =      -94.20659706


--------------------------------------------------------------------------------------------------------




--------------------------------------- Iteration      1(  23)  ---------------------------------------


    POTLOK:  cpu time     25.1417: real time     25.1502
    SETDIJ:  cpu time      0.0865: real time      0.0865
    TRIAL :  cpu time      5.1601: real time      5.1630
    CORREC:  cpu time     27.7188: real time     27.7296
    CHARGE:  cpu time      1.0394: real time      1.0400
    --------------------------------------------
      LOOP:  cpu time     59.1737: real time     59.2108

 eigenvalue-minimisations  :     0
 total energy-change (2. order) :-0.6715418E-06  (-0.2734827E-06)
 number of electron      46.0000000 magnetization 
 augmentation part        0.1544968 magnetization 

 Free energy of the ion-electron system (eV)
  ---------------------------------------------------
  alpha Z        PSCENC =         0.38735469
  Ewald energy   TEWEN  =      3873.62749281
  -Hartree energ DENC   =     -5883.34538635
  -exchange      EXHF   =         0.00000000
  -V(xc)+E(xc)   XCENC  =       200.39072486
  PAW double counting   =     30759.74081641   -30763.52874529
  entropy T*S    EENTRO =        -0.00000000
  eigenvalues    EBANDS =      -674.46414452
  atomic energy  EATOM  =      2392.98528967
  ---------------------------------------------------
  free energy    TOTEN  =       -94.20659773 eV

  energy without entropy =      -94.20659773  energy(sigma->0) =      -94.20659773


--------------------------------------------------------------------------------------------------------




--------------------------------------- Iteration      1(  24)  ---------------------------------------


    POTLOK:  cpu time     25.1140: real time     25.1233
    SETDIJ:  cpu time      0.1595: real time      0.1595
    TRIAL :  cpu time      5.1661: real time      5.1689
    CORREC:  cpu time     27.7704: real time     27.7806
    CHARGE:  cpu time      1.0414: real time      1.0418
    --------------------------------------------
      LOOP:  cpu time     59.2647: real time     59.3056

 eigenvalue-minimisations  :     0
 total energy-change (2. order) :-0.2619272E-06  (-0.1830426E-06)
 number of electron      46.0000000 magnetization 
 augmentation part        0.1544974 magnetization 

 Free energy of the ion-electron system (eV)
  ---------------------------------------------------
  alpha Z        PSCENC =         0.38735469
  Ewald energy   TEWEN  =      3873.62749281
  -Hartree energ DENC   =     -5883.34360432
  -exchange      EXHF   =         0.00000000
  -V(xc)+E(xc)   XCENC  =       200.39061063
  PAW double counting   =     30758.28583976   -30762.07376487
  entropy T*S    EENTRO =        -0.00000000
  eigenvalues    EBANDS =      -674.46581634
  atomic energy  EATOM  =      2392.98528967
  ---------------------------------------------------
  free energy    TOTEN  =       -94.20659799 eV

  energy without entropy =      -94.20659799  energy(sigma->0) =      -94.20659799


--------------------------------------------------------------------------------------------------------




--------------------------------------- Iteration      1(  25)  ---------------------------------------


    POTLOK:  cpu time     25.0852: real time     25.0935
    SETDIJ:  cpu time      0.1521: real time      0.1521
    TRIAL :  cpu time      5.1855: real time      5.1886
    CORREC:  cpu time     27.6486: real time     27.6581
    CHARGE:  cpu time      1.0405: real time      1.0408
    --------------------------------------------
      LOOP:  cpu time     59.1264: real time     59.1647

 eigenvalue-minimisations  :     0
 total energy-change (2. order) :-0.1561348E-06  (-0.9279768E-07)
 number of electron      46.0000000 magnetization 
 augmentation part        0.1544986 magnetization 

 Free energy of the ion-electron system (eV)
  ---------------------------------------------------
  alpha Z        PSCENC =         0.38735469
  Ewald energy   TEWEN  =      3873.62749281
  -Hartree energ DENC   =     -5883.34356089
  -exchange      EXHF   =         0.00000000
  -V(xc)+E(xc)   XCENC  =       200.39056415
  PAW double counting   =     30756.62978339   -30760.41769972
  entropy T*S    EENTRO =        -0.00000000
  eigenvalues    EBANDS =      -674.46582223
  atomic energy  EATOM  =      2392.98528967
  ---------------------------------------------------
  free energy    TOTEN  =       -94.20659815 eV

  energy without entropy =      -94.20659815  energy(sigma->0) =      -94.20659815


--------------------------------------------------------------------------------------------------------




--------------------------------------- Iteration      1(  26)  ---------------------------------------


    POTLOK:  cpu time     25.0923: real time     25.0996
    SETDIJ:  cpu time      0.1829: real time      0.1832
    TRIAL :  cpu time      5.1685: real time      5.1712
    CORREC:  cpu time     27.7035: real time     27.7134
    EDDIAG:  cpu time      1.3574: real time      1.3589
    CHARGE:  cpu time      1.0405: real time      1.0409
    --------------------------------------------
      LOOP:  cpu time     60.5760: real time     60.5982

 eigenvalue-minimisations  :     0
 total energy-change (2. order) :-0.7428389E-07  (-0.5213010E-07)
 number of electron      46.0000000 magnetization 
 augmentation part        0.1544991 magnetization 

 Free energy of the ion-electron system (eV)
  ---------------------------------------------------
  alpha Z        PSCENC =         0.38735469
  Ewald energy   TEWEN  =      3873.62749281
  -Hartree energ DENC   =     -5883.34473627
  -exchange      EXHF   =         0.00000000
  -V(xc)+E(xc)   XCENC  =       200.39059127
  PAW double counting   =     30755.14831773   -30758.93623159
  entropy T*S    EENTRO =        -0.00000000
  eigenvalues    EBANDS =      -674.46467653
  atomic energy  EATOM  =      2392.98528967
  ---------------------------------------------------
  free energy    TOTEN  =       -94.20659822 eV

  energy without entropy =      -94.20659822  energy(sigma->0) =      -94.20659822


--------------------------------------------------------------------------------------------------------


  average scaling for gradient   0.8119


 average (electrostatic) potential at core
  the test charge radii are     0.5770  0.4325  0.5955
  (the norm of the test charge is              1.0000)
       1 -89.1322       2 -89.1324       3 -91.8772       4 -91.8761       5 -50.7938
       6 -50.7954       7 -47.3983       8 -47.6622       9 -47.6627      10 -47.3989
      11-123.2431      12-124.8435      13-123.2394      14-124.8503



 E-fermi :  -6.8357     XC(G=0):  -0.0684     alpha+bet : -0.0583

 Fermi energy:        -6.8357052611

 k-point     1 :       0.0000    0.0000    0.0000
  band No.  band energies     occupation 
      1     -29.2790      2.00000
      2     -29.2370      2.00000
      3     -26.9528      2.00000
      4     -26.9070      2.00000
      5     -21.1657      2.00000
      6     -18.6234      2.00000
      7     -16.1849      2.00000
      8     -14.8439      2.00000
      9     -13.1628      2.00000
     10     -13.0417      2.00000
     11     -12.4224      2.00000
     12     -12.3205      2.00000
     13     -11.6731      2.00000
     14     -11.5574      2.00000
     15     -10.3363      2.00000
     16     -10.2994      2.00000
     17     -10.0445      2.00000
     18      -9.5497      2.00000
     19      -9.4128      2.00000
     20      -8.2534      2.00000
     21      -8.1086      2.00000
     22      -6.9680      2.00000
     23      -6.8877      2.00000
     24      -0.9433      0.00000
     25      -0.8200      0.00000
     26      -0.1512      0.00000
     27       0.0481      0.00000
     28       0.1306      0.00000
     29       0.2448      0.00000
     30       0.3219      0.00000
     31       0.3231      0.00000
     32       0.3676      0.00000


--------------------------------------------------------------------------------------------------------


 soft charge-density along one line, spin component           1
         0         1         2         3         4         5         6         7         8         9
 total charge-density along one line

 pseudopotential strength for first ion, spin component:           1
 12.679  21.335  -0.001   0.002  -0.001  -0.001   0.004  -0.002
 21.335  35.898  -0.001   0.004  -0.002  -0.001   0.007  -0.004
 -0.001  -0.001  -3.259   0.002   0.000  -5.840   0.003   0.001
  0.002   0.004   0.002  -3.259  -0.001   0.003  -5.840  -0.002
 -0.001  -0.002   0.000  -0.001  -3.256   0.001  -0.002  -5.834
 -0.001  -0.001  -5.840   0.003   0.001 -10.443   0.005   0.001
  0.004   0.007   0.003  -5.840  -0.002   0.005 -10.442  -0.004
 -0.002  -0.004   0.001  -0.002  -5.834   0.001  -0.004 -10.433
 total augmentation occupancy for first ion, spin component:           1
  9.229  -3.410  -0.187   0.154   0.006   0.071  -0.100  -0.009
 -3.410   1.282   0.071  -0.126  -0.009  -0.023   0.069   0.009
 -0.187   0.071   6.598  -0.046  -0.017  -2.245   0.048   0.011
  0.154  -0.126  -0.046   6.580   0.021   0.048  -2.232  -0.033
  0.006  -0.009  -0.017   0.021   6.471   0.011  -0.033  -2.141
  0.071  -0.023  -2.245   0.048   0.011   0.772  -0.029  -0.006
 -0.100   0.069   0.048  -2.232  -0.033  -0.029   0.766   0.022
 -0.009   0.009   0.011  -0.033  -2.141  -0.006   0.022   0.712


------------------------ aborting loop because EDIFF is reached ----------------------------------------


    FORLOC:  cpu time      0.0702: real time      0.0702
    FORNL :  cpu time      0.0586: real time      0.0588
    FORCOR:  cpu time     24.9611: real time     24.9689
    OFIELD:  cpu time      0.0080: real time      0.0080

 VOLUME and BASIS-vectors are now :
 -----------------------------------------------------------------------------
  energy-cutoff  :     1000.00
  volume of cell :    15625.00
      direct lattice vectors                 reciprocal lattice vectors
    25.000000000  0.000000000  0.000000000     0.040000000  0.000000000  0.000000000
     0.000000000 25.000000000  0.000000000     0.000000000  0.040000000  0.000000000
     0.000000000  0.000000000 25.000000000     0.000000000  0.000000000  0.040000000

  length of vectors
    25.000000000 25.000000000 25.000000000     0.040000000  0.040000000  0.040000000


 FORCES acting on ions:
    Electron-Ion                     Ewald-Force                    Non-Local-Force
 -----------------------------------------------------------------------------------------------
   0.110E+03 0.727E+02 0.130E+03   -.110E+03 -.731E+02 -.132E+03   -.197E+00 0.410E+00 0.270E+01
   0.160E+03 -.726E+02 0.569E+02   -.163E+03 0.730E+02 -.557E+02   0.246E+01 -.414E+00 -.114E+01
   0.426E+02 -.702E+02 0.300E+02   -.456E+02 0.619E+02 -.311E+02   0.321E+01 0.829E+01 0.118E+01
   0.430E+02 0.702E+02 0.291E+02   -.452E+02 -.619E+02 -.316E+02   0.224E+01 -.828E+01 0.259E+01
   -.975E+02 -.707E+02 0.173E+01   0.105E+03 0.733E+02 -.210E+01   -.801E+01 -.267E+01 0.377E+00
   -.330E+02 0.706E+02 -.919E+02   0.354E+02 -.732E+02 0.993E+02   -.249E+01 0.266E+01 -.763E+01
   -.226E+02 0.418E+02 0.763E+02   0.258E+02 -.438E+02 -.802E+02   -.336E+01 0.212E+01 0.422E+01
   0.824E+02 0.322E+02 0.305E+02   -.873E+02 -.341E+02 -.314E+02   0.520E+01 0.201E+01 0.998E+00
   0.577E+02 -.321E+02 0.663E+02   -.603E+02 0.339E+02 -.706E+02   0.277E+01 -.200E+01 0.451E+01
   0.633E+02 -.418E+02 -.481E+02   -.659E+02 0.438E+02 0.526E+02   0.276E+01 -.212E+01 -.463E+01
   -.378E+03 0.981E+02 0.127E+03   0.422E+03 -.126E+03 -.137E+03   -.451E+02 0.287E+02 0.102E+02
   0.168E+02 -.372E+03 -.355E+02   -.560E+02 0.400E+03 0.453E+02   0.393E+02 -.280E+02 -.994E+01
   -.145E+02 -.983E+02 -.399E+03   0.209E+02 0.127E+03 0.444E+03   -.644E+01 -.288E+02 -.458E+02
   -.275E+02 0.372E+03 0.281E+02   0.229E+02 -.400E+03 -.682E+02   0.458E+01 0.280E+02 0.402E+02
 -----------------------------------------------------------------------------------------------
   0.316E+01 -.250E-02 0.221E+01   -.121E-12 -.114E-12 0.995E-13   -.315E+01 0.109E-01 -.214E+01


 POSITION                                       TOTAL-FORCE (eV/Angst)
 -----------------------------------------------------------------------------------
     11.79605     11.73530     11.76590         0.114152     -0.031496      0.151076
     11.79605     13.26260     11.76380         0.195061      0.025333      0.050408
     13.20035     13.84150     11.73820         0.349511     -0.174720     -0.033357
     12.27005     11.15750     13.08830         0.093646      0.177746      0.342216
     14.11975     15.46600     11.93510        -0.253061     -0.073510      0.010152
     12.78155      9.53400     13.87910        -0.076568      0.070867     -0.241305
     12.43075     11.33220     10.96430        -0.152316      0.124439      0.229688
     10.77975     11.35030     11.58510         0.269675      0.107862      0.074211
     11.26695     13.64630     10.87690         0.168080     -0.109718      0.219834
     11.27085     13.66630     12.64070         0.163946     -0.126024     -0.227692
     14.22025     13.22590     11.50900        -0.908359      0.473262      0.219746
     13.18995     15.18010     11.98440         0.233561     -0.564218     -0.141620
     12.41625     11.77360     14.12310        -0.127167     -0.480224     -0.922042
     12.49785      9.81900     12.99210        -0.070162      0.580398      0.268684
 -----------------------------------------------------------------------------------
    total drift:                                0.010846      0.008445      0.068116


--------------------------------------------------------------------------------------------------------



  FREE ENERGIE OF THE ION-ELECTRON SYSTEM (eV)
  ---------------------------------------------------
  free  energy   TOTEN  =       -94.20659822 eV

  energy  without entropy=      -94.20659822  energy(sigma->0) =      -94.20659822



--------------------------------------------------------------------------------------------------------


    POTLOK:  cpu time     25.2803: real time     25.2883


--------------------------------------------------------------------------------------------------------


 stress matrix after NEB project (eV)
      0.00000      0.00000      0.00000
      0.00000      0.00000      0.00000
      0.00000      0.00000      0.00000
  FORCES: max atom, RMS     1.047560    0.527378
  FORCE total and by dimension    1.973269    0.922042
  Stress total and by dimension    0.000000    0.000000
     LOOP+:  cpu time   1354.4802: real time   1355.3250
    4ORBIT:  cpu time      0.0000: real time      0.0000

 total amount of memory used by VASP MPI-rank0   192295. kBytes
=======================================================================

   base      :      30000. kBytes
   nonl-proj :       7294. kBytes
   fftplans  :      41190. kBytes
   grid      :     110444. kBytes
   one-center:          1. kBytes
   wavefun   :       3366. kBytes

  
  
 General timing and accounting informations for this job:
 ========================================================
  
                  Total CPU time used (sec):     1387.204
                            User time (sec):     1342.792
                          System time (sec):       44.412
                         Elapsed time (sec):     1395.087
  
                   Maximum memory used (kb):      829144.
                   Average memory used (kb):          N/A
  
                          Minor page faults:       782462
                          Major page faults:          804
                 Voluntary context switches:         7430
