 vasp.6.4.1 05Apr23 (build Jun  6 2023 14:36:51) complex                         
 executed on        HPECrayEX_GCC date 2024.08.20  14:40:35
 running  256 mpi-ranks, with    1 threads/rank, on    2 nodes
 distrk:  each k-point on  256 cores,    1 groups
 distr:  one band on NCORE=  64 cores,    4 groups


--------------------------------------------------------------------------------------------------------


 INCAR:
   ALGO = Conjugate
   NPAR = 4
   ISMEAR = 0
   SIGMA = 0.01
   PREC = Accurate
   EDIFF = 1E-7
   ENCUT = 1000
   ISIF = 0
   GGA = RE
   LUSE_VDW = .TRUE.
   AGGAC = 0.0000
   LASPH = .TRUE.
   LWAVE = .FALSE.
   LCHARGE = .FALSE.

 POTCAR:    PAW_PBE C_h 06Feb2004                 
 POTCAR:    PAW_PBE H_h 06Feb2004                 
 -----------------------------------------------------------------------------
|                                                                             |
|               ----> ADVICE to this user running VASP <----                  |
|                                                                             |
|     You have switched on vdW-DFT.                                           |
|     This routine was written and supplied by Jiri Klimes. We recommend      |
|     that you carefully read and cite the following publications:            |
|       J. Klimes, D.R. Bowler, A. Michelides                                 |
|          J. Phys.: Cond Matt. 22 022201 (2010)                              |
|       J. Klimes, D.R. Bowler, A. Michelides                                 |
|          Phys. Rev. B. 83, 195131 (2011)                                    |
|     and references therein.                                                 |
|                                                                             |
 -----------------------------------------------------------------------------

 POTCAR:    PAW_PBE C_h 06Feb2004                 
   VRHFIN =C: s2p2                                                                                  
   LEXCH  = PE                                                                                      
   EATOM  =   147.1560 eV,   10.8157 Ry                                                             
                                                                                                    
   TITEL  = PAW_PBE C_h 06Feb2004                                                                   
   LULTRA =        F    use ultrasoft PP ?                                                          
   IUNSCR =        1    unscreen: 0-lin 1-nonlin 2-no                                               
   RPACOR =    0.800    partial core radius                                                         
   POMASS =   12.011; ZVAL   =    4.000    mass and valenz                                          
   RCORE  =    1.100    outmost cutoff radius                                                       
   RWIGS  =    1.630; RWIGS  =    0.863    wigner-seitz radius (au A)                               
   ENMAX  =  700.000; ENMIN  =  500.000 eV                                                          
   ICORE  =        2    local potential                                                             
   LCOR   =        T    correct aug charges                                                         
   LPAW   =        T    paw PP                                                                      
   EAUG   =  946.768                                                                                
   DEXC   =    0.000                                                                                
   RMAX   =    1.128    core radius for proj-oper                                                   
   RAUG   =    1.300    factor for augmentation sphere                                              
   RDEP   =    1.162    radius for radial grids                                                     
   RDEPT  =    1.088    core radius for aug-charge                                                  
                                                                                                    
   Atomic configuration                                                                             
    4 entries                                                                                       
     n  l   j            E        occ.                                                              
     1  0  0.50      -273.3789   2.0000                                                             
     2  0  0.50       -13.7508   2.0000                                                             
     2  1  0.50        -5.2854   2.0000                                                             
     3  2  1.50        -5.4423   0.0000                                                             
   Description                                                                                      
     l       E           TYP  RCUT    TYP  RCUT                                                     
     0    -13.7508458     23  1.100                                                                 
     0     -8.2022199     23  1.100                                                                 
     1     -5.2854383     23  1.100                                                                 
     1      1.1560700     23  1.100                                                                 
     2     -5.4423304      7  1.100                                                                 
  local pseudopotential read in
  partial core-charges read in
  partial kinetic energy density read in
  atomic valenz-charges read in
  non local Contribution for L=           0  read in
    real space projection operators read in
  non local Contribution for L=           0  read in
    real space projection operators read in
  non local Contribution for L=           1  read in
    real space projection operators read in
  non local Contribution for L=           1  read in
    real space projection operators read in
    PAW grid and wavefunctions read in

   number of l-projection  operators is LMAX  =           4
   number of lm-projection operators is LMMAX =           8

 POTCAR:    PAW_PBE H_h 06Feb2004                 
   VRHFIN =H: ultrasoft test                                                                        
   LEXCH  = PE                                                                                      
   EATOM  =    12.4884 eV,    0.9179 Ry                                                             
                                                                                                    
   TITEL  = PAW_PBE H_h 06Feb2004                                                                   
   LULTRA =        F    use ultrasoft PP ?                                                          
   IUNSCR =        0    unscreen: 0-lin 1-nonlin 2-no                                               
   RPACOR =    0.000    partial core radius                                                         
   POMASS =    1.000; ZVAL   =    1.000    mass and valenz                                          
   RCORE  =    0.800    outmost cutoff radius                                                       
   RWIGS  =    0.700; RWIGS  =    0.370    wigner-seitz radius (au A)                               
   ENMAX  =  700.000; ENMIN  =  350.000 eV                                                          
   RCLOC  =    0.701    cutoff for local pot                                                        
   LCOR   =        T    correct aug charges                                                         
   LPAW   =        T    paw PP                                                                      
   EAUG   = 1000.000                                                                                
   RMAX   =    0.819    core radius for proj-oper                                                   
   RAUG   =    1.000    factor for augmentation sphere                                              
   RDEP   =    0.817    radius for radial grids                                                     
   RDEPT  =    0.817    core radius for aug-charge                                                  
                                                                                                    
   Atomic configuration                                                                             
    2 entries                                                                                       
     n  l   j            E        occ.                                                              
     1  0  0.50        -6.4927   1.0000                                                             
     2  1  0.50        -3.4015   0.0000                                                             
   Description                                                                                      
     l       E           TYP  RCUT    TYP  RCUT                                                     
     0     -6.4927493     23  0.800                                                                 
     0      6.8029130     23  0.800                                                                 
     1     -6.8029130     23  0.800                                                                 
  local pseudopotential read in
  atomic valenz-charges read in
  non local Contribution for L=           0  read in
    real space projection operators read in
  non local Contribution for L=           0  read in
    real space projection operators read in
  non local Contribution for L=           1  read in
    real space projection operators read in
    PAW grid and wavefunctions read in

   number of l-projection  operators is LMAX  =           3
   number of lm-projection operators is LMMAX =           5

 -----------------------------------------------------------------------------
|                                                                             |
|               ----> ADVICE to this user running VASP <----                  |
|                                                                             |
|     You have a (more or less) 'large supercell' and for larger cells it     |
|     might be more efficient to use real-space projection operators.         |
|     Therefore, try LREAL= Auto in the INCAR file.                           |
|     Mind: For very accurate calculation, you might also keep the            |
|     reciprocal projection scheme (i.e. LREAL=.FALSE.).                      |
|                                                                             |
 -----------------------------------------------------------------------------

 -----------------------------------------------------------------------------
|                                                                             |
|               ----> ADVICE to this user running VASP <----                  |
|                                                                             |
|     You enforced a specific xc type in the INCAR file but a different       |
|     type was found in the POTCAR file.                                      |
|     I HOPE YOU KNOW WHAT YOU ARE DOING!                                     |
|                                                                             |
 -----------------------------------------------------------------------------

  PAW_PBE C_h 06Feb2004                 :
 energy of atom  1       EATOM= -147.1560
 kinetic energy error for atom=    0.0031 (will be added to EATOM!!)
  PAW_PBE H_h 06Feb2004                 :
 energy of atom  2       EATOM=  -12.4884
 kinetic energy error for atom=    0.0006 (will be added to EATOM!!)


 POSCAR:  C  H
  positions in cartesian coordinates
  No initial velocities read in
 exchange correlation table for  LEXCH =       40
   RHO(1)=    0.500       N(1)  =     2000
   RHO(2)=  100.500       N(2)  =     4000

 VTST: version 4.1, (05/19/21)

 CHAIN: initializing optimizer
 
 OPT: Using VASP Dynamics algorithm
 CHAIN: Read ICHAIN            0

 POSCAR:  C  H
  positions in cartesian coordinates
  No initial velocities read in



--------------------------------------------------------------------------------------------------------


 ion  position               nearest neighbor table
   1  0.083  0.020  0.330-  21 1.09   5 1.38  18 1.42
   2  0.917  0.980  0.670-  22 1.09   6 1.38  17 1.42
   3  0.417  0.520  0.670-  23 1.09   7 1.38  20 1.42
   4  0.583  0.480  0.330-  24 1.09   8 1.38  19 1.42
   5  0.114  0.165  0.224-  25 1.09   1 1.38   9 1.42
   6  0.886  0.835  0.776-  26 1.09   2 1.38  10 1.42
   7  0.386  0.665  0.776-  27 1.09   3 1.38  11 1.42
   8  0.614  0.335  0.224-  28 1.09   4 1.38  12 1.42
   9  0.048  0.107  0.038-   5 1.42  13 1.42  10 1.43
  10  0.952  0.893  0.962-   6 1.42  14 1.42   9 1.43
  11  0.452  0.607  0.962-   7 1.42  15 1.42  12 1.43
  12  0.548  0.393  0.038-   8 1.42  16 1.42  11 1.43
  13  0.076  0.252  0.924-  29 1.09  17 1.38   9 1.42
  14  0.924  0.748  0.076-  30 1.09  18 1.38  10 1.42
  15  0.424  0.752  0.076-  31 1.09  19 1.38  11 1.42
  16  0.576  0.248  0.924-  32 1.09  20 1.38  12 1.42
  17  0.013  0.191  0.744-  33 1.09  13 1.38   2 1.42
  18  0.987  0.809  0.256-  34 1.09  14 1.38   1 1.42
  19  0.487  0.691  0.256-  35 1.09  15 1.38   4 1.42
  20  0.513  0.309  0.744-  36 1.09  16 1.38   3 1.42
  21  0.133  0.068  0.472-   1 1.09
  22  0.867  0.932  0.528-   2 1.09
  23  0.367  0.568  0.528-   3 1.09
  24  0.633  0.432  0.472-   4 1.09
  25  0.187  0.327  0.280-   5 1.09
  26  0.813  0.673  0.720-   6 1.09
  27  0.313  0.827  0.720-   7 1.09
  28  0.687  0.173  0.280-   8 1.09
  29  0.150  0.414  0.982-  13 1.09
  30  0.850  0.586  0.018-  14 1.09
  31  0.350  0.914  0.018-  15 1.09
  32  0.650  0.086  0.982-  16 1.09
  33  0.037  0.304  0.660-  17 1.09
  34  0.963  0.696  0.340-  18 1.09
  35  0.463  0.804  0.340-  19 1.09
  36  0.537  0.196  0.660-  20 1.09

  LATTYP: Found a simple monoclinic cell.
 ALAT       =     7.7770581401
 B/A-ratio  =     0.7634634965
 C/A-ratio  =     1.0395447551
 COS(beta)  =    -0.4080038934
  
  Lattice vectors:
  
 A1 = (   3.1730700000,   0.0000000000,   7.1003000000)
 A2 = (   0.0000000000,   5.9375000000,   0.0000000000)
 A3 = (  -8.0846000000,   0.0000000000,   0.0000000000)


Analysis of symmetry for initial positions (statically):
=====================================================================
 Subroutine PRICEL returns:
 Original cell was already a primitive cell.
 

 Routine SETGRP: Setting up the symmetry group for a 
 simple monoclinic supercell.


 Subroutine GETGRP returns: Found  4 space group operations
 (whereof  2 operations were pure point group operations)
 out of a pool of  4 trial point group operations.


The static configuration has the point symmetry S_2 .
 The point group associated with its full space group is C_2h.


Analysis of symmetry for dynamics (positions and initial velocities):
=====================================================================
 Subroutine PRICEL returns:
 Original cell was already a primitive cell.
 

 Routine SETGRP: Setting up the symmetry group for a 
 simple monoclinic supercell.


 Subroutine GETGRP returns: Found  4 space group operations
 (whereof  2 operations were pure point group operations)
 out of a pool of  4 trial point group operations.


The dynamic configuration has the point symmetry S_2 .
 The point group associated with its full space group is C_2h.


 Subroutine INISYM returns: Found  4 space group operations
 (whereof  2 operations are pure point group operations),
 and found     1 'primitive' translations


----------------------------------------------------------------------------------------

                                     Primitive cell                                     

  volume of cell :     340.8308

  direct lattice vectors                    reciprocal lattice vectors
     8.084600000  0.000000000  0.000000000     0.123691958 -0.000000000  0.085562126
     0.000000000  5.937500000  0.000000000     0.000000000  0.168421053 -0.000000000
    -4.911530000  0.000000000  7.100300000     0.000000000  0.000000000  0.140839119

  length of vectors
     8.084600000  5.937500000  8.633503752     0.150401389  0.168421053  0.140839119

  position of ions in fractional coordinates (direct lattice)
     0.083111707  0.019778553  0.330174928
     0.916888292  0.980221447  0.669825073
     0.416888330  0.519778547  0.669825135
     0.583111642  0.480221442  0.330174876
     0.113546720  0.164504236  0.223692052
     0.886453278  0.835495766  0.776307949
     0.386453272  0.664504257  0.776308017
     0.613546696  0.335495732  0.223691994
     0.048468265  0.106520047  0.037648541
     0.951531732  0.893479954  0.962351458
     0.451531867  0.606520154  0.962351590
     0.548468104  0.393479835  0.037648423
     0.076421354  0.252457208  0.924148731
     0.923578642  0.747542793  0.075851269
     0.423578685  0.752457233  0.075851432
     0.576421291  0.247542760  0.924148584
     0.012851940  0.190551064  0.744276633
     0.987148060  0.809448938  0.255723368
     0.487148011  0.690551018  0.255723481
     0.512851966  0.309448977  0.744276534
     0.133014410  0.068359548  0.472271754
     0.866985587  0.931640452  0.527728245
     0.366985691  0.568359571  0.527728438
     0.633014282  0.431640423  0.472271576
     0.186708413  0.326774721  0.280109552
     0.813291581  0.673225284  0.719890449
     0.313291596  0.826774754  0.719890468
     0.686708375  0.173225242  0.280109545
     0.149951342  0.414200324  0.981976432
     0.850048650  0.585799681  0.018023568
     0.350048689  0.914200245  0.018023603
     0.649951287  0.085799746  0.981976407
     0.037292396  0.303922850  0.659569857
     0.962707600  0.696077153  0.340430144
     0.462707468  0.803922902  0.340430225
     0.537292509  0.196077096  0.659569788

  ion indices of the primitive-cell ions
   primitive index   ion index
                 1           1
                 2           2
                 3           3
                 4           4
                 5           5
                 6           6
                 7           7
                 8           8
                 9           9
                10          10
                11          11
                12          12
                13          13
                14          14
                15          15
                16          16
                17          17
                18          18
                19          19
                20          20
                21          21
                22          22
                23          23
                24          24
                25          25
                26          26
                27          27
                28          28
                29          29
                30          30
                31          31
                32          32
                33          33
                34          34
                35          35
                36          36

----------------------------------------------------------------------------------------



 KPOINTS: auto                                    

Automatic generation of k-mesh.
 Grid dimensions read from file:
 generate k-points for:    4    5    4

 Generating k-lattice:

  Cartesian coordinates                     Fractional coordinates (reciprocal lattice)
     0.030922989 -0.000000000  0.021390531     0.250000000  0.000000000 -0.000000000
     0.000000000  0.033684211 -0.000000000     0.000000000  0.200000000  0.000000000
     0.000000000  0.000000000  0.035209780     0.000000000  0.000000000  0.250000000

  Length of vectors
     0.037600347  0.033684211  0.035209780

  Shift w.r.t. Gamma in fractional coordinates (k-lattice)
     0.000000000  0.000000000  0.000000000

 
 Subroutine IBZKPT returns following result:
 ===========================================
 
 Found     30 irreducible k-points:
 
 Following reciprocal coordinates:
            Coordinates               Weight
  0.000000  0.000000  0.000000      1.000000
  0.250000  0.000000  0.000000      2.000000
  0.500000  0.000000  0.000000      1.000000
  0.000000  0.200000  0.000000      2.000000
  0.250000  0.200000  0.000000      4.000000
  0.500000  0.200000  0.000000      2.000000
  0.000000  0.400000  0.000000      2.000000
  0.250000  0.400000  0.000000      4.000000
  0.500000  0.400000  0.000000      2.000000
  0.000000  0.000000  0.250000      2.000000
  0.250000  0.000000  0.250000      2.000000
  0.500000  0.000000  0.250000      2.000000
 -0.250000  0.000000  0.250000      2.000000
  0.000000  0.200000  0.250000      4.000000
  0.250000  0.200000  0.250000      4.000000
  0.500000  0.200000  0.250000      4.000000
 -0.250000  0.200000  0.250000      4.000000
  0.000000  0.400000  0.250000      4.000000
  0.250000  0.400000  0.250000      4.000000
  0.500000  0.400000  0.250000      4.000000
 -0.250000  0.400000  0.250000      4.000000
  0.000000  0.000000  0.500000      1.000000
  0.250000  0.000000  0.500000      2.000000
  0.500000  0.000000  0.500000      1.000000
  0.000000  0.200000  0.500000      2.000000
  0.250000  0.200000  0.500000      4.000000
  0.500000  0.200000  0.500000      2.000000
  0.000000  0.400000  0.500000      2.000000
  0.250000  0.400000  0.500000      4.000000
  0.500000  0.400000  0.500000      2.000000
 
 Following cartesian coordinates:
            Coordinates               Weight
  0.000000  0.000000  0.000000      1.000000
  0.030923  0.000000  0.021391      2.000000
  0.061846  0.000000  0.042781      1.000000
  0.000000  0.033684  0.000000      2.000000
  0.030923  0.033684  0.021391      4.000000
  0.061846  0.033684  0.042781      2.000000
  0.000000  0.067368  0.000000      2.000000
  0.030923  0.067368  0.021391      4.000000
  0.061846  0.067368  0.042781      2.000000
  0.000000  0.000000  0.035210      2.000000
  0.030923  0.000000  0.056600      2.000000
  0.061846  0.000000  0.077991      2.000000
 -0.030923  0.000000  0.013819      2.000000
  0.000000  0.033684  0.035210      4.000000
  0.030923  0.033684  0.056600      4.000000
  0.061846  0.033684  0.077991      4.000000
 -0.030923  0.033684  0.013819      4.000000
  0.000000  0.067368  0.035210      4.000000
  0.030923  0.067368  0.056600      4.000000
  0.061846  0.067368  0.077991      4.000000
 -0.030923  0.067368  0.013819      4.000000
  0.000000  0.000000  0.070420      1.000000
  0.030923  0.000000  0.091810      2.000000
  0.061846  0.000000  0.113201      1.000000
  0.000000  0.033684  0.070420      2.000000
  0.030923  0.033684  0.091810      4.000000
  0.061846  0.033684  0.113201      2.000000
  0.000000  0.067368  0.070420      2.000000
  0.030923  0.067368  0.091810      4.000000
  0.061846  0.067368  0.113201      2.000000
 


--------------------------------------------------------------------------------------------------------




 Dimension of arrays:
   k-points           NKPTS =     30   k-points in BZ     NKDIM =     30   number of bands    NBANDS=     68
   number of dos      NEDOS =    301   number of ions     NIONS =     36
   non local maximal  LDIM  =      4   non local SUM 2l+1 LMDIM =      8
   total plane-waves  NPLWV = 483840
   max r-space proj   IRMAX =      1   max aug-charges    IRDMAX=   9616
   dimension x,y,z NGX =    84 NGY =   64 NGZ =   90
   dimension x,y,z NGXF=   168 NGYF=  128 NGZF=  180
   support grid    NGXF=   168 NGYF=  128 NGZF=  180
   ions per type =              20  16
   NGX,Y,Z   is equivalent  to a cutoff of  17.27, 17.92, 17.33 a.u.
   NGXF,Y,Z  is equivalent  to a cutoff of  34.55, 35.84, 34.66 a.u.

 SYSTEM =  unknown system                          
 POSCAR =   C  H                                   

 Startparameter for this run:
   NWRITE =      2    write-flag & timer
   PREC   = accura    normal or accurate (medium, high low for compatibility)
   ISTART =      0    job   : 0-new  1-cont  2-samecut
   ICHARG =      2    charge: 1-file 2-atom 10-const
   ISPIN  =      1    spin polarized calculation?
   LNONCOLLINEAR =      F non collinear calculations
   LSORBIT =      F    spin-orbit coupling
   INIWAV =      1    electr: 0-lowe 1-rand  2-diag
   LASPH  =      T    aspherical Exc in radial PAW
 Electronic Relaxation 1
   ENCUT  = 1000.0 eV  73.50 Ry    8.57 a.u.  20.85 15.31 22.26*2*pi/ulx,y,z
   ENINI  = 1000.0     initial cutoff
   ENAUG  = 1000.0 eV  augmentation charge cutoff
   NELM   =     60;   NELMIN=  2; NELMDL= -5     # of ELM steps 
   EDIFF  = 0.1E-06   stopping-criterion for ELM
   LREAL  =      F    real-space projection
   NLSPLINE    = F    spline interpolate recip. space projectors
   LCOMPAT=      F    compatible to vasp.4.4
   GGA_COMPAT  = T    GGA compatible to vasp.4.4-vasp.4.6
   LMAXPAW     = -100 max onsite density
   LMAXMIX     =    2 max onsite mixed and CHGCAR
   VOSKOWN=      0    Vosko Wilk Nusair interpolation
   ROPT   =    0.00000   0.00000
 Ionic relaxation
   EDIFFG = 0.1E-05   stopping-criterion for IOM
   NSW    =      0    number of steps for IOM
   NBLOCK =      1;   KBLOCK =      1    inner block; outer block 
   IBRION =     -1    ionic relax: 0-MD 1-quasi-New 2-CG
   NFREE  =      0    steps in history (QN), initial steepest desc. (CG)
   ISIF   =      0    stress and relaxation
   IWAVPR =     10    prediction:  0-non 1-charg 2-wave 3-comb
   ISYM   =      2    0-nonsym 1-usesym 2-fastsym
   LCORR  =      T    Harris-Foulkes like correction to forces

   POTIM  = 0.5000    time-step for ionic-motion
   TEIN   =    0.0    initial temperature
   TEBEG  =    0.0;   TEEND  =   0.0 temperature during run
   SMASS  =  -3.00    Nose mass-parameter (am)
   estimated Nose-frequenzy (Omega)   =  0.10E-29 period in steps = 0.13E+47 mass=  -0.149E-26a.u.
   SCALEE = 1.0000    scale energy and forces
   NPACO  =    256;   APACO  = 10.0  distance and # of slots for P.C.
   PSTRESS=    0.0 pullay stress

  Mass of Ions in am
   POMASS =  12.01  1.00
  Ionic Valenz
   ZVAL   =   4.00  1.00
  Atomic Wigner-Seitz radii
   RWIGS  =  -1.00 -1.00
  virtual crystal weights 
   VCA    =   1.00  1.00
   NELECT =      96.0000    total number of electrons
   NUPDOWN=      -1.0000    fix difference up-down

 DOS related values:
   EMIN   =  10.00;   EMAX   =-10.00  energy-range for DOS
   EFERMI =   0.00;   METHOD = LEGACY      
   ISMEAR =     0;   SIGMA  =   0.01  broadening in eV -4-tet -1-fermi 0-gaus

 Electronic relaxation 2 (details)
   IALGO  =     58    algorithm
   LDIAG  =      T    sub-space diagonalisation (order eigenvalues)
   LSUBROT=      F    optimize rotation matrix (better conditioning)
   TURBO    =      0    0=normal 1=particle mesh
   IRESTART =      0    0=no restart 2=restart with 2 vectors
   NREBOOT  =      0    no. of reboots
   NMIN     =      0    reboot dimension
   EREF     =   0.00    reference energy to select bands
   IMIX   =      4    mixing-type and parameters
     AMIX     =   0.40;   BMIX     =  1.00
     AMIX_MAG =   1.60;   BMIX_MAG =  1.00
     AMIN     =   0.10
     WC   =   100.;   INIMIX=   1;  MIXPRE=   1;  MAXMIX= -45

 Intra band minimization:
   WEIMIN = 0.0000     energy-eigenvalue tresh-hold
   EBREAK =  0.37E-09  absolut break condition
   DEPER  =   0.30     relativ break condition  

   TIME   =   0.40     timestep for ELM

  volume/ion in A,a.u.               =       9.47        63.89
  Fermi-wavevector in a.u.,A,eV,Ry     =   1.073130  2.027921 15.668575  1.151608
  Thomas-Fermi vector in A             =   2.208920

 Write flags
   LWAVE        =      F    write WAVECAR
   LDOWNSAMPLE  =      F    k-point downsampling of WAVECAR
   LCHARG       =      T    write CHGCAR
   LVTOT        =      F    write LOCPOT, total local potential
   LVHAR        =      F    write LOCPOT, Hartree potential only
   LELF         =      F    write electronic localiz. function (ELF)
   LORBIT       =      0    0 simple, 1 ext, 2 COOP (PROOUT), +10 PAW based schemes


 Dipole corrections
   LMONO  =      F    monopole corrections only (constant potential shift)
   LDIPOL =      F    correct potential (dipole corrections)
   IDIPOL =      0    1-x, 2-y, 3-z, 4-all directions 
   EPSILON=  1.0000000 bulk dielectric constant

 Exchange correlation treatment:
   GGA     =    RE    GGA type
   LEXCH   =    40    internal setting for exchange type
   LIBXC   =     F    Libxc                    
   VOSKOWN =     0    Vosko Wilk Nusair interpolation
   LHFCALC =     F    Hartree Fock is set to
   LHFONE  =     F    Hartree Fock one center treatment
   AEXX    =    0.0000 exact exchange contribution

 vdW DFT:
   LUSE_VDW   =     T    switch on vdW DFT
   IVDW_NL    =     1    kernel type
   LSPIN_VDW  =     F    use spin-polarized vdW DFT
   Zab_VDW    =-.8491    correlation parameter
   PARAM1     =0.1234
   PARAM2     =1.0000
   PARAM3     =0.0000
   -- rVV10 --
   BPARAM     = 6.3000
   CPARAM     = 0.0093

 Linear response parameters
   LEPSILON=     F    determine dielectric tensor
   LRPA    =     F    only Hartree local field effects (RPA)
   LNABLA  =     F    use nabla operator in PAW spheres
   LVEL    =     F    velocity operator in full k-point grid
   CSHIFT  =0.1000    complex shift for real part using Kramers Kronig
   OMEGAMAX=  -1.0    maximum frequency
   DEG_THRESHOLD= 0.2000000E-02 threshold for treating states as degnerate
   RTIME   =   -0.100 relaxation time in fs
  (WPLASMAI=    0.000 imaginary part of plasma frequency in eV, 0.658/RTIME)
   DFIELD  = 0.0000000 0.0000000 0.0000000 field for delta impulse in time

  Optional k-point grid parameters
   LKPOINTS_OPT  =     F    use optional k-point grid
   KPOINTS_OPT_MODE=     1    mode for optional k-point grid

 Orbital magnetization related:
   ORBITALMAG=     F  switch on orbital magnetization
   LCHIMAG   =     F  perturbation theory with respect to B field
   DQ        =  0.001000  dq finite difference perturbation B field
   LLRAUG    =     F  two centre corrections for induced B field
   LBONE     =     F  B-component reconstruction in AE one-centre
   LVGVCALC  =     T  calculate vGv susceptibility
   LVGVAPPL  =     F  apply vGv susceptibility instead of pGv for G=0

 Random number generation:
   RANDOM_GENERATOR = DEFAULT
   PCG_SEED         = not used


--------------------------------------------------------------------------------------------------------


 Static calculation
 charge density and potential will be updated during run
 non-spin polarized calculation
 Conjugate gradient for all bands (Freysoldt, et al. PRB 79, 241103 (2009))
 preconditioned conjugated gradient                                        
 perform sub-space diagonalisation
    before iterative eigenvector-optimisation
 modified Broyden-mixing scheme, WC =      100.0
 initial mixing is a Kerker type mixing with AMIX =  0.4000 and BMIX =      1.0000
 Hartree-type preconditioning will be used
 using additional bands           20
 reciprocal scheme for non local part
 use partial core corrections
 no Harris-corrections to forces 
 use gradient corrections 
 use of overlap-Matrix (Vanderbilt PP)
 Gauss-broadening in eV      SIGMA  =   0.01


--------------------------------------------------------------------------------------------------------


  energy-cutoff  :     1000.00
  volume of cell :      340.83
      direct lattice vectors                 reciprocal lattice vectors
     8.084600000  0.000000000  0.000000000     0.123691958 -0.000000000  0.085562126
     0.000000000  5.937500000  0.000000000     0.000000000  0.168421053 -0.000000000
    -4.911530000  0.000000000  7.100300000     0.000000000  0.000000000  0.140839119

  length of vectors
     8.084600000  5.937500000  8.633503752     0.150401389  0.168421053  0.140839119



 k-points in units of 2pi/SCALE and weight: auto                                    
   0.00000000  0.00000000  0.00000000       0.013
   0.03092299  0.00000000  0.02139053       0.025
   0.06184598  0.00000000  0.04278106       0.013
   0.00000000  0.03368421  0.00000000       0.025
   0.03092299  0.03368421  0.02139053       0.050
   0.06184598  0.03368421  0.04278106       0.025
   0.00000000  0.06736842  0.00000000       0.025
   0.03092299  0.06736842  0.02139053       0.050
   0.06184598  0.06736842  0.04278106       0.025
   0.00000000  0.00000000  0.03520978       0.025
   0.03092299  0.00000000  0.05660031       0.025
   0.06184598  0.00000000  0.07799084       0.025
  -0.03092299  0.00000000  0.01381925       0.025
   0.00000000  0.03368421  0.03520978       0.050
   0.03092299  0.03368421  0.05660031       0.050
   0.06184598  0.03368421  0.07799084       0.050
  -0.03092299  0.03368421  0.01381925       0.050
   0.00000000  0.06736842  0.03520978       0.050
   0.03092299  0.06736842  0.05660031       0.050
   0.06184598  0.06736842  0.07799084       0.050
  -0.03092299  0.06736842  0.01381925       0.050
   0.00000000  0.00000000  0.07041956       0.013
   0.03092299  0.00000000  0.09181009       0.025
   0.06184598  0.00000000  0.11320062       0.013
   0.00000000  0.03368421  0.07041956       0.025
   0.03092299  0.03368421  0.09181009       0.050
   0.06184598  0.03368421  0.11320062       0.025
   0.00000000  0.06736842  0.07041956       0.025
   0.03092299  0.06736842  0.09181009       0.050
   0.06184598  0.06736842  0.11320062       0.025

 k-points in reciprocal lattice and weights: auto                                    
   0.00000000  0.00000000  0.00000000       0.013
   0.25000000  0.00000000  0.00000000       0.025
   0.50000000  0.00000000  0.00000000       0.013
   0.00000000  0.20000000  0.00000000       0.025
   0.25000000  0.20000000  0.00000000       0.050
   0.50000000  0.20000000  0.00000000       0.025
   0.00000000  0.40000000  0.00000000       0.025
   0.25000000  0.40000000  0.00000000       0.050
   0.50000000  0.40000000  0.00000000       0.025
   0.00000000  0.00000000  0.25000000       0.025
   0.25000000  0.00000000  0.25000000       0.025
   0.50000000  0.00000000  0.25000000       0.025
  -0.25000000  0.00000000  0.25000000       0.025
   0.00000000  0.20000000  0.25000000       0.050
   0.25000000  0.20000000  0.25000000       0.050
   0.50000000  0.20000000  0.25000000       0.050
  -0.25000000  0.20000000  0.25000000       0.050
   0.00000000  0.40000000  0.25000000       0.050
   0.25000000  0.40000000  0.25000000       0.050
   0.50000000  0.40000000  0.25000000       0.050
  -0.25000000  0.40000000  0.25000000       0.050
   0.00000000  0.00000000  0.50000000       0.013
   0.25000000  0.00000000  0.50000000       0.025
   0.50000000  0.00000000  0.50000000       0.013
   0.00000000  0.20000000  0.50000000       0.025
   0.25000000  0.20000000  0.50000000       0.050
   0.50000000  0.20000000  0.50000000       0.025
   0.00000000  0.40000000  0.50000000       0.025
   0.25000000  0.40000000  0.50000000       0.050
   0.50000000  0.40000000  0.50000000       0.025

 position of ions in fractional coordinates (direct lattice) 
   0.08311171  0.01977855  0.33017493
   0.91688829  0.98022145  0.66982507
   0.41688833  0.51977855  0.66982514
   0.58311164  0.48022144  0.33017488
   0.11354672  0.16450424  0.22369205
   0.88645328  0.83549577  0.77630795
   0.38645327  0.66450426  0.77630802
   0.61354670  0.33549573  0.22369199
   0.04846826  0.10652005  0.03764854
   0.95153173  0.89347995  0.96235146
   0.45153187  0.60652015  0.96235159
   0.54846810  0.39347984  0.03764842
   0.07642135  0.25245721  0.92414873
   0.92357864  0.74754279  0.07585127
   0.42357869  0.75245723  0.07585143
   0.57642129  0.24754276  0.92414858
   0.01285194  0.19055106  0.74427663
   0.98714806  0.80944894  0.25572337
   0.48714801  0.69055102  0.25572348
   0.51285197  0.30944898  0.74427653
   0.13301441  0.06835955  0.47227175
   0.86698559  0.93164045  0.52772825
   0.36698569  0.56835957  0.52772844
   0.63301428  0.43164042  0.47227158
   0.18670841  0.32677472  0.28010955
   0.81329158  0.67322528  0.71989045
   0.31329160  0.82677475  0.71989047
   0.68670837  0.17322524  0.28010955
   0.14995134  0.41420032  0.98197643
   0.85004865  0.58579968  0.01802357
   0.35004869  0.91420025  0.01802360
   0.64995129  0.08579975  0.98197641
   0.03729240  0.30392285  0.65956986
   0.96270760  0.69607715  0.34043014
   0.46270747  0.80392290  0.34043022
   0.53729251  0.19607710  0.65956979

 position of ions in cartesian coordinates  (Angst):
  -0.94973915  0.11743516  2.34434104
   4.12280915  5.82006484  4.75595897
   0.08050915  3.08618512  4.75595941
   3.09256057  2.85131481  2.34434067
  -0.18069041  0.97674390  1.58828068
   3.35376039  4.96075611  5.51201933
  -0.68853999  3.94549402  5.51201981
   3.86160968  1.99200591  1.58828026
   0.20693460  0.63246278  0.26731594
   2.96613539  5.30503723  6.83298406
  -1.07616418  3.60121341  6.83298500
   4.24923388  2.33628652  0.26731509
  -3.92114814  1.49896467  6.56173323
   7.09421811  4.43853534  0.53856676
   3.05191766  4.46771482  0.53856792
   0.12115207  1.46978513  6.56173219
  -3.55163422  1.13139694  5.28458738
   6.72470421  4.80610307  1.81571263
   2.68240326  4.10014667  1.81571343
   0.49066648  1.83735330  5.28458667
  -1.24420859  0.40588482  3.35327114
   4.41727857  5.53161518  3.74702886
   0.37497846  3.37463495  3.74703023
   2.79809125  2.56286501  3.35326987
   0.13369636  1.94022491  1.98886185
   3.03937358  3.99727512  5.11143815
  -1.00292639  4.90897510  5.11143829
   4.17599609  1.02852488  1.98886180
  -3.61071009  2.45931442  6.97232726
   6.78378002  3.47818560  0.12797274
   2.74148016  5.42806396  0.12797299
   0.43158959  0.50943599  6.97232709
  -2.93800303  1.80454192  4.68314386
   6.11107300  4.13295810  2.41715615
   2.06877153  4.77329223  2.41715672
   1.10429822  1.16420776  4.68314336



--------------------------------------------------------------------------------------------------------


 k-point   1 :   0.0000 0.0000 0.0000  plane waves:   24413
 k-point   2 :   0.2500 0.0000 0.0000  plane waves:   24467
 k-point   3 :   0.5000 0.0000 0.0000  plane waves:   24492
 k-point   4 :   0.0000 0.2000 0.0000  plane waves:   24461
 k-point   5 :   0.2500 0.2000 0.0000  plane waves:   24481
 k-point   6 :   0.5000 0.2000 0.0000  plane waves:   24492
 k-point   7 :   0.0000 0.4000 0.0000  plane waves:   24482
 k-point   8 :   0.2500 0.4000 0.0000  plane waves:   24481
 k-point   9 :   0.5000 0.4000 0.0000  plane waves:   24484
 k-point  10 :   0.0000 0.0000 0.2500  plane waves:   24482
 k-point  11 :   0.2500 0.0000 0.2500  plane waves:   24508
 k-point  12 :   0.5000 0.0000 0.2500  plane waves:   24501
 k-point  13 :  -0.2500 0.0000 0.2500  plane waves:   24468
 k-point  14 :   0.0000 0.2000 0.2500  plane waves:   24485
 k-point  15 :   0.2500 0.2000 0.2500  plane waves:   24478
 k-point  16 :   0.5000 0.2000 0.2500  plane waves:   24483
 k-point  17 :  -0.2500 0.2000 0.2500  plane waves:   24454
 k-point  18 :   0.0000 0.4000 0.2500  plane waves:   24470
 k-point  19 :   0.2500 0.4000 0.2500  plane waves:   24459
 k-point  20 :   0.5000 0.4000 0.2500  plane waves:   24454
 k-point  21 :  -0.2500 0.4000 0.2500  plane waves:   24459
 k-point  22 :   0.0000 0.0000 0.5000  plane waves:   24468
 k-point  23 :   0.2500 0.0000 0.5000  plane waves:   24498
 k-point  24 :   0.5000 0.0000 0.5000  plane waves:   24486
 k-point  25 :   0.0000 0.2000 0.5000  plane waves:   24494
 k-point  26 :   0.2500 0.2000 0.5000  plane waves:   24479
 k-point  27 :   0.5000 0.2000 0.5000  plane waves:   24478
 k-point  28 :   0.0000 0.4000 0.5000  plane waves:   24466
 k-point  29 :   0.2500 0.4000 0.5000  plane waves:   24464
 k-point  30 :   0.5000 0.4000 0.5000  plane waves:   24482

 maximum and minimum number of plane-waves per node :       401      362

 maximum number of plane-waves:     24508
 maximum index in each direction: 
   IXMAX=   21   IYMAX=   15   IZMAX=   22
   IXMIN=  -21   IYMIN=  -15   IZMIN=  -22


 parallel 3D FFT for wavefunctions:
    minimum data exchange during FFTs selected (reduces bandwidth)
 parallel 3D FFT for charge:
    minimum data exchange during FFTs selected (reduces bandwidth)


 total amount of memory used by VASP MPI-rank0    44440. kBytes
=======================================================================

   base      :      30000. kBytes
   nonl-proj :       1731. kBytes
   fftplans  :       1151. kBytes
   grid      :       1763. kBytes
   one-center:          3. kBytes
   wavefun   :       9792. kBytes

     INWAV:  cpu time      0.0001: real time      0.0003
 Broyden mixing: mesh for mixing (old mesh)
   NGX = 41   NGY = 31   NGZ = 45
  (NGX  =168   NGY  =128   NGZ  =180)
  gives a total of  57195 points

 initial charge density was supplied:
 charge density of overlapping atoms calculated
 number of electron      96.0000000 magnetization 
 keeping initial charge density in first step


--------------------------------------------------------------------------------------------------------


 Maximum index for augmentation-charges          458 (set IRDMAX)


--------------------------------------------------------------------------------------------------------


 First call to EWALD:  gamma=   0.254
 Maximum number of real-space cells 3x 3x 3
 Maximum number of reciprocal cells 3x 2x 3

    FEWALD:  cpu time      0.0026: real time      0.0026


--------------------------------------- Ionic step        1  -------------------------------------------




--------------------------------------- Iteration      1(   1)  ---------------------------------------


vdW kernel read from vdw_kernel.bindat
  0.0000  0.2424  0.5071  0.7962  1.1119  1.4567  1.8333  2.2446  2.6937  3.1842
  3.7199  4.3049  4.9438  5.6415  6.4036  7.2358  8.1446  9.1372 10.2212 11.4050
 12.6979 14.1099 15.6519 17.3360 19.1751 21.1837 23.3773 25.7729 28.3892 31.2465
 34.3669 37.7748 41.4965 45.5611 50.0000

    POTLOK:  cpu time      1.3651: real time      1.3953
    SETDIJ:  cpu time      0.0708: real time      0.0712
    TRIAL :  cpu time      2.2517: real time      2.2536
    CORREC:  cpu time      0.0034: real time      0.0034
    --------------------------------------------
      LOOP:  cpu time      3.6956: real time      3.7282

 eigenvalue-minimisations  :  4080
 total energy-change (2. order) : 0.6830556E+03  (-0.6884571E+04)
 number of electron      96.0000000 magnetization 
 augmentation part       96.0000000 magnetization 

 Free energy of the ion-electron system (eV)
  ---------------------------------------------------
  alpha Z        PSCENC =        88.11361408
  Ewald energy   TEWEN  =     -1438.30069511
  -Hartree energ DENC   =     -1402.10230865
  -exchange      EXHF   =         0.00000000
  -V(xc)+E(xc)   XCENC  =       163.55626475
  PAW double counting   =      2318.53480377    -2200.77512433
  entropy T*S    EENTRO =        -0.00042195
  eigenvalues    EBANDS =       -40.40138599
  atomic energy  EATOM  =      3194.43083380
  ---------------------------------------------------
  free energy    TOTEN  =       683.05558037 eV

  energy without entropy =      683.05600232  energy(sigma->0) =      683.05579135


--------------------------------------------------------------------------------------------------------




--------------------------------------- Iteration      1(   2)  ---------------------------------------


    TRIAL :  cpu time      2.7381: real time      2.7394
    CORREC:  cpu time      0.0004: real time      0.0004
    --------------------------------------------
      LOOP:  cpu time      2.7502: real time      2.7693

 eigenvalue-minimisations  :  5340
 total energy-change (2. order) :-0.8068876E+03  (-0.7673640E+03)
 number of electron      96.0000000 magnetization 
 augmentation part       96.0000000 magnetization 

 Free energy of the ion-electron system (eV)
  ---------------------------------------------------
  alpha Z        PSCENC =        88.11361408
  Ewald energy   TEWEN  =     -1438.30069511
  -Hartree energ DENC   =     -1402.10230865
  -exchange      EXHF   =         0.00000000
  -V(xc)+E(xc)   XCENC  =       163.55626475
  PAW double counting   =      2318.53480377    -2200.77512433
  entropy T*S    EENTRO =        -0.00000000
  eigenvalues    EBANDS =      -847.28944958
  atomic energy  EATOM  =      3194.43083380
  ---------------------------------------------------
  free energy    TOTEN  =      -123.83206127 eV

  energy without entropy =     -123.83206127  energy(sigma->0) =     -123.83206127


--------------------------------------------------------------------------------------------------------




--------------------------------------- Iteration      1(   3)  ---------------------------------------


    TRIAL :  cpu time      2.5449: real time      2.5458
    CORREC:  cpu time      0.0005: real time      0.0005
    --------------------------------------------
      LOOP:  cpu time      2.5609: real time      2.5768

 eigenvalue-minimisations  :  5048
 total energy-change (2. order) :-0.1023731E+03  (-0.1014260E+03)
 number of electron      96.0000000 magnetization 
 augmentation part       96.0000000 magnetization 

 Free energy of the ion-electron system (eV)
  ---------------------------------------------------
  alpha Z        PSCENC =        88.11361408
  Ewald energy   TEWEN  =     -1438.30069511
  -Hartree energ DENC   =     -1402.10230865
  -exchange      EXHF   =         0.00000000
  -V(xc)+E(xc)   XCENC  =       163.55626475
  PAW double counting   =      2318.53480377    -2200.77512433
  entropy T*S    EENTRO =        -0.00000000
  eigenvalues    EBANDS =      -949.66255919
  atomic energy  EATOM  =      3194.43083380
  ---------------------------------------------------
  free energy    TOTEN  =      -226.20517088 eV

  energy without entropy =     -226.20517088  energy(sigma->0) =     -226.20517088


--------------------------------------------------------------------------------------------------------




--------------------------------------- Iteration      1(   4)  ---------------------------------------


    TRIAL :  cpu time      2.6249: real time      2.6265
    CORREC:  cpu time      0.0004: real time      0.0004
    --------------------------------------------
      LOOP:  cpu time      2.6438: real time      2.6568

 eigenvalue-minimisations  :  5280
 total energy-change (2. order) :-0.3525738E+01  (-0.3512154E+01)
 number of electron      96.0000000 magnetization 
 augmentation part       96.0000000 magnetization 

 Free energy of the ion-electron system (eV)
  ---------------------------------------------------
  alpha Z        PSCENC =        88.11361408
  Ewald energy   TEWEN  =     -1438.30069511
  -Hartree energ DENC   =     -1402.10230865
  -exchange      EXHF   =         0.00000000
  -V(xc)+E(xc)   XCENC  =       163.55626475
  PAW double counting   =      2318.53480377    -2200.77512433
  entropy T*S    EENTRO =        -0.00000000
  eigenvalues    EBANDS =      -953.18829697
  atomic energy  EATOM  =      3194.43083380
  ---------------------------------------------------
  free energy    TOTEN  =      -229.73090866 eV

  energy without entropy =     -229.73090866  energy(sigma->0) =     -229.73090866


--------------------------------------------------------------------------------------------------------




--------------------------------------- Iteration      1(   5)  ---------------------------------------


    TRIAL :  cpu time      2.7323: real time      2.7338
    CORREC:  cpu time      0.0003: real time      0.0003
    CHARGE:  cpu time      0.1877: real time      0.1889
    --------------------------------------------
      LOOP:  cpu time      2.9354: real time      2.9522

 eigenvalue-minimisations  :  5552
 total energy-change (2. order) :-0.1253284E+00  (-0.1251986E+00)
 number of electron      96.0000001 magnetization 
 augmentation part       -0.0551765 magnetization 

 Free energy of the ion-electron system (eV)
  ---------------------------------------------------
  alpha Z        PSCENC =        88.11361408
  Ewald energy   TEWEN  =     -1438.30069511
  -Hartree energ DENC   =     -1402.10230865
  -exchange      EXHF   =         0.00000000
  -V(xc)+E(xc)   XCENC  =       163.55626475
  PAW double counting   =      2318.53480377    -2200.77512433
  entropy T*S    EENTRO =        -0.00000000
  eigenvalues    EBANDS =      -953.31362533
  atomic energy  EATOM  =      3194.43083380
  ---------------------------------------------------
  free energy    TOTEN  =      -229.85623702 eV

  energy without entropy =     -229.85623702  energy(sigma->0) =     -229.85623702


--------------------------------------------------------------------------------------------------------




--------------------------------------- Iteration      1(   6)  ---------------------------------------


    POTLOK:  cpu time      0.7502: real time      0.7508
    SETDIJ:  cpu time      0.0642: real time      0.0642
    TRIAL :  cpu time      1.3324: real time      1.3342
    CORREC:  cpu time      1.6039: real time      1.6047
    CHARGE:  cpu time      0.1581: real time      0.1581
    --------------------------------------------
      LOOP:  cpu time      3.9206: real time      3.9400

 eigenvalue-minimisations  :     0
 total energy-change (2. order) : 0.3862632E+02  (-0.1482391E+02)
 number of electron      96.0000001 magnetization 
 augmentation part       -0.0884555 magnetization 

 Free energy of the ion-electron system (eV)
  ---------------------------------------------------
  alpha Z        PSCENC =        88.11361408
  Ewald energy   TEWEN  =     -1438.30069511
  -Hartree energ DENC   =     -1937.78768130
  -exchange      EXHF   =         0.00000000
  -V(xc)+E(xc)   XCENC  =       194.76238863
  PAW double counting   =     26594.99709948   -26481.24879520
  entropy T*S    EENTRO =        -0.00000000
  eigenvalues    EBANDS =      -406.19667670
  atomic energy  EATOM  =      3194.43083380
  ---------------------------------------------------
  free energy    TOTEN  =      -191.22991232 eV

  energy without entropy =     -191.22991232  energy(sigma->0) =     -191.22991232


--------------------------------------------------------------------------------------------------------




--------------------------------------- Iteration      1(   7)  ---------------------------------------


    POTLOK:  cpu time      0.7442: real time      0.7445
    SETDIJ:  cpu time      0.0643: real time      0.0643
    TRIAL :  cpu time      1.2957: real time      1.2960
    CORREC:  cpu time      1.5991: real time      1.5998
    CHARGE:  cpu time      0.1579: real time      0.1580
    --------------------------------------------
      LOOP:  cpu time      3.8914: real time      3.8931

 eigenvalue-minimisations  :     0
 total energy-change (2. order) :-0.1481957E+02  (-0.1604119E+01)
 number of electron      96.0000001 magnetization 
 augmentation part       -0.1147021 magnetization 

 Free energy of the ion-electron system (eV)
  ---------------------------------------------------
  alpha Z        PSCENC =        88.11361408
  Ewald energy   TEWEN  =     -1438.30069511
  -Hartree energ DENC   =     -1710.15553171
  -exchange      EXHF   =         0.00000000
  -V(xc)+E(xc)   XCENC  =       182.97022854
  PAW double counting   =     34143.40297830   -34027.91792878
  entropy T*S    EENTRO =        -0.00000000
  eigenvalues    EBANDS =      -638.59298589
  atomic energy  EATOM  =      3194.43083380
  ---------------------------------------------------
  free energy    TOTEN  =      -206.04948677 eV

  energy without entropy =     -206.04948677  energy(sigma->0) =     -206.04948677


--------------------------------------------------------------------------------------------------------




--------------------------------------- Iteration      1(   8)  ---------------------------------------


    POTLOK:  cpu time      0.8338: real time      0.8341
    SETDIJ:  cpu time      0.0656: real time      0.0656
    TRIAL :  cpu time      1.3124: real time      1.3126
    CORREC:  cpu time      1.5985: real time      1.5993
    CHARGE:  cpu time      0.1576: real time      0.1576
    --------------------------------------------
      LOOP:  cpu time      3.9852: real time      3.9991

 eigenvalue-minimisations  :     0
 total energy-change (2. order) :-0.1595253E+01  (-0.5153728E+00)
 number of electron      96.0000001 magnetization 
 augmentation part       -0.1150051 magnetization 

 Free energy of the ion-electron system (eV)
  ---------------------------------------------------
  alpha Z        PSCENC =        88.11361408
  Ewald energy   TEWEN  =     -1438.30069511
  -Hartree energ DENC   =     -1701.00901456
  -exchange      EXHF   =         0.00000000
  -V(xc)+E(xc)   XCENC  =       182.84101988
  PAW double counting   =     36836.75952406   -36721.04575643
  entropy T*S    EENTRO =        -0.00000000
  eigenvalues    EBANDS =      -649.43426513
  atomic energy  EATOM  =      3194.43083380
  ---------------------------------------------------
  free energy    TOTEN  =      -207.64473941 eV

  energy without entropy =     -207.64473941  energy(sigma->0) =     -207.64473941


--------------------------------------------------------------------------------------------------------




--------------------------------------- Iteration      1(   9)  ---------------------------------------


    POTLOK:  cpu time      0.7458: real time      0.7459
    SETDIJ:  cpu time      0.0641: real time      0.0643
    TRIAL :  cpu time      1.2959: real time      1.2962
    CORREC:  cpu time      1.5967: real time      1.5971
    CHARGE:  cpu time      0.1571: real time      0.1573
    --------------------------------------------
      LOOP:  cpu time      3.8736: real time      3.8905

 eigenvalue-minimisations  :     0
 total energy-change (2. order) :-0.5076084E+00  (-0.1409071E+00)
 number of electron      96.0000001 magnetization 
 augmentation part       -0.1152363 magnetization 

 Free energy of the ion-electron system (eV)
  ---------------------------------------------------
  alpha Z        PSCENC =        88.11361408
  Ewald energy   TEWEN  =     -1438.30069511
  -Hartree energ DENC   =     -1690.81282117
  -exchange      EXHF   =         0.00000000
  -V(xc)+E(xc)   XCENC  =       182.43028222
  PAW double counting   =     37037.71798855   -36921.91005990
  entropy T*S    EENTRO =        -0.00000000
  eigenvalues    EBANDS =      -659.82149026
  atomic energy  EATOM  =      3194.43083380
  ---------------------------------------------------
  free energy    TOTEN  =      -208.15234779 eV

  energy without entropy =     -208.15234779  energy(sigma->0) =     -208.15234779


--------------------------------------------------------------------------------------------------------




--------------------------------------- Iteration      1(  10)  ---------------------------------------


    POTLOK:  cpu time      0.7469: real time      0.7469
    SETDIJ:  cpu time      0.0643: real time      0.0643
    TRIAL :  cpu time      1.2949: real time      1.2955
    CORREC:  cpu time      1.5958: real time      1.5961
    CHARGE:  cpu time      0.1579: real time      0.1579
    --------------------------------------------
      LOOP:  cpu time      3.8741: real time      3.8918

 eigenvalue-minimisations  :     0
 total energy-change (2. order) :-0.1399826E+00  (-0.2962011E-01)
 number of electron      96.0000001 magnetization 
 augmentation part       -0.1156145 magnetization 

 Free energy of the ion-electron system (eV)
  ---------------------------------------------------
  alpha Z        PSCENC =        88.11361408
  Ewald energy   TEWEN  =     -1438.30069511
  -Hartree energ DENC   =     -1687.64499454
  -exchange      EXHF   =         0.00000000
  -V(xc)+E(xc)   XCENC  =       182.24504832
  PAW double counting   =     36221.77601557   -36105.99431933
  entropy T*S    EENTRO =        -0.00000000
  eigenvalues    EBANDS =      -662.91783318
  atomic energy  EATOM  =      3194.43083380
  ---------------------------------------------------
  free energy    TOTEN  =      -208.29233039 eV

  energy without entropy =     -208.29233039  energy(sigma->0) =     -208.29233039


--------------------------------------------------------------------------------------------------------




--------------------------------------- Iteration      1(  11)  ---------------------------------------


    POTLOK:  cpu time      0.7914: real time      0.7918
    SETDIJ:  cpu time      0.0643: real time      0.0643
    TRIAL :  cpu time      1.2956: real time      1.2962
    CORREC:  cpu time      1.6224: real time      1.6229
    CHARGE:  cpu time      0.1576: real time      0.1576
    --------------------------------------------
      LOOP:  cpu time      3.9566: real time      3.9633

 eigenvalue-minimisations  :     0
 total energy-change (2. order) :-0.2958141E-01  (-0.5942239E-02)
 number of electron      96.0000001 magnetization 
 augmentation part       -0.1156887 magnetization 

 Free energy of the ion-electron system (eV)
  ---------------------------------------------------
  alpha Z        PSCENC =        88.11361408
  Ewald energy   TEWEN  =     -1438.30069511
  -Hartree energ DENC   =     -1688.37565927
  -exchange      EXHF   =         0.00000000
  -V(xc)+E(xc)   XCENC  =       182.22516780
  PAW double counting   =     35852.41127459   -35736.66042962
  entropy T*S    EENTRO =        -0.00000000
  eigenvalues    EBANDS =      -662.16601808
  atomic energy  EATOM  =      3194.43083380
  ---------------------------------------------------
  free energy    TOTEN  =      -208.32191181 eV

  energy without entropy =     -208.32191181  energy(sigma->0) =     -208.32191181


--------------------------------------------------------------------------------------------------------




--------------------------------------- Iteration      1(  12)  ---------------------------------------


    POTLOK:  cpu time      0.7435: real time      0.7438
    SETDIJ:  cpu time      0.0644: real time      0.0644
    TRIAL :  cpu time      1.3063: real time      1.3069
    CORREC:  cpu time      1.6826: real time      1.6831
    CHARGE:  cpu time      0.1573: real time      0.1573
    --------------------------------------------
      LOOP:  cpu time      3.9685: real time      3.9864

 eigenvalue-minimisations  :     0
 total energy-change (2. order) :-0.5939558E-02  (-0.1239154E-02)
 number of electron      96.0000001 magnetization 
 augmentation part       -0.1156830 magnetization 

 Free energy of the ion-electron system (eV)
  ---------------------------------------------------
  alpha Z        PSCENC =        88.11361408
  Ewald energy   TEWEN  =     -1438.30069511
  -Hartree energ DENC   =     -1687.91814165
  -exchange      EXHF   =         0.00000000
  -V(xc)+E(xc)   XCENC  =       182.17799763
  PAW double counting   =     35844.71473804   -35728.96817884
  entropy T*S    EENTRO =        -0.00000000
  eigenvalues    EBANDS =      -662.57801930
  atomic energy  EATOM  =      3194.43083380
  ---------------------------------------------------
  free energy    TOTEN  =      -208.32785136 eV

  energy without entropy =     -208.32785136  energy(sigma->0) =     -208.32785136


--------------------------------------------------------------------------------------------------------




--------------------------------------- Iteration      1(  13)  ---------------------------------------


    POTLOK:  cpu time      0.7472: real time      0.7475
    SETDIJ:  cpu time      0.0656: real time      0.0656
    TRIAL :  cpu time      1.2949: real time      1.2955
    CORREC:  cpu time      1.5982: real time      1.5987
    CHARGE:  cpu time      0.1581: real time      0.1581
    --------------------------------------------
      LOOP:  cpu time      3.8803: real time      3.8952

 eigenvalue-minimisations  :     0
 total energy-change (2. order) :-0.1237892E-02  (-0.2536032E-03)
 number of electron      96.0000001 magnetization 
 augmentation part       -0.1155566 magnetization 

 Free energy of the ion-electron system (eV)
  ---------------------------------------------------
  alpha Z        PSCENC =        88.11361408
  Ewald energy   TEWEN  =     -1438.30069511
  -Hartree energ DENC   =     -1688.25437260
  -exchange      EXHF   =         0.00000000
  -V(xc)+E(xc)   XCENC  =       182.19004063
  PAW double counting   =     35879.91251332   -35764.16881884
  entropy T*S    EENTRO =        -0.00000000
  eigenvalues    EBANDS =      -662.25220453
  atomic energy  EATOM  =      3194.43083380
  ---------------------------------------------------
  free energy    TOTEN  =      -208.32908925 eV

  energy without entropy =     -208.32908925  energy(sigma->0) =     -208.32908925


--------------------------------------------------------------------------------------------------------




--------------------------------------- Iteration      1(  14)  ---------------------------------------


    POTLOK:  cpu time      0.7414: real time      0.7417
    SETDIJ:  cpu time      0.0643: real time      0.0643
    TRIAL :  cpu time      1.3053: real time      1.3056
    CORREC:  cpu time      1.5966: real time      1.5974
    CHARGE:  cpu time      0.1577: real time      0.1578
    --------------------------------------------
      LOOP:  cpu time      3.8792: real time      3.8962

 eigenvalue-minimisations  :     0
 total energy-change (2. order) :-0.2548421E-03  (-0.5458739E-04)
 number of electron      96.0000001 magnetization 
 augmentation part       -0.1154203 magnetization 

 Free energy of the ion-electron system (eV)
  ---------------------------------------------------
  alpha Z        PSCENC =        88.11361408
  Ewald energy   TEWEN  =     -1438.30069511
  -Hartree energ DENC   =     -1688.26910502
  -exchange      EXHF   =         0.00000000
  -V(xc)+E(xc)   XCENC  =       182.18975841
  PAW double counting   =     35892.71205883   -35776.96783316
  entropy T*S    EENTRO =        -0.00000000
  eigenvalues    EBANDS =      -662.23797592
  atomic energy  EATOM  =      3194.43083380
  ---------------------------------------------------
  free energy    TOTEN  =      -208.32934410 eV

  energy without entropy =     -208.32934410  energy(sigma->0) =     -208.32934410


--------------------------------------------------------------------------------------------------------




--------------------------------------- Iteration      1(  15)  ---------------------------------------


    POTLOK:  cpu time      0.7479: real time      0.7481
    SETDIJ:  cpu time      0.0643: real time      0.0643
    TRIAL :  cpu time      1.3133: real time      1.3137
    CORREC:  cpu time      1.8691: real time      1.8699
    CHARGE:  cpu time      0.1875: real time      0.1875
    --------------------------------------------
      LOOP:  cpu time      4.2098: real time      4.2115

 eigenvalue-minimisations  :     0
 total energy-change (2. order) :-0.5546833E-04  (-0.1187110E-04)
 number of electron      96.0000001 magnetization 
 augmentation part       -0.1153664 magnetization 

 Free energy of the ion-electron system (eV)
  ---------------------------------------------------
  alpha Z        PSCENC =        88.11361408
  Ewald energy   TEWEN  =     -1438.30069511
  -Hartree energ DENC   =     -1688.30093674
  -exchange      EXHF   =         0.00000000
  -V(xc)+E(xc)   XCENC  =       182.19155085
  PAW double counting   =     35892.34607155   -35776.60155938
  entropy T*S    EENTRO =        -0.00000000
  eigenvalues    EBANDS =      -662.20827862
  atomic energy  EATOM  =      3194.43083380
  ---------------------------------------------------
  free energy    TOTEN  =      -208.32939957 eV

  energy without entropy =     -208.32939957  energy(sigma->0) =     -208.32939957


--------------------------------------------------------------------------------------------------------




--------------------------------------- Iteration      1(  16)  ---------------------------------------


    POTLOK:  cpu time      0.7827: real time      0.7830
    SETDIJ:  cpu time      0.0643: real time      0.0643
    TRIAL :  cpu time      1.2967: real time      1.2973
    CORREC:  cpu time      1.6083: real time      1.6088
    CHARGE:  cpu time      0.1634: real time      0.1634
    --------------------------------------------
      LOOP:  cpu time      3.9319: real time      3.9491

 eigenvalue-minimisations  :     0
 total energy-change (2. order) :-0.1216320E-04  (-0.2662729E-05)
 number of electron      96.0000001 magnetization 
 augmentation part       -0.1153561 magnetization 

 Free energy of the ion-electron system (eV)
  ---------------------------------------------------
  alpha Z        PSCENC =        88.11361408
  Ewald energy   TEWEN  =     -1438.30069511
  -Hartree energ DENC   =     -1688.32095164
  -exchange      EXHF   =         0.00000000
  -V(xc)+E(xc)   XCENC  =       182.19272900
  PAW double counting   =     35892.89770142   -35777.15305131
  entropy T*S    EENTRO =        -0.00000000
  eigenvalues    EBANDS =      -662.18959197
  atomic energy  EATOM  =      3194.43083380
  ---------------------------------------------------
  free energy    TOTEN  =      -208.32941173 eV

  energy without entropy =     -208.32941173  energy(sigma->0) =     -208.32941173


--------------------------------------------------------------------------------------------------------




--------------------------------------- Iteration      1(  17)  ---------------------------------------


    POTLOK:  cpu time      0.7803: real time      0.7806
    SETDIJ:  cpu time      0.0643: real time      0.0643
    TRIAL :  cpu time      1.2917: real time      1.2923
    CORREC:  cpu time      1.6004: real time      1.6009
    CHARGE:  cpu time      0.1568: real time      0.1568
    --------------------------------------------
      LOOP:  cpu time      3.9058: real time      3.9237

 eigenvalue-minimisations  :     0
 total energy-change (2. order) :-0.2750396E-05  (-0.7543162E-06)
 number of electron      96.0000001 magnetization 
 augmentation part       -0.1153518 magnetization 

 Free energy of the ion-electron system (eV)
  ---------------------------------------------------
  alpha Z        PSCENC =        88.11361408
  Ewald energy   TEWEN  =     -1438.30069511
  -Hartree energ DENC   =     -1688.31826837
  -exchange      EXHF   =         0.00000000
  -V(xc)+E(xc)   XCENC  =       182.19271979
  PAW double counting   =     35894.54482252   -35778.80005860
  entropy T*S    EENTRO =        -0.00000000
  eigenvalues    EBANDS =      -662.19238259
  atomic energy  EATOM  =      3194.43083380
  ---------------------------------------------------
  free energy    TOTEN  =      -208.32941448 eV

  energy without entropy =     -208.32941448  energy(sigma->0) =     -208.32941448


--------------------------------------------------------------------------------------------------------




--------------------------------------- Iteration      1(  18)  ---------------------------------------


    POTLOK:  cpu time      0.7469: real time      0.7472
    SETDIJ:  cpu time      0.0657: real time      0.0657
    TRIAL :  cpu time      1.2918: real time      1.2921
    CORREC:  cpu time      1.6024: real time      1.6035
    CHARGE:  cpu time      0.1572: real time      0.1572
    --------------------------------------------
      LOOP:  cpu time      3.8767: real time      3.8936

 eigenvalue-minimisations  :     0
 total energy-change (2. order) :-0.7561248E-06  (-0.1747613E-06)
 number of electron      96.0000001 magnetization 
 augmentation part       -0.1153505 magnetization 

 Free energy of the ion-electron system (eV)
  ---------------------------------------------------
  alpha Z        PSCENC =        88.11361408
  Ewald energy   TEWEN  =     -1438.30069511
  -Hartree energ DENC   =     -1688.32320936
  -exchange      EXHF   =         0.00000000
  -V(xc)+E(xc)   XCENC  =       182.19306422
  PAW double counting   =     35895.08103904   -35779.33629422
  entropy T*S    EENTRO =        -0.00000000
  eigenvalues    EBANDS =      -662.18776769
  atomic energy  EATOM  =      3194.43083380
  ---------------------------------------------------
  free energy    TOTEN  =      -208.32941523 eV

  energy without entropy =     -208.32941523  energy(sigma->0) =     -208.32941523


--------------------------------------------------------------------------------------------------------




--------------------------------------- Iteration      1(  19)  ---------------------------------------


    POTLOK:  cpu time      0.7660: real time      0.7663
    SETDIJ:  cpu time      0.0644: real time      0.0644
    TRIAL :  cpu time      1.2937: real time      1.2940
    CORREC:  cpu time      1.5987: real time      1.5995
    CHARGE:  cpu time      0.1590: real time      0.1590
    --------------------------------------------
      LOOP:  cpu time      3.8951: real time      3.9120

 eigenvalue-minimisations  :     0
 total energy-change (2. order) :-0.1801200E-06  (-0.5753543E-07)
 number of electron      96.0000001 magnetization 
 augmentation part       -0.1153494 magnetization 

 Free energy of the ion-electron system (eV)
  ---------------------------------------------------
  alpha Z        PSCENC =        88.11361408
  Ewald energy   TEWEN  =     -1438.30069511
  -Hartree energ DENC   =     -1688.32082003
  -exchange      EXHF   =         0.00000000
  -V(xc)+E(xc)   XCENC  =       182.19295996
  PAW double counting   =     35894.60894115   -35778.86420126
  entropy T*S    EENTRO =        -0.00000000
  eigenvalues    EBANDS =      -662.19004800
  atomic energy  EATOM  =      3194.43083380
  ---------------------------------------------------
  free energy    TOTEN  =      -208.32941541 eV

  energy without entropy =     -208.32941541  energy(sigma->0) =     -208.32941541


--------------------------------------------------------------------------------------------------------




--------------------------------------- Iteration      1(  20)  ---------------------------------------


    POTLOK:  cpu time      0.7467: real time      0.7469
    SETDIJ:  cpu time      0.0644: real time      0.0644
    TRIAL :  cpu time      1.2928: real time      1.2931
    CORREC:  cpu time      1.6011: real time      1.6018
    EDDIAG:  cpu time      0.6896: real time      0.6907
    CHARGE:  cpu time      0.1571: real time      0.1572
    --------------------------------------------
      LOOP:  cpu time      4.5654: real time      4.5847

 eigenvalue-minimisations  :     0
 total energy-change (2. order) :-0.5291804E-07  (-0.1101507E-07)
 number of electron      96.0000001 magnetization 
 augmentation part       -0.1153498 magnetization 

 Free energy of the ion-electron system (eV)
  ---------------------------------------------------
  alpha Z        PSCENC =        88.11361408
  Ewald energy   TEWEN  =     -1438.30069511
  -Hartree energ DENC   =     -1688.32216093
  -exchange      EXHF   =         0.00000000
  -V(xc)+E(xc)   XCENC  =       182.19298425
  PAW double counting   =     35893.91006574   -35778.16534899
  entropy T*S    EENTRO =        -0.00000000
  eigenvalues    EBANDS =      -662.18870830
  atomic energy  EATOM  =      3194.43083380
  ---------------------------------------------------
  free energy    TOTEN  =      -208.32941547 eV

  energy without entropy =     -208.32941547  energy(sigma->0) =     -208.32941547


--------------------------------------------------------------------------------------------------------


  average scaling for gradient   0.9911


 average (electrostatic) potential at core
  the test charge radii are     0.5770  0.4325
  (the norm of the test charge is              1.0000)
       1 -81.7195       2 -81.7195       3 -81.7195       4 -81.7195       5 -81.6907
       6 -81.6907       7 -81.6907       8 -81.6907       9 -81.8770      10 -81.8769
      11 -81.8769      12 -81.8769      13 -81.6331      14 -81.6331      15 -81.6331
      16 -81.6331      17 -81.6970      18 -81.6969      19 -81.6970      20 -81.6970
      21 -41.1619      22 -41.1619      23 -41.1619      24 -41.1619      25 -41.1106
      26 -41.1105      27 -41.1105      28 -41.1105      29 -40.9809      30 -40.9809
      31 -40.9809      32 -40.9809      33 -41.0773      34 -41.0773      35 -41.0773
      36 -41.0773



 E-fermi :   0.0494     XC(G=0):  -8.1629     alpha+bet : -7.4633

 Fermi energy:         0.0493659516

 k-point     1 :       0.0000    0.0000    0.0000
  band No.  band energies     occupation 
      1     -16.5201      2.00000
      2     -16.3464      2.00000
      3     -15.0892      2.00000
      4     -15.0293      2.00000
      5     -13.7960      2.00000
      6     -13.7752      2.00000
      7     -13.1073      2.00000
      8     -13.0488      2.00000
      9     -12.4117      2.00000
     10     -12.3985      2.00000
     11     -10.1019      2.00000
     12     -10.0346      2.00000
     13      -9.7878      2.00000
     14      -9.7255      2.00000
     15      -9.5384      2.00000
     16      -9.3656      2.00000
     17      -7.4253      2.00000
     18      -7.3133      2.00000
     19      -7.2898      2.00000
     20      -7.1087      2.00000
     21      -6.9912      2.00000
     22      -6.8738      2.00000
     23      -5.6673      2.00000
     24      -5.5965      2.00000
     25      -5.5706      2.00000
     26      -5.4862      2.00000
     27      -4.7717      2.00000
     28      -4.7465      2.00000
     29      -4.7444      2.00000
     30      -4.7273      2.00000
     31      -4.6026      2.00000
     32      -4.4931      2.00000
     33      -4.1626      2.00000
     34      -3.8866      2.00000
     35      -3.6128      2.00000
     36      -3.4867      2.00000
     37      -3.2674      2.00000
     38      -3.0022      2.00000
     39      -2.8889      2.00000
     40      -2.6853      2.00000
     41      -2.4439      2.00000
     42      -2.4425      2.00000
     43      -2.1064      2.00000
     44      -1.5255      2.00000
     45      -0.9016      2.00000
     46      -0.8702      2.00000
     47      -0.2031      2.00000
     48      -0.2021      2.00000
     49       3.0458      0.00000
     50       3.3955      0.00000
     51       3.8509      0.00000
     52       4.0468      0.00000
     53       4.9396      0.00000
     54       5.1909      0.00000
     55       5.2039      0.00000
     56       6.0220      0.00000
     57       6.1710      0.00000
     58       6.9054      0.00000
     59       7.0948      0.00000
     60       7.2261      0.00000
     61       7.7509      0.00000
     62       7.8457      0.00000
     63       7.9661      0.00000
     64       7.9974      0.00000
     65       8.5094      0.00000
     66       8.6408      0.00000
     67       8.7695      0.00000
     68       9.0274      0.00000

 k-point     2 :       0.2500    0.0000    0.0000
  band No.  band energies     occupation 
      1     -16.4957      2.00000
      2     -16.3729      2.00000
      3     -15.0814      2.00000
      4     -15.0393      2.00000
      5     -13.7921      2.00000
      6     -13.7775      2.00000
      7     -13.0933      2.00000
      8     -13.0523      2.00000
      9     -12.4135      2.00000
     10     -12.4039      2.00000
     11     -10.0925      2.00000
     12     -10.0444      2.00000
     13      -9.7800      2.00000
     14      -9.7359      2.00000
     15      -9.5141      2.00000
     16      -9.3931      2.00000
     17      -7.4461      2.00000
     18      -7.3591      2.00000
     19      -7.2585      2.00000
     20      -7.1086      2.00000
     21      -6.9503      2.00000
     22      -6.8781      2.00000
     23      -5.6596      2.00000
     24      -5.5980      2.00000
     25      -5.5175      2.00000
     26      -5.4213      2.00000
     27      -4.8599      2.00000
     28      -4.8557      2.00000
     29      -4.7083      2.00000
     30      -4.6767      2.00000
     31      -4.5831      2.00000
     32      -4.4596      2.00000
     33      -4.1764      2.00000
     34      -3.9793      2.00000
     35      -3.6337      2.00000
     36      -3.5195      2.00000
     37      -3.1489      2.00000
     38      -2.9045      2.00000
     39      -2.8582      2.00000
     40      -2.6785      2.00000
     41      -2.5717      2.00000
     42      -2.4828      2.00000
     43      -2.0618      2.00000
     44      -1.6406      2.00000
     45      -0.8802      2.00000
     46      -0.8580      2.00000
     47      -0.2191      2.00000
     48      -0.2097      2.00000
     49       3.1085      0.00000
     50       3.3699      0.00000
     51       3.8804      0.00000
     52       4.0301      0.00000
     53       4.9371      0.00000
     54       5.1779      0.00000
     55       5.4804      0.00000
     56       6.1119      0.00000
     57       6.1382      0.00000
     58       6.7487      0.00000
     59       7.1319      0.00000
     60       7.1756      0.00000
     61       7.5083      0.00000
     62       7.7870      0.00000
     63       7.9382      0.00000
     64       8.2075      0.00000
     65       8.3072      0.00000
     66       8.5600      0.00000
     67       8.9378      0.00000
     68       9.0620      0.00000

 k-point     3 :       0.5000    0.0000    0.0000
  band No.  band energies     occupation 
      1     -16.4354      2.00000
      2     -16.4354      2.00000
      3     -15.0615      2.00000
      4     -15.0615      2.00000
      5     -13.7840      2.00000
      6     -13.7840      2.00000
      7     -13.0675      2.00000
      8     -13.0675      2.00000
      9     -12.4123      2.00000
     10     -12.4123      2.00000
     11     -10.0686      2.00000
     12     -10.0686      2.00000
     13      -9.7592      2.00000
     14      -9.7592      2.00000
     15      -9.4552      2.00000
     16      -9.4552      2.00000
     17      -7.4352      2.00000
     18      -7.4352      2.00000
     19      -7.1704      2.00000
     20      -7.1704      2.00000
     21      -6.8924      2.00000
     22      -6.8924      2.00000
     23      -5.6210      2.00000
     24      -5.6210      2.00000
     25      -5.4209      2.00000
     26      -5.4209      2.00000
     27      -4.9230      2.00000
     28      -4.9230      2.00000
     29      -4.6745      2.00000
     30      -4.6745      2.00000
     31      -4.4863      2.00000
     32      -4.4863      2.00000
     33      -4.1485      2.00000
     34      -4.1485      2.00000
     35      -3.5898      2.00000
     36      -3.5898      2.00000
     37      -2.8719      2.00000
     38      -2.8719      2.00000
     39      -2.8148      2.00000
     40      -2.8148      2.00000
     41      -2.6064      2.00000
     42      -2.6064      2.00000
     43      -1.8798      2.00000
     44      -1.8798      2.00000
     45      -0.8530      2.00000
     46      -0.8530      2.00000
     47      -0.2276      2.00000
     48      -0.2276      2.00000
     49       3.2522      0.00000
     50       3.2522      0.00000
     51       3.9646      0.00000
     52       3.9646      0.00000
     53       5.1101      0.00000
     54       5.1101      0.00000
     55       5.8117      0.00000
     56       5.8117      0.00000
     57       6.4312      0.00000
     58       6.4313      0.00000
     59       7.1845      0.00000
     60       7.1845      0.00000
     61       7.5363      0.00000
     62       7.5393      0.00000
     63       8.0824      0.00000
     64       8.0974      0.00000
     65       8.4096      0.00000
     66       8.4201      0.00000
     67       8.9589      0.00000
     68       9.4965      0.00000

 k-point     4 :       0.0000    0.2000    0.0000
  band No.  band energies     occupation 
[...]
     39      -2.7529      2.00000
     40      -2.7529      2.00000
     41      -2.4733      2.00000
     42      -2.4733      2.00000
     43      -1.8230      2.00000
     44      -1.8230      2.00000
     45      -0.9014      2.00000
     46      -0.9014      2.00000
     47      -0.1091      2.00000
     48      -0.1091      2.00000
     49       3.2286      0.00000
     50       3.2286      0.00000
     51       3.9708      0.00000
     52       3.9708      0.00000
     53       4.8755      0.00000
     54       4.8755      0.00000
     55       5.8833      0.00000
     56       5.8833      0.00000
     57       6.4650      0.00000
     58       6.4650      0.00000
     59       7.0502      0.00000
     60       7.0502      0.00000
     61       7.6709      0.00000
     62       7.6710      0.00000
     63       8.1562      0.00000
     64       8.1867      0.00000
     65       8.5144      0.00000
     66       8.5398      0.00000
     67       8.9724      0.00000
     68       9.1968      0.00000

 k-point    28 :       0.0000    0.4000    0.5000
  band No.  band energies     occupation 
      1     -16.4205      2.00000
      2     -16.3804      2.00000
      3     -15.0886      2.00000
      4     -15.0607      2.00000
      5     -13.8824      2.00000
      6     -13.8723      2.00000
      7     -13.0175      2.00000
      8     -12.9817      2.00000
      9     -12.4803      2.00000
     10     -12.4659      2.00000
     11     -10.2076      2.00000
     12     -10.1631      2.00000
     13      -9.7538      2.00000
     14      -9.7305      2.00000
     15      -9.2553      2.00000
     16      -9.2498      2.00000
     17      -7.3556      2.00000
     18      -7.2901      2.00000
     19      -7.2362      2.00000
     20      -7.2205      2.00000
     21      -6.6781      2.00000
     22      -6.6216      2.00000
     23      -5.7603      2.00000
     24      -5.7312      2.00000
     25      -5.4387      2.00000
     26      -5.4350      2.00000
     27      -5.0712      2.00000
     28      -5.0699      2.00000
     29      -4.8896      2.00000
     30      -4.8340      2.00000
     31      -4.4217      2.00000
     32      -4.3982      2.00000
     33      -4.2558      2.00000
     34      -4.1148      2.00000
     35      -3.7458      2.00000
     36      -3.6937      2.00000
     37      -2.9422      2.00000
     38      -2.9198      2.00000
     39      -2.7866      2.00000
     40      -2.7663      2.00000
     41      -2.5553      2.00000
     42      -2.4819      2.00000
     43      -1.7229      2.00000
     44      -1.5449      2.00000
     45      -0.9357      2.00000
     46      -0.8714      2.00000
     47      -0.1278      2.00000
     48      -0.0796      2.00000
     49       3.1389      0.00000
     50       3.2474      0.00000
     51       3.9129      0.00000
     52       4.0848      0.00000
     53       4.6629      0.00000
     54       4.7294      0.00000
     55       6.1804      0.00000
     56       6.2785      0.00000
     57       6.3918      0.00000
     58       6.4351      0.00000
     59       6.5522      0.00000
     60       6.7803      0.00000
     61       7.3666      0.00000
     62       7.3732      0.00000
     63       7.8678      0.00000
     64       8.0247      0.00000
     65       8.5953      0.00000
     66       8.7479      0.00000
     67       8.8858      0.00000
     68       9.1376      0.00000

 k-point    29 :       0.2500    0.4000    0.5000
  band No.  band energies     occupation 
      1     -16.4149      2.00000
      2     -16.3866      2.00000
      3     -15.0846      2.00000
      4     -15.0651      2.00000
      5     -13.8799      2.00000
      6     -13.8727      2.00000
      7     -13.0130      2.00000
      8     -12.9877      2.00000
      9     -12.4765      2.00000
     10     -12.4658      2.00000
     11     -10.2096      2.00000
     12     -10.1789      2.00000
     13      -9.7426      2.00000
     14      -9.7274      2.00000
     15      -9.2564      2.00000
     16      -9.2513      2.00000
     17      -7.3447      2.00000
     18      -7.2886      2.00000
     19      -7.2542      2.00000
     20      -7.2305      2.00000
     21      -6.6691      2.00000
     22      -6.6270      2.00000
     23      -5.7861      2.00000
     24      -5.7512      2.00000
     25      -5.4356      2.00000
     26      -5.4147      2.00000
     27      -5.0619      2.00000
     28      -4.9546      2.00000
     29      -4.8594      2.00000
     30      -4.8425      2.00000
     31      -4.4210      2.00000
     32      -4.3867      2.00000
     33      -4.2795      2.00000
     34      -4.1597      2.00000
     35      -3.7256      2.00000
     36      -3.6745      2.00000
     37      -3.1205      2.00000
     38      -3.0281      2.00000
     39      -2.8067      2.00000
     40      -2.7631      2.00000
     41      -2.4680      2.00000
     42      -2.3680      2.00000
     43      -1.7082      2.00000
     44      -1.5855      2.00000
     45      -0.9421      2.00000
     46      -0.8977      2.00000
     47      -0.0824      2.00000
     48      -0.0392      2.00000
     49       3.1386      0.00000
     50       3.2060      0.00000
     51       3.9752      0.00000
     52       4.0822      0.00000
     53       4.6574      0.00000
     54       4.6949      0.00000
     55       6.0346      0.00000
     56       6.2265      0.00000
     57       6.4357      0.00000
     58       6.4779      0.00000
     59       6.6752      0.00000
     60       6.9563      0.00000
     61       7.1757      0.00000
     62       7.4619      0.00000
     63       7.9942      0.00000
     64       8.1612      0.00000
     65       8.4649      0.00000
     66       8.7518      0.00000
     67       9.0234      0.00000
     68       9.1849      0.00000

 k-point    30 :       0.5000    0.4000    0.5000
  band No.  band energies     occupation 
      1     -16.4010      2.00000
      2     -16.4010      2.00000
      3     -15.0750      2.00000
      4     -15.0750      2.00000
      5     -13.8752      2.00000
      6     -13.8752      2.00000
      7     -13.0011      2.00000
      8     -13.0011      2.00000
      9     -12.4692      2.00000
     10     -12.4692      2.00000
     11     -10.2029      2.00000
     12     -10.2029      2.00000
     13      -9.7282      2.00000
     14      -9.7282      2.00000
     15      -9.2551      2.00000
     16      -9.2551      2.00000
     17      -7.3139      2.00000
     18      -7.3139      2.00000
     19      -7.2527      2.00000
     20      -7.2527      2.00000
     21      -6.6463      2.00000
     22      -6.6463      2.00000
     23      -5.7892      2.00000
     24      -5.7892      2.00000
     25      -5.4192      2.00000
     26      -5.4192      2.00000
     27      -4.9352      2.00000
     28      -4.9352      2.00000
     29      -4.8435      2.00000
     30      -4.8435      2.00000
     31      -4.4142      2.00000
     32      -4.4142      2.00000
     33      -4.2377      2.00000
     34      -4.2377      2.00000
     35      -3.6797      2.00000
     36      -3.6797      2.00000
     37      -3.1825      2.00000
     38      -3.1825      2.00000
     39      -2.8166      2.00000
     40      -2.8166      2.00000
     41      -2.3345      2.00000
     42      -2.3345      2.00000
     43      -1.6586      2.00000
     44      -1.6586      2.00000
     45      -0.9354      2.00000
     46      -0.9354      2.00000
     47      -0.0192      2.00000
     48      -0.0192      2.00000
     49       3.1523      0.00000
     50       3.1523      0.00000
     51       4.0664      0.00000
     52       4.0664      0.00000
     53       4.6521      0.00000
     54       4.6521      0.00000
     55       6.1137      0.00000
     56       6.1137      0.00000
     57       6.3757      0.00000
     58       6.3757      0.00000
     59       6.8721      0.00000
     60       6.8721      0.00000
     61       7.4380      0.00000
     62       7.4382      0.00000
     63       8.0773      0.00000
     64       8.0900      0.00000
     65       8.7193      0.00000
     66       8.7408      0.00000
     67       9.0652      0.00000
     68       9.1130      0.00000


--------------------------------------------------------------------------------------------------------


 soft charge-density along one line, spin component           1
         0         1         2         3         4         5         6         7         8         9
 total charge-density along one line

 pseudopotential strength for first ion, spin component:           1
 12.519  21.064  -0.001   0.000  -0.001  -0.002   0.001  -0.001
 21.064  35.442  -0.002   0.001  -0.001  -0.003   0.001  -0.002
 -0.001  -0.002  -3.099   0.001   0.004  -5.549   0.002   0.007
  0.000   0.001   0.001  -3.099  -0.003   0.002  -5.549  -0.006
 -0.001  -0.001   0.004  -0.003  -3.105   0.007  -0.006  -5.559
 -0.002  -0.003  -5.549   0.002   0.007  -9.913   0.003   0.013
  0.001   0.001   0.002  -5.549  -0.006   0.003  -9.914  -0.010
 -0.001  -0.002   0.007  -0.006  -5.559   0.013  -0.010  -9.931
 total augmentation occupancy for first ion, spin component:           1
  7.191  -2.411  -0.004  -0.706   0.299   0.009   0.316  -0.130
 -2.411   0.839   0.013   0.330  -0.135  -0.009  -0.144   0.057
 -0.004   0.013   6.351   0.361   1.614  -2.079  -0.138  -0.632
 -0.706   0.330   0.361   5.984  -1.164  -0.138  -1.912   0.447
  0.299  -0.135   1.614  -1.164   4.227  -0.632   0.447  -1.247
  0.009  -0.009  -2.079  -0.138  -0.632   0.694   0.049   0.239
  0.316  -0.144  -0.138  -1.912   0.447   0.049   0.621  -0.165
 -0.130   0.057  -0.632   0.447  -1.247   0.239  -0.165   0.381


------------------------ aborting loop because EDIFF is reached ----------------------------------------


    FORLOC:  cpu time      0.0067: real time      0.0067
    FORNL :  cpu time      0.5792: real time      0.5792
    FORCOR:  cpu time      0.9005: real time      0.9010
    OFIELD:  cpu time      0.0018: real time      0.0019

 VOLUME and BASIS-vectors are now :
 -----------------------------------------------------------------------------
  energy-cutoff  :     1000.00
  volume of cell :      340.83
      direct lattice vectors                 reciprocal lattice vectors
     8.084600000  0.000000000  0.000000000     0.123691958 -0.000000000  0.085562126
     0.000000000  5.937500000  0.000000000     0.000000000  0.168421053 -0.000000000
    -4.911530000  0.000000000  7.100300000     0.000000000  0.000000000  0.140839119

  length of vectors
     8.084600000  5.937500000  8.633503752     0.150401389  0.168421053  0.140839119


 FORCES acting on ions:
    Electron-Ion                     Ewald-Force                    Non-Local-Force
 -----------------------------------------------------------------------------------------------
   0.308E+02 -.222E+02 -.130E+03   -.303E+02 0.228E+02 0.130E+03   -.544E+00 -.535E+00 0.733E+00
   -.308E+02 0.222E+02 0.130E+03   0.303E+02 -.228E+02 -.130E+03   0.544E+00 0.535E+00 -.733E+00
   -.308E+02 -.222E+02 0.130E+03   0.303E+02 0.228E+02 -.130E+03   0.544E+00 -.535E+00 -.733E+00
   0.308E+02 0.222E+02 -.130E+03   -.303E+02 -.228E+02 0.130E+03   -.544E+00 0.535E+00 0.733E+00
   -.278E+02 -.925E+02 -.867E+02   0.274E+02 0.924E+02 0.874E+02   0.500E+00 0.380E+00 -.531E+00
   0.278E+02 0.925E+02 0.867E+02   -.274E+02 -.924E+02 -.874E+02   -.500E+00 -.380E+00 0.531E+00
   0.278E+02 -.925E+02 0.867E+02   -.274E+02 0.924E+02 -.874E+02   -.500E+00 0.380E+00 0.531E+00
   -.278E+02 0.925E+02 -.867E+02   0.274E+02 -.924E+02 0.874E+02   0.500E+00 -.380E+00 -.531E+00
   -.126E+02 -.381E+02 -.238E+02   0.127E+02 0.385E+02 0.239E+02   -.138E+00 -.422E+00 -.725E-01
   0.126E+02 0.381E+02 0.238E+02   -.127E+02 -.385E+02 -.239E+02   0.138E+00 0.422E+00 0.725E-01
   0.126E+02 -.381E+02 0.238E+02   -.127E+02 0.385E+02 -.239E+02   0.138E+00 -.422E+00 0.725E-01
   -.126E+02 0.381E+02 -.238E+02   0.127E+02 -.385E+02 0.239E+02   -.138E+00 0.422E+00 -.725E-01
   -.282E+02 -.956E+02 -.893E+01   0.288E+02 0.963E+02 0.845E+01   -.564E+00 -.401E+00 0.603E+00
   0.282E+02 0.956E+02 0.893E+01   -.288E+02 -.963E+02 -.845E+01   0.564E+00 0.401E+00 -.603E+00
   0.282E+02 -.956E+02 0.893E+01   -.288E+02 0.963E+02 -.845E+01   0.564E+00 -.401E+00 -.603E+00
   -.282E+02 0.956E+02 -.893E+01   0.288E+02 -.963E+02 0.845E+01   -.564E+00 0.401E+00 0.603E+00
   -.581E+02 -.649E+02 0.101E+03   0.580E+02 0.653E+02 -.998E+02   0.261E+00 -.284E+00 -.105E+01
   0.581E+02 0.649E+02 -.101E+03   -.580E+02 -.653E+02 0.998E+02   -.261E+00 0.284E+00 0.105E+01
   0.581E+02 -.649E+02 -.101E+03   -.580E+02 0.653E+02 0.998E+02   -.261E+00 -.284E+00 0.105E+01
   -.581E+02 0.649E+02 0.101E+03   0.580E+02 -.653E+02 -.998E+02   0.261E+00 0.284E+00 -.105E+01
   0.135E+02 -.139E+02 -.469E+02   -.151E+02 0.155E+02 0.522E+02   0.157E+01 -.160E+01 -.546E+01
   -.135E+02 0.139E+02 0.469E+02   0.151E+02 -.155E+02 -.522E+02   -.157E+01 0.160E+01 0.546E+01
   -.135E+02 -.139E+02 0.469E+02   0.151E+02 0.155E+02 -.522E+02   -.157E+01 -.160E+01 0.546E+01
   0.135E+02 0.139E+02 -.469E+02   -.151E+02 -.155E+02 0.522E+02   0.157E+01 0.160E+01 -.546E+01
   -.129E+02 -.441E+02 -.288E+02   0.146E+02 0.493E+02 0.310E+02   -.170E+01 -.523E+01 -.217E+01
   0.129E+02 0.441E+02 0.288E+02   -.146E+02 -.493E+02 -.310E+02   0.170E+01 0.523E+01 0.217E+01
   0.129E+02 -.441E+02 0.288E+02   -.146E+02 0.493E+02 -.310E+02   0.170E+01 -.523E+01 0.217E+01
   -.129E+02 0.441E+02 -.288E+02   0.146E+02 -.493E+02 0.310E+02   -.170E+01 0.523E+01 -.217E+01
   -.855E+01 -.419E+02 -.133E+02   0.102E+02 0.470E+02 0.154E+02   -.173E+01 -.526E+01 -.223E+01
   0.855E+01 0.419E+02 0.133E+02   -.102E+02 -.470E+02 -.154E+02   0.173E+01 0.526E+01 0.223E+01
   0.855E+01 -.419E+02 0.133E+02   -.102E+02 0.470E+02 -.154E+02   0.173E+01 -.526E+01 0.223E+01
   -.855E+01 0.419E+02 -.133E+02   0.102E+02 -.470E+02 0.154E+02   -.173E+01 0.526E+01 -.223E+01
   -.275E+02 -.326E+02 0.372E+02   0.308E+02 0.363E+02 -.404E+02   -.332E+01 -.366E+01 0.321E+01
   0.275E+02 0.326E+02 -.372E+02   -.308E+02 -.363E+02 0.404E+02   0.332E+01 0.366E+01 -.321E+01
   0.275E+02 -.326E+02 -.372E+02   -.308E+02 0.363E+02 0.404E+02   0.332E+01 -.366E+01 -.321E+01
   -.275E+02 0.326E+02 0.372E+02   0.308E+02 -.363E+02 -.404E+02   -.332E+01 0.366E+01 0.321E+01
 -----------------------------------------------------------------------------------------------
   0.101E-02 -.185E-02 0.156E-02   -.746E-13 -.284E-13 -.234E-12   0.000E+00 0.222E-14 0.000E+00


 POSITION                                       TOTAL-FORCE (eV/Angst)
 -----------------------------------------------------------------------------------
     -0.94974      0.11744      2.34434        -0.070415      0.083637      0.281594
      4.12281      5.82006      4.75596         0.070415     -0.083637     -0.281594
      0.08051      3.08619      4.75596         0.070415      0.083637     -0.281594
      3.09256      2.85131      2.34434        -0.070415     -0.083637      0.281594
     -0.18069      0.97674      1.58828         0.084563      0.244036      0.132547
      3.35376      4.96076      5.51202        -0.084563     -0.244036     -0.132547
     -0.68854      3.94549      5.51202        -0.084563      0.244036     -0.132547
      3.86161      1.99201      1.58828         0.084563     -0.244036      0.132547
      0.20693      0.63246      0.26732         0.007646      0.030038      0.011727
      2.96614      5.30504      6.83298        -0.007646     -0.030038     -0.011727
     -1.07616      3.60121      6.83298        -0.007646      0.030038     -0.011727
      4.24923      2.33629      0.26732         0.007646     -0.030038      0.011727
     -3.92115      1.49896      6.56173         0.082773      0.268236      0.080170
      7.09422      4.43854      0.53857        -0.082773     -0.268236     -0.080170
      3.05192      4.46771      0.53857        -0.082773      0.268236     -0.080170
      0.12115      1.46979      6.56173         0.082773     -0.268236      0.080170
     -3.55163      1.13140      5.28459         0.150621      0.181997     -0.148470
      6.72470      4.80610      1.81571        -0.150621     -0.181997      0.148470
      2.68240      4.10015      1.81571        -0.150621      0.181997      0.148470
      0.49067      1.83735      5.28459         0.150621     -0.181997     -0.148470
     -1.24421      0.40588      3.35327         0.023982     -0.022239     -0.088504
      4.41728      5.53162      3.74703        -0.023982      0.022239      0.088504
      0.37498      3.37463      3.74703        -0.023982     -0.022239      0.088504
      2.79809      2.56287      3.35327         0.023982      0.022239     -0.088504
      0.13370      1.94022      1.98886        -0.033500     -0.089125     -0.029402
      3.03937      3.99728      5.11144         0.033500      0.089125      0.029402
     -1.00293      4.90898      5.11144         0.033500     -0.089125      0.029402
      4.17600      1.02852      1.98886        -0.033500      0.089125     -0.029402
     -3.61071      2.45931      6.97233        -0.049528     -0.113728     -0.061457
      6.78378      3.47819      0.12797         0.049528      0.113728      0.061457
      2.74148      5.42806      0.12797         0.049528     -0.113728      0.061457
      0.43159      0.50944      6.97233        -0.049528      0.113728     -0.061457
     -2.93800      1.80454      4.68314        -0.046360     -0.044573      0.030102
      6.11107      4.13296      2.41716         0.046360      0.044573     -0.030102
      2.06877      4.77329      2.41716         0.046360     -0.044573     -0.030102
      1.10430      1.16421      4.68314        -0.046360      0.044573      0.030102
 -----------------------------------------------------------------------------------
    total drift:                                0.001009     -0.001849      0.001563


--------------------------------------------------------------------------------------------------------



  FREE ENERGIE OF THE ION-ELECTRON SYSTEM (eV)
  ---------------------------------------------------
  free  energy   TOTEN  =      -208.32941547 eV

  energy  without entropy=     -208.32941547  energy(sigma->0) =     -208.32941547



--------------------------------------------------------------------------------------------------------


    POTLOK:  cpu time      0.8221: real time      0.8224


--------------------------------------------------------------------------------------------------------


 stress matrix after NEB project (eV)
      0.00000      0.00000      0.00000
      0.00000      0.00000      0.00000
      0.00000      0.00000      0.00000
  FORCES: max atom, RMS     0.302073    0.206220
  FORCE total and by dimension    1.237320    0.281594
  Stress total and by dimension    0.000000    0.000000
     LOOP+:  cpu time     82.3606: real time     82.7319
    4ORBIT:  cpu time      0.0000: real time      0.0000

 total amount of memory used by VASP MPI-rank0    44440. kBytes
=======================================================================

   base      :      30000. kBytes
   nonl-proj :       1731. kBytes
   fftplans  :       1151. kBytes
   grid      :       1763. kBytes
   one-center:          3. kBytes
   wavefun   :       9792. kBytes

  
  
 General timing and accounting informations for this job:
 ========================================================
  
                  Total CPU time used (sec):      108.831
                            User time (sec):      105.659
                          System time (sec):        3.172
                         Elapsed time (sec):      112.980
  
                   Maximum memory used (kb):      299548.
                   Average memory used (kb):          N/A
  
                          Minor page faults:       170381
                          Major page faults:          291
                 Voluntary context switches:         6127
