 vasp.6.4.1 05Apr23 (build Jun  6 2023 14:36:51) complex                         
 executed on        HPECrayEX_GCC date 2024.08.20  14:29:36
 running  256 mpi-ranks, with    1 threads/rank, on    2 nodes
 distrk:  each k-point on  256 cores,    1 groups
 distr:  one band on NCORE=   2 cores,  128 groups


--------------------------------------------------------------------------------------------------------


 INCAR:
   ALGO = Conjugate
   NCORE = 2
   PREC = Accurate
   EDIFF = 1E-7
   ENCUT = 1000
   ISMEAR = 0
   SIGMA = 0.01
   ISIF = 0
   SYMPREC = 1E-7
   GGA = B5
   ALDAX = 1.0
   AGGAX = 1.0
   AGGAC = 1.0
   ALDAC = 0.0
   IVDW = 11
   VDW_S8 = 1.682
   VDW_SR = 1.094
   LWAVE = .FALSE.
   LCHARGE = .FALSE.
   LWAVE = .FALSE.
   LCHARGE = .FALSE.

 POTCAR:    PAW_PBE C_h 06Feb2004                 
 POTCAR:    PAW_PBE H_h 06Feb2004                 
 POTCAR:    PAW_PBE C_h 06Feb2004                 
   VRHFIN =C: s2p2                                                                                  
   LEXCH  = PE                                                                                      
   EATOM  =   147.1560 eV,   10.8157 Ry                                                             
                                                                                                    
   TITEL  = PAW_PBE C_h 06Feb2004                                                                   
   LULTRA =        F    use ultrasoft PP ?                                                          
   IUNSCR =        1    unscreen: 0-lin 1-nonlin 2-no                                               
   RPACOR =    0.800    partial core radius                                                         
   POMASS =   12.011; ZVAL   =    4.000    mass and valenz                                          
   RCORE  =    1.100    outmost cutoff radius                                                       
   RWIGS  =    1.630; RWIGS  =    0.863    wigner-seitz radius (au A)                               
   ENMAX  =  700.000; ENMIN  =  500.000 eV                                                          
   ICORE  =        2    local potential                                                             
   LCOR   =        T    correct aug charges                                                         
   LPAW   =        T    paw PP                                                                      
   EAUG   =  946.768                                                                                
   DEXC   =    0.000                                                                                
   RMAX   =    1.128    core radius for proj-oper                                                   
   RAUG   =    1.300    factor for augmentation sphere                                              
   RDEP   =    1.162    radius for radial grids                                                     
   RDEPT  =    1.088    core radius for aug-charge                                                  
                                                                                                    
   Atomic configuration                                                                             
    4 entries                                                                                       
     n  l   j            E        occ.                                                              
     1  0  0.50      -273.3789   2.0000                                                             
     2  0  0.50       -13.7508   2.0000                                                             
     2  1  0.50        -5.2854   2.0000                                                             
     3  2  1.50        -5.4423   0.0000                                                             
   Description                                                                                      
     l       E           TYP  RCUT    TYP  RCUT                                                     
     0    -13.7508458     23  1.100                                                                 
     0     -8.2022199     23  1.100                                                                 
     1     -5.2854383     23  1.100                                                                 
     1      1.1560700     23  1.100                                                                 
     2     -5.4423304      7  1.100                                                                 
  local pseudopotential read in
  partial core-charges read in
  partial kinetic energy density read in
  atomic valenz-charges read in
  non local Contribution for L=           0  read in
    real space projection operators read in
  non local Contribution for L=           0  read in
    real space projection operators read in
  non local Contribution for L=           1  read in
    real space projection operators read in
  non local Contribution for L=           1  read in
    real space projection operators read in
    PAW grid and wavefunctions read in

   number of l-projection  operators is LMAX  =           4
   number of lm-projection operators is LMMAX =           8

 POTCAR:    PAW_PBE H_h 06Feb2004                 
   VRHFIN =H: ultrasoft test                                                                        
   LEXCH  = PE                                                                                      
   EATOM  =    12.4884 eV,    0.9179 Ry                                                             
                                                                                                    
   TITEL  = PAW_PBE H_h 06Feb2004                                                                   
   LULTRA =        F    use ultrasoft PP ?                                                          
   IUNSCR =        0    unscreen: 0-lin 1-nonlin 2-no                                               
   RPACOR =    0.000    partial core radius                                                         
   POMASS =    1.000; ZVAL   =    1.000    mass and valenz                                          
   RCORE  =    0.800    outmost cutoff radius                                                       
   RWIGS  =    0.700; RWIGS  =    0.370    wigner-seitz radius (au A)                               
   ENMAX  =  700.000; ENMIN  =  350.000 eV                                                          
   RCLOC  =    0.701    cutoff for local pot                                                        
   LCOR   =        T    correct aug charges                                                         
   LPAW   =        T    paw PP                                                                      
   EAUG   = 1000.000                                                                                
   RMAX   =    0.819    core radius for proj-oper                                                   
   RAUG   =    1.000    factor for augmentation sphere                                              
   RDEP   =    0.817    radius for radial grids                                                     
   RDEPT  =    0.817    core radius for aug-charge                                                  
                                                                                                    
   Atomic configuration                                                                             
    2 entries                                                                                       
     n  l   j            E        occ.                                                              
     1  0  0.50        -6.4927   1.0000                                                             
     2  1  0.50        -3.4015   0.0000                                                             
   Description                                                                                      
     l       E           TYP  RCUT    TYP  RCUT                                                     
     0     -6.4927493     23  0.800                                                                 
     0      6.8029130     23  0.800                                                                 
     1     -6.8029130     23  0.800                                                                 
  local pseudopotential read in
  atomic valenz-charges read in
  non local Contribution for L=           0  read in
    real space projection operators read in
  non local Contribution for L=           0  read in
    real space projection operators read in
  non local Contribution for L=           1  read in
    real space projection operators read in
    PAW grid and wavefunctions read in

   number of l-projection  operators is LMAX  =           3
   number of lm-projection operators is LMMAX =           5

 -----------------------------------------------------------------------------
|                                                                             |
|               ----> ADVICE to this user running VASP <----                  |
|                                                                             |
|     You have a (more or less) 'large supercell' and for larger cells it     |
|     might be more efficient to use real-space projection operators.         |
|     Therefore, try LREAL= Auto in the INCAR file.                           |
|     Mind: For very accurate calculation, you might also keep the            |
|     reciprocal projection scheme (i.e. LREAL=.FALSE.).                      |
|                                                                             |
 -----------------------------------------------------------------------------

 -----------------------------------------------------------------------------
|                                                                             |
|               ----> ADVICE to this user running VASP <----                  |
|                                                                             |
|     You enforced a specific xc type in the INCAR file but a different       |
|     type was found in the POTCAR file.                                      |
|     I HOPE YOU KNOW WHAT YOU ARE DOING!                                     |
|                                                                             |
 -----------------------------------------------------------------------------

  PAW_PBE C_h 06Feb2004                 :
 energy of atom  1       EATOM= -147.1560
 kinetic energy error for atom=    0.0031 (will be added to EATOM!!)
  PAW_PBE H_h 06Feb2004                 :
 energy of atom  2       EATOM=  -12.4884
 kinetic energy error for atom=    0.0006 (will be added to EATOM!!)


 POSCAR:  C  H
  positions in cartesian coordinates
  No initial velocities read in
 exchange correlation table for  LEXCH =       12
   RHO(1)=    0.500       N(1)  =     2000
   RHO(2)=  100.500       N(2)  =     4000

 VTST: version 4.1, (05/19/21)

 CHAIN: initializing optimizer
 
 OPT: Using VASP Dynamics algorithm
 CHAIN: Read ICHAIN            0

 POSCAR:  C  H
  positions in cartesian coordinates
  No initial velocities read in



--------------------------------------------------------------------------------------------------------


 ion  position               nearest neighbor table
   1  0.083  0.020  0.330-  21 1.09   5 1.38  18 1.42
   2  0.917  0.980  0.670-  22 1.09   6 1.38  17 1.42
   3  0.417  0.520  0.670-  23 1.09   7 1.38  20 1.42
   4  0.583  0.480  0.330-  24 1.09   8 1.38  19 1.42
   5  0.114  0.165  0.224-  25 1.09   1 1.38   9 1.42
   6  0.886  0.835  0.776-  26 1.09   2 1.38  10 1.42
   7  0.386  0.665  0.776-  27 1.09   3 1.38  11 1.42
   8  0.614  0.335  0.224-  28 1.09   4 1.38  12 1.42
   9  0.048  0.107  0.038-   5 1.42  13 1.42  10 1.43
  10  0.952  0.893  0.962-   6 1.42  14 1.42   9 1.43
  11  0.452  0.607  0.962-   7 1.42  15 1.42  12 1.43
  12  0.548  0.393  0.038-   8 1.42  16 1.42  11 1.43
  13  0.076  0.252  0.924-  29 1.09  17 1.38   9 1.42
  14  0.924  0.748  0.076-  30 1.09  18 1.38  10 1.42
  15  0.424  0.752  0.076-  31 1.09  19 1.38  11 1.42
  16  0.576  0.248  0.924-  32 1.09  20 1.38  12 1.42
  17  0.013  0.191  0.744-  33 1.09  13 1.38   2 1.42
  18  0.987  0.809  0.256-  34 1.09  14 1.38   1 1.42
  19  0.487  0.691  0.256-  35 1.09  15 1.38   4 1.42
  20  0.513  0.309  0.744-  36 1.09  16 1.38   3 1.42
  21  0.133  0.068  0.472-   1 1.09
  22  0.867  0.932  0.528-   2 1.09
  23  0.367  0.568  0.528-   3 1.09
  24  0.633  0.432  0.472-   4 1.09
  25  0.187  0.327  0.280-   5 1.09
  26  0.813  0.673  0.720-   6 1.09
  27  0.313  0.827  0.720-   7 1.09
  28  0.687  0.173  0.280-   8 1.09
  29  0.150  0.414  0.982-  13 1.09
  30  0.850  0.586  0.018-  14 1.09
  31  0.350  0.914  0.018-  15 1.09
  32  0.650  0.086  0.982-  16 1.09
  33  0.037  0.304  0.660-  17 1.09
  34  0.963  0.696  0.340-  18 1.09
  35  0.463  0.804  0.340-  19 1.09
  36  0.537  0.196  0.660-  20 1.09

  LATTYP: Found a simple monoclinic cell.
 ALAT       =     7.7770581401
 B/A-ratio  =     0.7634634965
 C/A-ratio  =     1.0395447551
 COS(beta)  =    -0.4080038934
  
  Lattice vectors:
  
 A1 = (   3.1730700000,   0.0000000000,   7.1003000000)
 A2 = (   0.0000000000,   5.9375000000,   0.0000000000)
 A3 = (  -8.0846000000,   0.0000000000,   0.0000000000)


Analysis of symmetry for initial positions (statically):
=====================================================================
 Subroutine PRICEL returns:
 Original cell was already a primitive cell.
 

 Routine SETGRP: Setting up the symmetry group for a 
 simple monoclinic supercell.


 Subroutine GETGRP returns: Found  2 space group operations
 (whereof  2 operations were pure point group operations)
 out of a pool of  4 trial point group operations.


The static configuration has the point symmetry S_2 .


Analysis of symmetry for dynamics (positions and initial velocities):
=====================================================================
 Subroutine PRICEL returns:
 Original cell was already a primitive cell.
 

 Routine SETGRP: Setting up the symmetry group for a 
 simple monoclinic supercell.


 Subroutine GETGRP returns: Found  2 space group operations
 (whereof  2 operations were pure point group operations)
 out of a pool of  4 trial point group operations.


The dynamic configuration has the point symmetry S_2 .


 Subroutine INISYM returns: Found  2 space group operations
 (whereof  2 operations are pure point group operations),
 and found     1 'primitive' translations


----------------------------------------------------------------------------------------

                                     Primitive cell                                     

  volume of cell :     340.8308

  direct lattice vectors                    reciprocal lattice vectors
     8.084600000  0.000000000  0.000000000     0.123691958 -0.000000000  0.085562126
     0.000000000  5.937500000  0.000000000     0.000000000  0.168421053 -0.000000000
    -4.911530000  0.000000000  7.100300000     0.000000000  0.000000000  0.140839119

  length of vectors
     8.084600000  5.937500000  8.633503752     0.150401389  0.168421053  0.140839119

  position of ions in fractional coordinates (direct lattice)
     0.083111707  0.019778553  0.330174928
     0.916888292  0.980221447  0.669825073
     0.416888330  0.519778547  0.669825135
     0.583111642  0.480221442  0.330174876
     0.113546720  0.164504236  0.223692052
     0.886453278  0.835495766  0.776307949
     0.386453272  0.664504257  0.776308017
     0.613546696  0.335495732  0.223691994
     0.048468265  0.106520047  0.037648541
     0.951531732  0.893479954  0.962351458
     0.451531867  0.606520154  0.962351590
     0.548468104  0.393479835  0.037648423
     0.076421354  0.252457208  0.924148731
     0.923578642  0.747542793  0.075851269
     0.423578685  0.752457233  0.075851432
     0.576421291  0.247542760  0.924148584
     0.012851940  0.190551064  0.744276633
     0.987148060  0.809448938  0.255723368
     0.487148011  0.690551018  0.255723481
     0.512851966  0.309448977  0.744276534
     0.133014410  0.068359548  0.472271754
     0.866985587  0.931640452  0.527728245
     0.366985691  0.568359571  0.527728438
     0.633014282  0.431640423  0.472271576
     0.186708413  0.326774721  0.280109552
     0.813291581  0.673225284  0.719890449
     0.313291596  0.826774754  0.719890468
     0.686708375  0.173225242  0.280109545
     0.149951342  0.414200324  0.981976432
     0.850048650  0.585799681  0.018023568
     0.350048689  0.914200245  0.018023603
     0.649951287  0.085799746  0.981976407
     0.037292396  0.303922850  0.659569857
     0.962707600  0.696077153  0.340430144
     0.462707468  0.803922902  0.340430225
     0.537292509  0.196077096  0.659569788

  ion indices of the primitive-cell ions
   primitive index   ion index
                 1           1
                 2           2
                 3           3
                 4           4
                 5           5
                 6           6
                 7           7
                 8           8
                 9           9
                10          10
                11          11
                12          12
                13          13
                14          14
                15          15
                16          16
                17          17
                18          18
                19          19
                20          20
                21          21
                22          22
                23          23
                24          24
                25          25
                26          26
                27          27
                28          28
                29          29
                30          30
                31          31
                32          32
                33          33
                34          34
                35          35
                36          36

----------------------------------------------------------------------------------------



 KPOINTS: auto                                    

Automatic generation of k-mesh.
 Grid dimensions read from file:
 generate k-points for:    4    5    4

 Generating k-lattice:

  Cartesian coordinates                     Fractional coordinates (reciprocal lattice)
     0.030922989 -0.000000000  0.021390531     0.250000000  0.000000000 -0.000000000
     0.000000000  0.033684211 -0.000000000     0.000000000  0.200000000  0.000000000
     0.000000000  0.000000000  0.035209780     0.000000000  0.000000000  0.250000000

  Length of vectors
     0.037600347  0.033684211  0.035209780

  Shift w.r.t. Gamma in fractional coordinates (k-lattice)
     0.000000000  0.000000000  0.000000000

 
 Subroutine IBZKPT returns following result:
 ===========================================
 
 Found     42 irreducible k-points:
 
 Following reciprocal coordinates:
            Coordinates               Weight
  0.000000  0.000000  0.000000      1.000000
  0.250000  0.000000  0.000000      2.000000
  0.500000  0.000000  0.000000      1.000000
  0.000000  0.200000  0.000000      2.000000
  0.250000  0.200000  0.000000      2.000000
 -0.250000  0.200000  0.000000      2.000000
  0.500000  0.200000  0.000000      2.000000
  0.000000  0.400000  0.000000      2.000000
  0.250000  0.400000  0.000000      2.000000
 -0.250000  0.400000  0.000000      2.000000
  0.500000  0.400000  0.000000      2.000000
  0.000000  0.000000  0.250000      2.000000
  0.250000  0.000000  0.250000      2.000000
  0.500000  0.000000  0.250000      2.000000
 -0.250000  0.000000  0.250000      2.000000
  0.000000  0.200000  0.250000      2.000000
  0.000000  0.200000 -0.250000      2.000000
  0.250000  0.200000  0.250000      2.000000
 -0.250000  0.200000 -0.250000      2.000000
  0.500000  0.200000  0.250000      2.000000
  0.500000  0.200000 -0.250000      2.000000
 -0.250000  0.200000  0.250000      2.000000
  0.250000  0.200000 -0.250000      2.000000
  0.000000  0.400000  0.250000      2.000000
  0.000000  0.400000 -0.250000      2.000000
  0.250000  0.400000  0.250000      2.000000
 -0.250000  0.400000 -0.250000      2.000000
  0.500000  0.400000  0.250000      2.000000
  0.500000  0.400000 -0.250000      2.000000
 -0.250000  0.400000  0.250000      2.000000
  0.250000  0.400000 -0.250000      2.000000
  0.000000  0.000000  0.500000      1.000000
  0.250000  0.000000  0.500000      2.000000
  0.500000  0.000000  0.500000      1.000000
  0.000000  0.200000  0.500000      2.000000
  0.250000  0.200000  0.500000      2.000000
 -0.250000  0.200000  0.500000      2.000000
  0.500000  0.200000  0.500000      2.000000
  0.000000  0.400000  0.500000      2.000000
  0.250000  0.400000  0.500000      2.000000
 -0.250000  0.400000  0.500000      2.000000
  0.500000  0.400000  0.500000      2.000000
 
 Following cartesian coordinates:
            Coordinates               Weight
  0.000000  0.000000  0.000000      1.000000
  0.030923  0.000000  0.021391      2.000000
  0.061846  0.000000  0.042781      1.000000
  0.000000  0.033684  0.000000      2.000000
  0.030923  0.033684  0.021391      2.000000
 -0.030923  0.033684 -0.021391      2.000000
  0.061846  0.033684  0.042781      2.000000
  0.000000  0.067368  0.000000      2.000000
  0.030923  0.067368  0.021391      2.000000
 -0.030923  0.067368 -0.021391      2.000000
  0.061846  0.067368  0.042781      2.000000
  0.000000  0.000000  0.035210      2.000000
  0.030923  0.000000  0.056600      2.000000
  0.061846  0.000000  0.077991      2.000000
 -0.030923  0.000000  0.013819      2.000000
  0.000000  0.033684  0.035210      2.000000
  0.000000  0.033684 -0.035210      2.000000
  0.030923  0.033684  0.056600      2.000000
 -0.030923  0.033684 -0.056600      2.000000
  0.061846  0.033684  0.077991      2.000000
  0.061846  0.033684  0.007571      2.000000
 -0.030923  0.033684  0.013819      2.000000
  0.030923  0.033684 -0.013819      2.000000
  0.000000  0.067368  0.035210      2.000000
  0.000000  0.067368 -0.035210      2.000000
  0.030923  0.067368  0.056600      2.000000
 -0.030923  0.067368 -0.056600      2.000000
  0.061846  0.067368  0.077991      2.000000
  0.061846  0.067368  0.007571      2.000000
 -0.030923  0.067368  0.013819      2.000000
  0.030923  0.067368 -0.013819      2.000000
  0.000000  0.000000  0.070420      1.000000
  0.030923  0.000000  0.091810      2.000000
  0.061846  0.000000  0.113201      1.000000
  0.000000  0.033684  0.070420      2.000000
  0.030923  0.033684  0.091810      2.000000
 -0.030923  0.033684  0.049029      2.000000
  0.061846  0.033684  0.113201      2.000000
  0.000000  0.067368  0.070420      2.000000
  0.030923  0.067368  0.091810      2.000000
 -0.030923  0.067368  0.049029      2.000000
  0.061846  0.067368  0.113201      2.000000
 


--------------------------------------------------------------------------------------------------------




 Dimension of arrays:
   k-points           NKPTS =     42   k-points in BZ     NKDIM =     42   number of bands    NBANDS=    128
   number of dos      NEDOS =    301   number of ions     NIONS =     36
   non local maximal  LDIM  =      4   non local SUM 2l+1 LMDIM =      8
   total plane-waves  NPLWV = 483840
   max r-space proj   IRMAX =      1   max aug-charges    IRDMAX=   9616
   dimension x,y,z NGX =    84 NGY =   64 NGZ =   90
   dimension x,y,z NGXF=   168 NGYF=  128 NGZF=  180
   support grid    NGXF=   168 NGYF=  128 NGZF=  180
   ions per type =              20  16
   NGX,Y,Z   is equivalent  to a cutoff of  17.27, 17.92, 17.33 a.u.
   NGXF,Y,Z  is equivalent  to a cutoff of  34.55, 35.84, 34.66 a.u.

 SYSTEM =  unknown system                          
 POSCAR =   C  H                                   

 Startparameter for this run:
   NWRITE =      2    write-flag & timer
   PREC   = accura    normal or accurate (medium, high low for compatibility)
   ISTART =      0    job   : 0-new  1-cont  2-samecut
   ICHARG =      2    charge: 1-file 2-atom 10-const
   ISPIN  =      1    spin polarized calculation?
   LNONCOLLINEAR =      F non collinear calculations
   LSORBIT =      F    spin-orbit coupling
   INIWAV =      1    electr: 0-lowe 1-rand  2-diag
   LASPH  =      F    aspherical Exc in radial PAW
 Electronic Relaxation 1
   ENCUT  = 1000.0 eV  73.50 Ry    8.57 a.u.  20.85 15.31 22.26*2*pi/ulx,y,z
   ENINI  = 1000.0     initial cutoff
   ENAUG  = 1000.0 eV  augmentation charge cutoff
   NELM   =     60;   NELMIN=  2; NELMDL= -5     # of ELM steps 
   EDIFF  = 0.1E-06   stopping-criterion for ELM
   LREAL  =      F    real-space projection
   NLSPLINE    = F    spline interpolate recip. space projectors
   LCOMPAT=      F    compatible to vasp.4.4
   GGA_COMPAT  = T    GGA compatible to vasp.4.4-vasp.4.6
   LMAXPAW     = -100 max onsite density
   LMAXMIX     =    2 max onsite mixed and CHGCAR
   VOSKOWN=      0    Vosko Wilk Nusair interpolation
   ROPT   =    0.00000   0.00000
 Ionic relaxation
   EDIFFG = 0.1E-05   stopping-criterion for IOM
   NSW    =      0    number of steps for IOM
   NBLOCK =      1;   KBLOCK =      1    inner block; outer block 
   IBRION =     -1    ionic relax: 0-MD 1-quasi-New 2-CG
   NFREE  =      0    steps in history (QN), initial steepest desc. (CG)
   ISIF   =      0    stress and relaxation
   IWAVPR =     10    prediction:  0-non 1-charg 2-wave 3-comb
   ISYM   =      2    0-nonsym 1-usesym 2-fastsym
   LCORR  =      T    Harris-Foulkes like correction to forces

   POTIM  = 0.5000    time-step for ionic-motion
   TEIN   =    0.0    initial temperature
   TEBEG  =    0.0;   TEEND  =   0.0 temperature during run
   SMASS  =  -3.00    Nose mass-parameter (am)
   estimated Nose-frequenzy (Omega)   =  0.10E-29 period in steps = 0.13E+47 mass=  -0.149E-26a.u.
   SCALEE = 1.0000    scale energy and forces
   NPACO  =    256;   APACO  = 10.0  distance and # of slots for P.C.
   PSTRESS=    0.0 pullay stress

  Mass of Ions in am
   POMASS =  12.01  1.00
  Ionic Valenz
   ZVAL   =   4.00  1.00
  Atomic Wigner-Seitz radii
   RWIGS  =  -1.00 -1.00
  virtual crystal weights 
   VCA    =   1.00  1.00
   NELECT =      96.0000    total number of electrons
   NUPDOWN=      -1.0000    fix difference up-down

 DOS related values:
   EMIN   =  10.00;   EMAX   =-10.00  energy-range for DOS
   EFERMI =   0.00;   METHOD = LEGACY      
   ISMEAR =     0;   SIGMA  =   0.01  broadening in eV -4-tet -1-fermi 0-gaus

 Electronic relaxation 2 (details)
   IALGO  =     58    algorithm
   LDIAG  =      T    sub-space diagonalisation (order eigenvalues)
   LSUBROT=      F    optimize rotation matrix (better conditioning)
   TURBO    =      0    0=normal 1=particle mesh
   IRESTART =      0    0=no restart 2=restart with 2 vectors
   NREBOOT  =      0    no. of reboots
   NMIN     =      0    reboot dimension
   EREF     =   0.00    reference energy to select bands
   IMIX   =      4    mixing-type and parameters
     AMIX     =   0.40;   BMIX     =  1.00
     AMIX_MAG =   1.60;   BMIX_MAG =  1.00
     AMIN     =   0.10
     WC   =   100.;   INIMIX=   1;  MIXPRE=   1;  MAXMIX= -45

 Intra band minimization:
   WEIMIN = 0.0000     energy-eigenvalue tresh-hold
   EBREAK =  0.20E-09  absolut break condition
   DEPER  =   0.30     relativ break condition  

   TIME   =   0.40     timestep for ELM

  volume/ion in A,a.u.               =       9.47        63.89
  Fermi-wavevector in a.u.,A,eV,Ry     =   1.073130  2.027921 15.668575  1.151608
  Thomas-Fermi vector in A             =   2.208920

 Write flags
   LWAVE        =      F    write WAVECAR
   LDOWNSAMPLE  =      F    k-point downsampling of WAVECAR
   LCHARG       =      T    write CHGCAR
   LVTOT        =      F    write LOCPOT, total local potential
   LVHAR        =      F    write LOCPOT, Hartree potential only
   LELF         =      F    write electronic localiz. function (ELF)
   LORBIT       =      0    0 simple, 1 ext, 2 COOP (PROOUT), +10 PAW based schemes


 Dipole corrections
   LMONO  =      F    monopole corrections only (constant potential shift)
   LDIPOL =      F    correct potential (dipole corrections)
   IDIPOL =      0    1-x, 2-y, 3-z, 4-all directions 
   EPSILON=  1.0000000 bulk dielectric constant

 Exchange correlation treatment:
   GGA     =    B5    GGA type
   LEXCH   =    12    internal setting for exchange type
   LIBXC   =     F    Libxc                    
   VOSKOWN =     0    Vosko Wilk Nusair interpolation
   LHFCALC =     F    Hartree Fock is set to
   LHFONE  =     F    Hartree Fock one center treatment
   AEXX    =    0.0000 exact exchange contribution

 Linear response parameters
   LEPSILON=     F    determine dielectric tensor
   LRPA    =     F    only Hartree local field effects (RPA)
   LNABLA  =     F    use nabla operator in PAW spheres
   LVEL    =     F    velocity operator in full k-point grid
   CSHIFT  =0.1000    complex shift for real part using Kramers Kronig
   OMEGAMAX=  -1.0    maximum frequency
   DEG_THRESHOLD= 0.2000000E-02 threshold for treating states as degnerate
   RTIME   =   -0.100 relaxation time in fs
  (WPLASMAI=    0.000 imaginary part of plasma frequency in eV, 0.658/RTIME)
   DFIELD  = 0.0000000 0.0000000 0.0000000 field for delta impulse in time

  Optional k-point grid parameters
   LKPOINTS_OPT  =     F    use optional k-point grid
   KPOINTS_OPT_MODE=     1    mode for optional k-point grid

 Orbital magnetization related:
   ORBITALMAG=     F  switch on orbital magnetization
   LCHIMAG   =     F  perturbation theory with respect to B field
   DQ        =  0.001000  dq finite difference perturbation B field
   LLRAUG    =     F  two centre corrections for induced B field
   LBONE     =     F  B-component reconstruction in AE one-centre
   LVGVCALC  =     T  calculate vGv susceptibility
   LVGVAPPL  =     F  apply vGv susceptibility instead of pGv for G=0

 Random number generation:
   RANDOM_GENERATOR = DEFAULT
   PCG_SEED         = not used


--------------------------------------------------------------------------------------------------------


 Static calculation
 charge density and potential will be updated during run
 non-spin polarized calculation
 Conjugate gradient for all bands (Freysoldt, et al. PRB 79, 241103 (2009))
 preconditioned conjugated gradient                                        
 perform sub-space diagonalisation
    before iterative eigenvector-optimisation
 modified Broyden-mixing scheme, WC =      100.0
 initial mixing is a Kerker type mixing with AMIX =  0.4000 and BMIX =      1.0000
 Hartree-type preconditioning will be used
 using additional bands           80
 reciprocal scheme for non local part
 use partial core corrections
 no Harris-corrections to forces 
 use gradient corrections 
 use of overlap-Matrix (Vanderbilt PP)
 Gauss-broadening in eV      SIGMA  =   0.01


--------------------------------------------------------------------------------------------------------


  energy-cutoff  :     1000.00
  volume of cell :      340.83
      direct lattice vectors                 reciprocal lattice vectors
     8.084600000  0.000000000  0.000000000     0.123691958 -0.000000000  0.085562126
     0.000000000  5.937500000  0.000000000     0.000000000  0.168421053 -0.000000000
    -4.911530000  0.000000000  7.100300000     0.000000000  0.000000000  0.140839119

  length of vectors
     8.084600000  5.937500000  8.633503752     0.150401389  0.168421053  0.140839119



 k-points in units of 2pi/SCALE and weight: auto                                    
   0.00000000  0.00000000  0.00000000       0.013
   0.03092299  0.00000000  0.02139053       0.025
   0.06184598  0.00000000  0.04278106       0.013
   0.00000000  0.03368421  0.00000000       0.025
   0.03092299  0.03368421  0.02139053       0.025
  -0.03092299  0.03368421 -0.02139053       0.025
   0.06184598  0.03368421  0.04278106       0.025
   0.00000000  0.06736842  0.00000000       0.025
   0.03092299  0.06736842  0.02139053       0.025
  -0.03092299  0.06736842 -0.02139053       0.025
   0.06184598  0.06736842  0.04278106       0.025
   0.00000000  0.00000000  0.03520978       0.025
   0.03092299  0.00000000  0.05660031       0.025
   0.06184598  0.00000000  0.07799084       0.025
  -0.03092299  0.00000000  0.01381925       0.025
   0.00000000  0.03368421  0.03520978       0.025
   0.00000000  0.03368421 -0.03520978       0.025
   0.03092299  0.03368421  0.05660031       0.025
  -0.03092299  0.03368421 -0.05660031       0.025
   0.06184598  0.03368421  0.07799084       0.025
   0.06184598  0.03368421  0.00757128       0.025
  -0.03092299  0.03368421  0.01381925       0.025
   0.03092299  0.03368421 -0.01381925       0.025
   0.00000000  0.06736842  0.03520978       0.025
   0.00000000  0.06736842 -0.03520978       0.025
   0.03092299  0.06736842  0.05660031       0.025
  -0.03092299  0.06736842 -0.05660031       0.025
   0.06184598  0.06736842  0.07799084       0.025
   0.06184598  0.06736842  0.00757128       0.025
  -0.03092299  0.06736842  0.01381925       0.025
   0.03092299  0.06736842 -0.01381925       0.025
   0.00000000  0.00000000  0.07041956       0.013
   0.03092299  0.00000000  0.09181009       0.025
   0.06184598  0.00000000  0.11320062       0.013
   0.00000000  0.03368421  0.07041956       0.025
   0.03092299  0.03368421  0.09181009       0.025
  -0.03092299  0.03368421  0.04902903       0.025
   0.06184598  0.03368421  0.11320062       0.025
   0.00000000  0.06736842  0.07041956       0.025
   0.03092299  0.06736842  0.09181009       0.025
  -0.03092299  0.06736842  0.04902903       0.025
   0.06184598  0.06736842  0.11320062       0.025

 k-points in reciprocal lattice and weights: auto                                    
   0.00000000  0.00000000  0.00000000       0.013
   0.25000000  0.00000000  0.00000000       0.025
   0.50000000  0.00000000  0.00000000       0.013
   0.00000000  0.20000000  0.00000000       0.025
   0.25000000  0.20000000  0.00000000       0.025
  -0.25000000  0.20000000  0.00000000       0.025
   0.50000000  0.20000000  0.00000000       0.025
   0.00000000  0.40000000  0.00000000       0.025
   0.25000000  0.40000000  0.00000000       0.025
  -0.25000000  0.40000000  0.00000000       0.025
   0.50000000  0.40000000  0.00000000       0.025
   0.00000000  0.00000000  0.25000000       0.025
   0.25000000  0.00000000  0.25000000       0.025
   0.50000000  0.00000000  0.25000000       0.025
  -0.25000000  0.00000000  0.25000000       0.025
   0.00000000  0.20000000  0.25000000       0.025
   0.00000000  0.20000000 -0.25000000       0.025
   0.25000000  0.20000000  0.25000000       0.025
  -0.25000000  0.20000000 -0.25000000       0.025
   0.50000000  0.20000000  0.25000000       0.025
   0.50000000  0.20000000 -0.25000000       0.025
  -0.25000000  0.20000000  0.25000000       0.025
   0.25000000  0.20000000 -0.25000000       0.025
   0.00000000  0.40000000  0.25000000       0.025
   0.00000000  0.40000000 -0.25000000       0.025
   0.25000000  0.40000000  0.25000000       0.025
  -0.25000000  0.40000000 -0.25000000       0.025
   0.50000000  0.40000000  0.25000000       0.025
   0.50000000  0.40000000 -0.25000000       0.025
  -0.25000000  0.40000000  0.25000000       0.025
   0.25000000  0.40000000 -0.25000000       0.025
   0.00000000  0.00000000  0.50000000       0.013
   0.25000000  0.00000000  0.50000000       0.025
   0.50000000  0.00000000  0.50000000       0.013
   0.00000000  0.20000000  0.50000000       0.025
   0.25000000  0.20000000  0.50000000       0.025
  -0.25000000  0.20000000  0.50000000       0.025
   0.50000000  0.20000000  0.50000000       0.025
   0.00000000  0.40000000  0.50000000       0.025
   0.25000000  0.40000000  0.50000000       0.025
  -0.25000000  0.40000000  0.50000000       0.025
   0.50000000  0.40000000  0.50000000       0.025

 position of ions in fractional coordinates (direct lattice) 
   0.08311171  0.01977855  0.33017493
   0.91688829  0.98022145  0.66982507
   0.41688833  0.51977855  0.66982514
   0.58311164  0.48022144  0.33017488
   0.11354672  0.16450424  0.22369205
   0.88645328  0.83549577  0.77630795
   0.38645327  0.66450426  0.77630802
   0.61354670  0.33549573  0.22369199
   0.04846826  0.10652005  0.03764854
   0.95153173  0.89347995  0.96235146
   0.45153187  0.60652015  0.96235159
   0.54846810  0.39347984  0.03764842
   0.07642135  0.25245721  0.92414873
   0.92357864  0.74754279  0.07585127
   0.42357869  0.75245723  0.07585143
   0.57642129  0.24754276  0.92414858
   0.01285194  0.19055106  0.74427663
   0.98714806  0.80944894  0.25572337
   0.48714801  0.69055102  0.25572348
   0.51285197  0.30944898  0.74427653
   0.13301441  0.06835955  0.47227175
   0.86698559  0.93164045  0.52772825
   0.36698569  0.56835957  0.52772844
   0.63301428  0.43164042  0.47227158
   0.18670841  0.32677472  0.28010955
   0.81329158  0.67322528  0.71989045
   0.31329160  0.82677475  0.71989047
   0.68670837  0.17322524  0.28010955
   0.14995134  0.41420032  0.98197643
   0.85004865  0.58579968  0.01802357
   0.35004869  0.91420025  0.01802360
   0.64995129  0.08579975  0.98197641
   0.03729240  0.30392285  0.65956986
   0.96270760  0.69607715  0.34043014
   0.46270747  0.80392290  0.34043022
   0.53729251  0.19607710  0.65956979

 position of ions in cartesian coordinates  (Angst):
  -0.94973915  0.11743516  2.34434104
   4.12280915  5.82006484  4.75595897
   0.08050915  3.08618512  4.75595941
   3.09256057  2.85131481  2.34434067
  -0.18069041  0.97674390  1.58828068
   3.35376039  4.96075611  5.51201933
  -0.68853999  3.94549402  5.51201981
   3.86160968  1.99200591  1.58828026
   0.20693460  0.63246278  0.26731594
   2.96613539  5.30503723  6.83298406
  -1.07616418  3.60121341  6.83298500
   4.24923388  2.33628652  0.26731509
  -3.92114814  1.49896467  6.56173323
   7.09421811  4.43853534  0.53856676
   3.05191766  4.46771482  0.53856792
   0.12115207  1.46978513  6.56173219
  -3.55163422  1.13139694  5.28458738
   6.72470421  4.80610307  1.81571263
   2.68240326  4.10014667  1.81571343
   0.49066648  1.83735330  5.28458667
  -1.24420859  0.40588482  3.35327114
   4.41727857  5.53161518  3.74702886
   0.37497846  3.37463495  3.74703023
   2.79809125  2.56286501  3.35326987
   0.13369636  1.94022491  1.98886185
   3.03937358  3.99727512  5.11143815
  -1.00292639  4.90897510  5.11143829
   4.17599609  1.02852488  1.98886180
  -3.61071009  2.45931442  6.97232726
   6.78378002  3.47818560  0.12797274
   2.74148016  5.42806396  0.12797299
   0.43158959  0.50943599  6.97232709
  -2.93800303  1.80454192  4.68314386
   6.11107300  4.13295810  2.41715615
   2.06877153  4.77329223  2.41715672
   1.10429822  1.16420776  4.68314336



--------------------------------------------------------------------------------------------------------


 k-point   1 :   0.0000 0.0000 0.0000  plane waves:   24413
 k-point   2 :   0.2500 0.0000 0.0000  plane waves:   24467
 k-point   3 :   0.5000 0.0000 0.0000  plane waves:   24492
 k-point   4 :   0.0000 0.2000 0.0000  plane waves:   24461
 k-point   5 :   0.2500 0.2000 0.0000  plane waves:   24481
 k-point   6 :  -0.2500 0.2000 0.0000  plane waves:   24481
 k-point   7 :   0.5000 0.2000 0.0000  plane waves:   24492
 k-point   8 :   0.0000 0.4000 0.0000  plane waves:   24482
 k-point   9 :   0.2500 0.4000 0.0000  plane waves:   24481
 k-point  10 :  -0.2500 0.4000 0.0000  plane waves:   24481
 k-point  11 :   0.5000 0.4000 0.0000  plane waves:   24484
 k-point  12 :   0.0000 0.0000 0.2500  plane waves:   24482
 k-point  13 :   0.2500 0.0000 0.2500  plane waves:   24508
 k-point  14 :   0.5000 0.0000 0.2500  plane waves:   24501
 k-point  15 :  -0.2500 0.0000 0.2500  plane waves:   24468
 k-point  16 :   0.0000 0.2000 0.2500  plane waves:   24485
 k-point  17 :   0.0000 0.2000-0.2500  plane waves:   24485
 k-point  18 :   0.2500 0.2000 0.2500  plane waves:   24478
 k-point  19 :  -0.2500 0.2000-0.2500  plane waves:   24478
 k-point  20 :   0.5000 0.2000 0.2500  plane waves:   24483
 k-point  21 :   0.5000 0.2000-0.2500  plane waves:   24483
 k-point  22 :  -0.2500 0.2000 0.2500  plane waves:   24454
 k-point  23 :   0.2500 0.2000-0.2500  plane waves:   24454
 k-point  24 :   0.0000 0.4000 0.2500  plane waves:   24470
 k-point  25 :   0.0000 0.4000-0.2500  plane waves:   24470
 k-point  26 :   0.2500 0.4000 0.2500  plane waves:   24459
 k-point  27 :  -0.2500 0.4000-0.2500  plane waves:   24459
 k-point  28 :   0.5000 0.4000 0.2500  plane waves:   24454
 k-point  29 :   0.5000 0.4000-0.2500  plane waves:   24454
 k-point  30 :  -0.2500 0.4000 0.2500  plane waves:   24459
 k-point  31 :   0.2500 0.4000-0.2500  plane waves:   24459
 k-point  32 :   0.0000 0.0000 0.5000  plane waves:   24468
 k-point  33 :   0.2500 0.0000 0.5000  plane waves:   24498
 k-point  34 :   0.5000 0.0000 0.5000  plane waves:   24486
 k-point  35 :   0.0000 0.2000 0.5000  plane waves:   24494
 k-point  36 :   0.2500 0.2000 0.5000  plane waves:   24479
 k-point  37 :  -0.2500 0.2000 0.5000  plane waves:   24479
 k-point  38 :   0.5000 0.2000 0.5000  plane waves:   24478
 k-point  39 :   0.0000 0.4000 0.5000  plane waves:   24466
 k-point  40 :   0.2500 0.4000 0.5000  plane waves:   24464
 k-point  41 :  -0.2500 0.4000 0.5000  plane waves:   24464
 k-point  42 :   0.5000 0.4000 0.5000  plane waves:   24482

 maximum and minimum number of plane-waves per node :     12280    12180

 maximum number of plane-waves:     24508
 maximum index in each direction: 
   IXMAX=   21   IYMAX=   15   IZMAX=   22
   IXMIN=  -21   IYMIN=  -15   IZMIN=  -22


 parallel 3D FFT for wavefunctions:
    minimum data exchange during FFTs selected (reduces bandwidth)
 parallel 3D FFT for charge:
    minimum data exchange during FFTs selected (reduces bandwidth)


 total amount of memory used by VASP MPI-rank0   147221. kBytes
=======================================================================

   base      :      30000. kBytes
   nonl-proj :      73138. kBytes
   fftplans  :       7979. kBytes
   grid      :      11020. kBytes
   one-center:         55. kBytes
   wavefun   :      25029. kBytes

     INWAV:  cpu time      0.0001: real time      0.0003
 Broyden mixing: mesh for mixing (old mesh)
   NGX = 41   NGY = 31   NGZ = 45
  (NGX  =168   NGY  =128   NGZ  =180)
  gives a total of  57195 points

 initial charge density was supplied:
 charge density of overlapping atoms calculated
 number of electron      96.0000000 magnetization 
 keeping initial charge density in first step


--------------------------------------------------------------------------------------------------------


 Maximum index for augmentation-charges          458 (set IRDMAX)


--------------------------------------------------------------------------------------------------------


 First call to EWALD:  gamma=   0.254
 Maximum number of real-space cells 3x 3x 3
 Maximum number of reciprocal cells 3x 2x 3

    FEWALD:  cpu time      0.0027: real time      0.0028


--------------------------------------- Ionic step        1  -------------------------------------------




--------------------------------------- Iteration      1(   1)  ---------------------------------------


    POTLOK:  cpu time      0.1326: real time      0.1336
    SETDIJ:  cpu time      0.0107: real time      0.0108
    TRIAL :  cpu time     26.5561: real time     26.5697
    CORREC:  cpu time      0.0018: real time      0.0019
    --------------------------------------------
      LOOP:  cpu time     26.7263: real time     26.7415

 eigenvalue-minimisations  : 10752
 total energy-change (2. order) : 0.2688060E+03  (-0.8253727E+04)
 number of electron      96.0000000 magnetization 
 augmentation part       96.0000000 magnetization 

 Free energy of the ion-electron system (eV)
  ---------------------------------------------------
  alpha Z        PSCENC =        88.11361408
  Ewald energy   TEWEN  =     -1438.30069511
  -Hartree energ DENC   =     -1402.10230865
  -exchange      EXHF   =         0.00000000
  -V(xc)+E(xc)   XCENC  =       166.28412352
  PAW double counting   =      2310.46137909    -2204.92283126
  entropy T*S    EENTRO =        -0.00001123
  eigenvalues    EBANDS =      -397.16444022
  atomic energy  EATOM  =      3146.43714121
  ---------------------------------------------------
  free energy    TOTEN  =       268.80597144 eV

  energy without entropy =      268.80598266  energy(sigma->0) =      268.80597705


--------------------------------------------------------------------------------------------------------




--------------------------------------- Iteration      1(   2)  ---------------------------------------


    TRIAL :  cpu time     69.1407: real time     69.1888
    CORREC:  cpu time      0.0003: real time      0.0003
    --------------------------------------------
      LOOP:  cpu time     69.1596: real time     69.2189

 eigenvalue-minimisations  : 16128
 total energy-change (2. order) :-0.5041752E+03  (-0.5030124E+03)
 number of electron      96.0000000 magnetization 
 augmentation part       96.0000000 magnetization 

 Free energy of the ion-electron system (eV)
  ---------------------------------------------------
  alpha Z        PSCENC =        88.11361408
  Ewald energy   TEWEN  =     -1438.30069511
  -Hartree energ DENC   =     -1402.10230865
  -exchange      EXHF   =         0.00000000
  -V(xc)+E(xc)   XCENC  =       166.28412352
  PAW double counting   =      2310.46137909    -2204.92283126
  entropy T*S    EENTRO =        -0.00000000
  eigenvalues    EBANDS =      -901.33964311
  atomic energy  EATOM  =      3146.43714121
  ---------------------------------------------------
  free energy    TOTEN  =      -235.36922024 eV

  energy without entropy =     -235.36922024  energy(sigma->0) =     -235.36922024


--------------------------------------------------------------------------------------------------------




--------------------------------------- Iteration      1(   3)  ---------------------------------------


    TRIAL :  cpu time     52.6119: real time     52.6406
    CORREC:  cpu time      0.0004: real time      0.0004
    --------------------------------------------
      LOOP:  cpu time     52.6289: real time     52.6706

 eigenvalue-minimisations  : 13568
 total energy-change (2. order) :-0.1632028E+02  (-0.1632028E+02)
 number of electron      96.0000000 magnetization 
 augmentation part       96.0000000 magnetization 

 Free energy of the ion-electron system (eV)
  ---------------------------------------------------
  alpha Z        PSCENC =        88.11361408
  Ewald energy   TEWEN  =     -1438.30069511
  -Hartree energ DENC   =     -1402.10230865
  -exchange      EXHF   =         0.00000000
  -V(xc)+E(xc)   XCENC  =       166.28412352
  PAW double counting   =      2310.46137909    -2204.92283126
  entropy T*S    EENTRO =        -0.00000000
  eigenvalues    EBANDS =      -917.65991842
  atomic energy  EATOM  =      3146.43714121
  ---------------------------------------------------
  free energy    TOTEN  =      -251.68949554 eV

  energy without entropy =     -251.68949554  energy(sigma->0) =     -251.68949554


--------------------------------------------------------------------------------------------------------




--------------------------------------- Iteration      1(   4)  ---------------------------------------


    TRIAL :  cpu time    133.7568: real time    133.8277
    CORREC:  cpu time      0.0016: real time      0.0016
    --------------------------------------------
      LOOP:  cpu time    133.7882: real time    133.8592

 eigenvalue-minimisations  : 20736
 total energy-change (2. order) :-0.5865372E-01  (-0.5865372E-01)
 number of electron      96.0000000 magnetization 
 augmentation part       96.0000000 magnetization 

 Free energy of the ion-electron system (eV)
  ---------------------------------------------------
  alpha Z        PSCENC =        88.11361408
  Ewald energy   TEWEN  =     -1438.30069511
  -Hartree energ DENC   =     -1402.10230865
  -exchange      EXHF   =         0.00000000
  -V(xc)+E(xc)   XCENC  =       166.28412352
  PAW double counting   =      2310.46137909    -2204.92283126
  entropy T*S    EENTRO =        -0.00000000
  eigenvalues    EBANDS =      -917.71857214
  atomic energy  EATOM  =      3146.43714121
  ---------------------------------------------------
  free energy    TOTEN  =      -251.74814927 eV

  energy without entropy =     -251.74814927  energy(sigma->0) =     -251.74814927


--------------------------------------------------------------------------------------------------------




--------------------------------------- Iteration      1(   5)  ---------------------------------------


    TRIAL :  cpu time     37.0269: real time     37.0473
    CORREC:  cpu time      0.0015: real time      0.0015
    CHARGE:  cpu time      0.5064: real time      0.5067
    --------------------------------------------
      LOOP:  cpu time     37.5478: real time     37.5857

 eigenvalue-minimisations  : 11520
 total energy-change (2. order) :-0.3405710E-05  (-0.3405712E-05)
 number of electron      96.0000001 magnetization 
 augmentation part       -0.0327062 magnetization 

 Free energy of the ion-electron system (eV)
  ---------------------------------------------------
  alpha Z        PSCENC =        88.11361408
  Ewald energy   TEWEN  =     -1438.30069511
  -Hartree energ DENC   =     -1402.10230865
  -exchange      EXHF   =         0.00000000
  -V(xc)+E(xc)   XCENC  =       166.28412352
  PAW double counting   =      2310.46137909    -2204.92283126
  entropy T*S    EENTRO =        -0.00000000
  eigenvalues    EBANDS =      -917.71857555
  atomic energy  EATOM  =      3146.43714121
  ---------------------------------------------------
  free energy    TOTEN  =      -251.74815267 eV

  energy without entropy =     -251.74815267  energy(sigma->0) =     -251.74815267


--------------------------------------------------------------------------------------------------------




--------------------------------------- Iteration      1(   6)  ---------------------------------------


    POTLOK:  cpu time      0.0992: real time      0.0993
    SETDIJ:  cpu time      0.0048: real time      0.0048
    TRIAL :  cpu time      5.7459: real time      5.7502
    CORREC:  cpu time      2.2376: real time      2.2397
    CHARGE:  cpu time      0.4501: real time      0.4508
    --------------------------------------------
      LOOP:  cpu time      8.5514: real time      8.5732

 eigenvalue-minimisations  :     0
 total energy-change (2. order) : 0.4216160E+02  (-0.1560259E+02)
 number of electron      96.0000001 magnetization 
 augmentation part       -0.0747459 magnetization 

 Free energy of the ion-electron system (eV)
  ---------------------------------------------------
  alpha Z        PSCENC =        88.11361408
  Ewald energy   TEWEN  =     -1438.30069511
  -Hartree energ DENC   =     -1952.38016649
  -exchange      EXHF   =         0.00000000
  -V(xc)+E(xc)   XCENC  =       198.23442784
  PAW double counting   =     21057.35721279   -20956.49205560
  entropy T*S    EENTRO =        -0.00000000
  eigenvalues    EBANDS =      -352.55602769
  atomic energy  EATOM  =      3146.43714121
  ---------------------------------------------------
  free energy    TOTEN  =      -209.58654897 eV

  energy without entropy =     -209.58654897  energy(sigma->0) =     -209.58654897


--------------------------------------------------------------------------------------------------------




--------------------------------------- Iteration      1(   7)  ---------------------------------------


    POTLOK:  cpu time      0.0953: real time      0.0953
    SETDIJ:  cpu time      0.0047: real time      0.0047
    TRIAL :  cpu time      5.4976: real time      5.5014
    CORREC:  cpu time      2.2198: real time      2.2211
    CHARGE:  cpu time      0.4502: real time      0.4509
    --------------------------------------------
      LOOP:  cpu time      8.2976: real time      8.3035

 eigenvalue-minimisations  :     0
 total energy-change (2. order) :-0.1551119E+02  (-0.2924052E+01)
 number of electron      96.0000001 magnetization 
 augmentation part       -0.1063982 magnetization 

 Free energy of the ion-electron system (eV)
  ---------------------------------------------------
  alpha Z        PSCENC =        88.11361408
  Ewald energy   TEWEN  =     -1438.30069511
  -Hartree energ DENC   =     -1736.66183746
  -exchange      EXHF   =         0.00000000
  -V(xc)+E(xc)   XCENC  =       188.02639150
  PAW double counting   =     32723.02085138   -32619.81598795
  entropy T*S    EENTRO =        -0.00000000
  eigenvalues    EBANDS =      -575.91721400
  atomic energy  EATOM  =      3146.43714121
  ---------------------------------------------------
  free energy    TOTEN  =      -225.09773634 eV

  energy without entropy =     -225.09773634  energy(sigma->0) =     -225.09773634


--------------------------------------------------------------------------------------------------------




--------------------------------------- Iteration      1(   8)  ---------------------------------------


    POTLOK:  cpu time      0.0963: real time      0.0963
    SETDIJ:  cpu time      0.0047: real time      0.0047
    TRIAL :  cpu time      5.5151: real time      5.5184
    CORREC:  cpu time      2.2114: real time      2.2128
    CHARGE:  cpu time      0.4475: real time      0.4476
    --------------------------------------------
      LOOP:  cpu time      8.2892: real time      8.3135

 eigenvalue-minimisations  :     0
 total energy-change (2. order) :-0.2866251E+01  (-0.4678674E+00)
 number of electron      96.0000001 magnetization 
 augmentation part       -0.1004969 magnetization 

 Free energy of the ion-electron system (eV)
  ---------------------------------------------------
  alpha Z        PSCENC =        88.11361408
  Ewald energy   TEWEN  =     -1438.30069511
  -Hartree energ DENC   =     -1692.30998734
  -exchange      EXHF   =         0.00000000
  -V(xc)+E(xc)   XCENC  =       186.12226831
  PAW double counting   =     32751.13385887   -32647.66610730
  entropy T*S    EENTRO =        -0.00000000
  eigenvalues    EBANDS =      -621.49408033
  atomic energy  EATOM  =      3146.43714121
  ---------------------------------------------------
  free energy    TOTEN  =      -227.96398762 eV

  energy without entropy =     -227.96398762  energy(sigma->0) =     -227.96398762


--------------------------------------------------------------------------------------------------------




--------------------------------------- Iteration      1(   9)  ---------------------------------------


    POTLOK:  cpu time      0.0963: real time      0.0964
    SETDIJ:  cpu time      0.0046: real time      0.0046
    TRIAL :  cpu time      5.4915: real time      5.4957
    CORREC:  cpu time      2.2112: real time      2.2126
    CHARGE:  cpu time      0.4519: real time      0.4524
    --------------------------------------------
      LOOP:  cpu time      8.2712: real time      8.2935

 eigenvalue-minimisations  :     0
 total energy-change (2. order) :-0.4675339E+00  (-0.7303563E-01)
 number of electron      96.0000001 magnetization 
 augmentation part       -0.0990257 magnetization 

 Free energy of the ion-electron system (eV)
  ---------------------------------------------------
  alpha Z        PSCENC =        88.11361408
  Ewald energy   TEWEN  =     -1438.30069511
  -Hartree energ DENC   =     -1686.93858222
  -exchange      EXHF   =         0.00000000
  -V(xc)+E(xc)   XCENC  =       185.59118237
  PAW double counting   =     30597.38548890   -30493.98936632
  entropy T*S    EENTRO =        -0.00000000
  eigenvalues    EBANDS =      -626.73030443
  atomic energy  EATOM  =      3146.43714121
  ---------------------------------------------------
  free energy    TOTEN  =      -228.43152153 eV

  energy without entropy =     -228.43152153  energy(sigma->0) =     -228.43152153


--------------------------------------------------------------------------------------------------------




--------------------------------------- Iteration      1(  10)  ---------------------------------------


    POTLOK:  cpu time      0.0953: real time      0.0953
    SETDIJ:  cpu time      0.0046: real time      0.0046
    TRIAL :  cpu time      5.5466: real time      5.5504
    CORREC:  cpu time      2.2142: real time      2.2154
    CHARGE:  cpu time      0.4450: real time      0.4457
    --------------------------------------------
      LOOP:  cpu time      8.3361: real time      8.3421

 eigenvalue-minimisations  :     0
 total energy-change (2. order) :-0.7301962E-01  (-0.1353114E-01)
 number of electron      96.0000001 magnetization 
 augmentation part       -0.1000947 magnetization 

 Free energy of the ion-electron system (eV)
  ---------------------------------------------------
  alpha Z        PSCENC =        88.11361408
  Ewald energy   TEWEN  =     -1438.30069511
  -Hartree energ DENC   =     -1688.11043537
  -exchange      EXHF   =         0.00000000
  -V(xc)+E(xc)   XCENC  =       185.50589369
  PAW double counting   =     29748.24789643   -29644.91315263
  entropy T*S    EENTRO =        -0.00000000
  eigenvalues    EBANDS =      -625.48480346
  atomic energy  EATOM  =      3146.43714121
  ---------------------------------------------------
  free energy    TOTEN  =      -228.50454115 eV

  energy without entropy =     -228.50454115  energy(sigma->0) =     -228.50454115


--------------------------------------------------------------------------------------------------------




--------------------------------------- Iteration      1(  11)  ---------------------------------------


    POTLOK:  cpu time      0.0962: real time      0.0962
    SETDIJ:  cpu time      0.0046: real time      0.0046
    TRIAL :  cpu time      5.4945: real time      5.4988
    CORREC:  cpu time      2.2149: real time      2.2159
    CHARGE:  cpu time      0.4513: real time      0.4513
    --------------------------------------------
      LOOP:  cpu time      8.2753: real time      8.2979

 eigenvalue-minimisations  :     0
 total energy-change (2. order) :-0.1352008E-01  (-0.2426804E-02)
 number of electron      96.0000001 magnetization 
 augmentation part       -0.1003553 magnetization 

 Free energy of the ion-electron system (eV)
  ---------------------------------------------------
  alpha Z        PSCENC =        88.11361408
  Ewald energy   TEWEN  =     -1438.30069511
  -Hartree energ DENC   =     -1689.38024854
  -exchange      EXHF   =         0.00000000
  -V(xc)+E(xc)   XCENC  =       185.51465965
  PAW double counting   =     29756.92155403   -29653.60059241
  entropy T*S    EENTRO =        -0.00000000
  eigenvalues    EBANDS =      -624.22349414
  atomic energy  EATOM  =      3146.43714121
  ---------------------------------------------------
  free energy    TOTEN  =      -228.51806123 eV

  energy without entropy =     -228.51806123  energy(sigma->0) =     -228.51806123


--------------------------------------------------------------------------------------------------------




--------------------------------------- Iteration      1(  12)  ---------------------------------------


    POTLOK:  cpu time      0.0963: real time      0.0964
    SETDIJ:  cpu time      0.0046: real time      0.0046
    TRIAL :  cpu time      5.5053: real time      5.5091
    CORREC:  cpu time      2.2330: real time      2.2346
    CHARGE:  cpu time      0.4475: real time      0.4480
    --------------------------------------------
      LOOP:  cpu time      8.3002: real time      8.3283

 eigenvalue-minimisations  :     0
 total energy-change (2. order) :-0.2429519E-02  (-0.3545863E-03)
 number of electron      96.0000001 magnetization 
 augmentation part       -0.1002916 magnetization 

 Free energy of the ion-electron system (eV)
  ---------------------------------------------------
  alpha Z        PSCENC =        88.11361408
  Ewald energy   TEWEN  =     -1438.30069511
  -Hartree energ DENC   =     -1689.36219428
  -exchange      EXHF   =         0.00000000
  -V(xc)+E(xc)   XCENC  =       185.50273917
  PAW double counting   =     29888.76914772   -29785.44004545
  entropy T*S    EENTRO =        -0.00000000
  eigenvalues    EBANDS =      -624.24019810
  atomic energy  EATOM  =      3146.43714121
  ---------------------------------------------------
  free energy    TOTEN  =      -228.52049075 eV

  energy without entropy =     -228.52049075  energy(sigma->0) =     -228.52049075


--------------------------------------------------------------------------------------------------------




--------------------------------------- Iteration      1(  13)  ---------------------------------------


    POTLOK:  cpu time      0.0960: real time      0.0960
    SETDIJ:  cpu time      0.0047: real time      0.0047
    TRIAL :  cpu time      5.4919: real time      5.4961
    CORREC:  cpu time      2.2174: real time      2.2189
    CHARGE:  cpu time      0.4524: real time      0.4533
    --------------------------------------------
      LOOP:  cpu time      8.2748: real time      8.2997

 eigenvalue-minimisations  :     0
 total energy-change (2. order) :-0.3546335E-03  (-0.5102420E-04)
 number of electron      96.0000001 magnetization 
 augmentation part       -0.1002759 magnetization 

 Free energy of the ion-electron system (eV)
  ---------------------------------------------------
  alpha Z        PSCENC =        88.11361408
  Ewald energy   TEWEN  =     -1438.30069511
  -Hartree energ DENC   =     -1689.41761335
  -exchange      EXHF   =         0.00000000
  -V(xc)+E(xc)   XCENC  =       185.50667011
  PAW double counting   =     29905.53163209   -29802.20067876
  entropy T*S    EENTRO =        -0.00000000
  eigenvalues    EBANDS =      -624.19091566
  atomic energy  EATOM  =      3146.43714121
  ---------------------------------------------------
  free energy    TOTEN  =      -228.52084539 eV

  energy without entropy =     -228.52084539  energy(sigma->0) =     -228.52084539


--------------------------------------------------------------------------------------------------------




--------------------------------------- Iteration      1(  14)  ---------------------------------------


    POTLOK:  cpu time      0.0964: real time      0.0964
    SETDIJ:  cpu time      0.0046: real time      0.0046
    TRIAL :  cpu time      5.4986: real time      5.5024
    CORREC:  cpu time      2.2521: real time      2.2540
    CHARGE:  cpu time      0.4535: real time      0.4535
    --------------------------------------------
      LOOP:  cpu time      8.3194: real time      8.3412

 eigenvalue-minimisations  :     0
 total energy-change (2. order) :-0.5080316E-04  (-0.7952300E-05)
 number of electron      96.0000001 magnetization 
 augmentation part       -0.1002965 magnetization 

 Free energy of the ion-electron system (eV)
  ---------------------------------------------------
  alpha Z        PSCENC =        88.11361408
  Ewald energy   TEWEN  =     -1438.30069511
  -Hartree energ DENC   =     -1689.41520133
  -exchange      EXHF   =         0.00000000
  -V(xc)+E(xc)   XCENC  =       185.50711005
  PAW double counting   =     29901.29009854   -29797.95901888
  entropy T*S    EENTRO =        -0.00000000
  eigenvalues    EBANDS =      -624.19394475
  atomic energy  EATOM  =      3146.43714121
  ---------------------------------------------------
  free energy    TOTEN  =      -228.52089619 eV

  energy without entropy =     -228.52089619  energy(sigma->0) =     -228.52089619


--------------------------------------------------------------------------------------------------------




--------------------------------------- Iteration      1(  15)  ---------------------------------------


    POTLOK:  cpu time      0.0963: real time      0.0963
    SETDIJ:  cpu time      0.0046: real time      0.0046
    TRIAL :  cpu time      5.4911: real time      5.4944
    CORREC:  cpu time      2.2574: real time      2.2588
    CHARGE:  cpu time      0.4522: real time      0.4522
    --------------------------------------------
      LOOP:  cpu time      8.3319: real time      8.3369

 eigenvalue-minimisations  :     0
 total energy-change (2. order) :-0.7946135E-05  (-0.1497082E-05)
 number of electron      96.0000001 magnetization 
 augmentation part       -0.1003093 magnetization 

 Free energy of the ion-electron system (eV)
  ---------------------------------------------------
  alpha Z        PSCENC =        88.11361408
  Ewald energy   TEWEN  =     -1438.30069511
  -Hartree energ DENC   =     -1689.38700813
  -exchange      EXHF   =         0.00000000
  -V(xc)+E(xc)   XCENC  =       185.50604421
  PAW double counting   =     29903.28669910   -29799.95551850
  entropy T*S    EENTRO =        -0.00000000
  eigenvalues    EBANDS =      -624.22118100
  atomic energy  EATOM  =      3146.43714121
  ---------------------------------------------------
  free energy    TOTEN  =      -228.52090413 eV

  energy without entropy =     -228.52090413  energy(sigma->0) =     -228.52090413


--------------------------------------------------------------------------------------------------------




--------------------------------------- Iteration      1(  16)  ---------------------------------------


    POTLOK:  cpu time      0.0961: real time      0.0961
    SETDIJ:  cpu time      0.0045: real time      0.0045
    TRIAL :  cpu time      5.5326: real time      5.5370
    CORREC:  cpu time      2.2978: real time      2.2991
    CHARGE:  cpu time      0.4464: real time      0.4473
    --------------------------------------------
      LOOP:  cpu time      8.3897: real time      8.4140

 eigenvalue-minimisations  :     0
 total energy-change (2. order) :-0.1397078E-05  (-0.2090595E-06)
 number of electron      96.0000001 magnetization 
 augmentation part       -0.1003093 magnetization 

 Free energy of the ion-electron system (eV)
  ---------------------------------------------------
  alpha Z        PSCENC =        88.11361408
  Ewald energy   TEWEN  =     -1438.30069511
  -Hartree energ DENC   =     -1689.39187937
  -exchange      EXHF   =         0.00000000
  -V(xc)+E(xc)   XCENC  =       185.50626522
  PAW double counting   =     29904.73882646   -29801.40776141
  entropy T*S    EENTRO =        -0.00000000
  eigenvalues    EBANDS =      -624.21641662
  atomic energy  EATOM  =      3146.43714121
  ---------------------------------------------------
  free energy    TOTEN  =      -228.52090553 eV

  energy without entropy =     -228.52090553  energy(sigma->0) =     -228.52090553


--------------------------------------------------------------------------------------------------------




--------------------------------------- Iteration      1(  17)  ---------------------------------------


    POTLOK:  cpu time      0.0960: real time      0.0960
    SETDIJ:  cpu time      0.0046: real time      0.0046
    TRIAL :  cpu time      5.4982: real time      5.5018
    CORREC:  cpu time      2.2203: real time      2.2215
    CHARGE:  cpu time      0.4476: real time      0.4476
    --------------------------------------------
      LOOP:  cpu time      8.2961: real time      8.3013

 eigenvalue-minimisations  :     0
 total energy-change (2. order) :-0.2112247E-06  (-0.3077703E-07)
 number of electron      96.0000001 magnetization 
 augmentation part       -0.1003076 magnetization 

 Free energy of the ion-electron system (eV)
  ---------------------------------------------------
  alpha Z        PSCENC =        88.11361408
  Ewald energy   TEWEN  =     -1438.30069511
  -Hartree energ DENC   =     -1689.39007761
  -exchange      EXHF   =         0.00000000
  -V(xc)+E(xc)   XCENC  =       185.50623374
  PAW double counting   =     29904.40026799   -29801.06921948
  entropy T*S    EENTRO =        -0.00000000
  eigenvalues    EBANDS =      -624.21817056
  atomic energy  EATOM  =      3146.43714121
  ---------------------------------------------------
  free energy    TOTEN  =      -228.52090574 eV

  energy without entropy =     -228.52090574  energy(sigma->0) =     -228.52090574


--------------------------------------------------------------------------------------------------------




--------------------------------------- Iteration      1(  18)  ---------------------------------------


    POTLOK:  cpu time      0.0962: real time      0.0962
    SETDIJ:  cpu time      0.0046: real time      0.0046
    TRIAL :  cpu time      5.4825: real time      5.4867
    CORREC:  cpu time      2.2445: real time      2.2460
    EDDIAG:  cpu time      2.0937: real time      2.0951
    CHARGE:  cpu time      0.4486: real time      0.4493
    --------------------------------------------
      LOOP:  cpu time     10.3983: real time     10.4063

 eigenvalue-minimisations  :     0
 total energy-change (2. order) :-0.3167224E-07  (-0.6455309E-08)
 number of electron      96.0000001 magnetization 
 augmentation part       -0.1003068 magnetization 

 Free energy of the ion-electron system (eV)
  ---------------------------------------------------
  alpha Z        PSCENC =        88.11361408
  Ewald energy   TEWEN  =     -1438.30069511
  -Hartree energ DENC   =     -1689.39093031
  -exchange      EXHF   =         0.00000000
  -V(xc)+E(xc)   XCENC  =       185.50625514
  PAW double counting   =     29904.01590303   -29800.68485740
  entropy T*S    EENTRO =        -0.00000000
  eigenvalues    EBANDS =      -624.21733642
  atomic energy  EATOM  =      3146.43714121
  ---------------------------------------------------
  free energy    TOTEN  =      -228.52090577 eV

  energy without entropy =     -228.52090577  energy(sigma->0) =     -228.52090577


--------------------------------------------------------------------------------------------------------


  average scaling for gradient   1.2430


 average (electrostatic) potential at core
  the test charge radii are     0.5770  0.4325
  (the norm of the test charge is              1.0000)
       1 -81.0774       2 -81.0774       3 -81.0774       4 -81.0774       5 -81.0493
       6 -81.0493       7 -81.0493       8 -81.0493       9 -81.2580      10 -81.2580
      11 -81.2580      12 -81.2580      13 -80.9931      14 -80.9931      15 -80.9931
      16 -80.9931      17 -81.0530      18 -81.0530      19 -81.0530      20 -81.0530
      21 -40.3614      22 -40.3614      23 -40.3614      24 -40.3614      25 -40.3095
      26 -40.3095      27 -40.3095      28 -40.3095      29 -40.1796      30 -40.1796
      31 -40.1796      32 -40.1796      33 -40.2727      34 -40.2727      35 -40.2727
      36 -40.2727



 E-fermi :   0.4555     XC(G=0):  -7.8476     alpha+bet : -7.4633

 Fermi energy:         0.4554638033

 k-point     1 :       0.0000    0.0000    0.0000
  band No.  band energies     occupation 
      1     -16.0709      2.00000
      2     -15.8933      2.00000
      3     -14.6423      2.00000
      4     -14.5808      2.00000
      5     -13.3450      2.00000
      6     -13.3239      2.00000
      7     -12.6610      2.00000
      8     -12.6000      2.00000
      9     -11.9644      2.00000
     10     -11.9519      2.00000
     11      -9.6809      2.00000
     12      -9.6122      2.00000
     13      -9.3784      2.00000
     14      -9.3149      2.00000
     15      -9.1433      2.00000
     16      -8.9687      2.00000
     17      -7.0593      2.00000
     18      -6.9235      2.00000
     19      -6.8988      2.00000
     20      -6.7147      2.00000
     21      -6.6007      2.00000
     22      -6.5106      2.00000
     23      -5.2804      2.00000
     24      -5.2440      2.00000
     25      -5.1659      2.00000
     26      -5.1272      2.00000
     27      -4.3905      2.00000
     28      -4.3858      2.00000
     29      -4.3667      2.00000
     30      -4.3616      2.00000
     31      -4.2067      2.00000
     32      -4.1139      2.00000
     33      -3.7833      2.00000
     34      -3.5074      2.00000
     35      -3.2284      2.00000
     36      -3.1012      2.00000
     37      -2.9026      2.00000
     38      -2.6336      2.00000
     39      -2.5230      2.00000
     40      -2.3170      2.00000
     41      -2.0706      2.00000
     42      -2.0669      2.00000
     43      -1.7325      2.00000
     44      -1.1494      2.00000
     45      -0.5306      2.00000
     46      -0.5002      2.00000
     47       0.1687      2.00000
     48       0.1705      2.00000
     49       3.3920      0.00000
     50       3.7497      0.00000
     51       4.2090      0.00000
     52       4.4028      0.00000
     53       5.2732      0.00000
     54       5.5378      0.00000
     55       5.5523      0.00000
     56       6.3621      0.00000
     57       6.5739      0.00000
     58       7.2423      0.00000
     59       7.3858      0.00000
     60       7.5236      0.00000
     61       8.0710      0.00000
     62       8.1040      0.00000
     63       8.2492      0.00000
     64       8.3225      0.00000
     65       8.7838      0.00000
     66       8.9149      0.00000
     67       9.0529      0.00000
     68       9.2187      0.00000
     69       9.2828      0.00000
     70       9.6836      0.00000
     71       9.7246      0.00000
     72       9.9385      0.00000
     73      10.2154      0.00000
     74      10.4621      0.00000
     75      10.6980      0.00000
     76      11.0029      0.00000
     77      11.0883      0.00000
     78      11.2748      0.00000
     79      11.3735      0.00000
     80      11.4082      0.00000
     81      11.6682      0.00000
     82      11.9189      0.00000
     83      11.9536      0.00000
     84      12.0157      0.00000
     85      12.0171      0.00000
     86      12.0843      0.00000
     87      12.5056      0.00000
     88      12.6645      0.00000
     89      12.8380      0.00000
     90      12.8450      0.00000
     91      13.1042      0.00000
     92      13.3301      0.00000
     93      13.7152      0.00000
     94      13.8222      0.00000
     95      13.8604      0.00000
     96      13.9374      0.00000
     97      14.1962      0.00000
     98      14.6061      0.00000
     99      14.6238      0.00000
    100      14.7596      0.00000
    101      14.9349      0.00000
    102      14.9361      0.00000
    103      15.6248      0.00000
    104      15.6709      0.00000
    105      15.7269      0.00000
    106      15.8007      0.00000
    107      16.3854      0.00000
    108      16.4414      0.00000
    109      16.5290      0.00000
    110      16.5607      0.00000
    111      16.6111      0.00000
    112      16.6213      0.00000
    113      17.0861      0.00000
    114      17.1704      0.00000
    115      17.5067      0.00000
    116      17.5820      0.00000
    117      17.6151      0.00000
    118      17.7635      0.00000
    119      17.9645      0.00000
    120      18.1145      0.00000
    121      18.1325      0.00000
    122      18.4167      0.00000
    123      19.1957      0.00000
    124      19.3804      0.00000
    125      19.4052      0.00000
    126      19.4806      0.00000
    127      19.7791      0.00000
    128      20.1474      0.00000

 k-point     2 :       0.2500    0.0000    0.0000
  band No.  band energies     occupation 
      1     -16.0460      2.00000
      2     -15.9205      2.00000
      3     -14.6344      2.00000
      4     -14.5912      2.00000
      5     -13.3410      2.00000
      6     -13.3262      2.00000
      7     -12.6464      2.00000
      8     -12.6036      2.00000
      9     -11.9665      2.00000
     10     -11.9574      2.00000
     11      -9.6713      2.00000
     12      -9.6222      2.00000
     13      -9.3706      2.00000
     14      -9.3257      2.00000
     15      -9.1185      2.00000
     16      -8.9965      2.00000
     17      -7.0766      2.00000
     18      -6.9917      2.00000
     19      -6.8472      2.00000
     20      -6.6989      2.00000
     21      -6.5775      2.00000
     22      -6.5137      2.00000
     23      -5.2852      2.00000
     24      -5.2407      2.00000
     25      -5.1159      2.00000
     26      -5.0437      2.00000
     27      -4.4878      2.00000
     28      -4.4750      2.00000
     29      -4.3474      2.00000
     30      -4.3114      2.00000
     31      -4.1923      2.00000
     32      -4.0777      2.00000
     33      -3.7983      2.00000
     34      -3.6012      2.00000
     35      -3.2505      2.00000
     36      -3.1347      2.00000
     37      -2.7819      2.00000
     38      -2.5351      2.00000
     39      -2.4922      2.00000
     40      -2.3088      2.00000
     41      -2.1976      2.00000
     42      -2.1087      2.00000
     43      -1.6889      2.00000
     44      -1.2658      2.00000
     45      -0.5086      2.00000
     46      -0.4870      2.00000
     47       0.1542      2.00000
     48       0.1615      2.00000
     49       3.4564      0.00000
     50       3.7232      0.00000
     51       4.2378      0.00000
     52       4.3864      0.00000
     53       5.2786      0.00000
     54       5.5220      0.00000
     55       5.8254      0.00000
     56       6.4793      0.00000
     57       6.5073      0.00000
     58       7.0830      0.00000
     59       7.4132      0.00000
     60       7.4762      0.00000
     61       7.8331      0.00000
     62       8.1317      0.00000
     63       8.2157      0.00000
     64       8.4974      0.00000
     65       8.5989      0.00000
     66       8.8399      0.00000
     67       9.1515      0.00000
     68       9.2069      0.00000
     69       9.4616      0.00000
     70       9.5941      0.00000
     71       9.6856      0.00000
     72       9.8496      0.00000
     73      10.2472      0.00000
     74      10.7220      0.00000
     75      10.7694      0.00000
     76      10.8985      0.00000
     77      11.1968      0.00000
     78      11.2252      0.00000
     79      11.3078      0.00000
     80      11.4438      0.00000
     81      11.6061      0.00000
     82      11.8600      0.00000
     83      11.9116      0.00000
     84      11.9939      0.00000
     85      12.1746      0.00000
     86      12.3575      0.00000
     87      12.3902      0.00000
     88      12.6913      0.00000
     89      12.8983      0.00000
     90      12.9529      0.00000
     91      13.2755      0.00000
     92      13.3045      0.00000
     93      13.4801      0.00000
     94      13.6815      0.00000
     95      14.0913      0.00000
     96      14.1949      0.00000
     97      14.3211      0.00000
     98      14.3879      0.00000
     99      14.4266      0.00000
    100      14.7495      0.00000
    101      14.8808      0.00000
    102      14.9589      0.00000
    103      15.0800      0.00000
    104      15.6828      0.00000
    105      15.7623      0.00000
    106      15.7889      0.00000
    107      16.0508      0.00000
    108      16.1795      0.00000
    109      16.2390      0.00000
    110      16.5303      0.00000
    111      16.6931      0.00000
    112      17.0458      0.00000
    113      17.0571      0.00000
    114      17.2946      0.00000
    115      17.3320      0.00000
    116      17.4631      0.00000
    117      17.6876      0.00000
    118      17.9473      0.00000
    119      18.0002      0.00000
    120      18.1338      0.00000
    121      18.1723      0.00000
    122      18.4677      0.00000
    123      18.7882      0.00000
    124      19.0887      0.00000
    125      19.0895      0.00000
    126      19.3500      0.00000
    127      19.6006      0.00000
    128      19.7988      0.00000

 k-point     3 :       0.5000    0.0000    0.0000
  band No.  band energies     occupation 
      1     -15.9844      2.00000
      2     -15.9844      2.00000
      3     -14.6140      2.00000
      4     -14.6140      2.00000
[...]
     41      -2.0886      2.00000
     42      -1.9884      2.00000
     43      -1.3311      2.00000
     44      -1.2075      2.00000
     45      -0.5721      2.00000
     46      -0.5267      2.00000
     47       0.2919      2.00000
     48       0.3350      2.00000
     49       3.4869      0.00000
     50       3.5554      0.00000
     51       4.3309      0.00000
     52       4.4380      0.00000
     53       4.9896      0.00000
     54       5.0297      0.00000
     55       6.3992      0.00000
     56       6.6180      0.00000
     57       6.7780      0.00000
     58       6.8315      0.00000
     59       6.9719      0.00000
     60       7.2743      0.00000
     61       7.4678      0.00000
     62       7.7651      0.00000
     63       8.3141      0.00000
     64       8.4691      0.00000
     65       8.7320      0.00000
     66       9.0267      0.00000
     67       9.1653      0.00000
     68       9.2646      0.00000
     69       9.4979      0.00000
     70       9.5233      0.00000
     71       9.9492      0.00000
     72      10.2152      0.00000
     73      10.3763      0.00000
     74      10.6468      0.00000
     75      10.7821      0.00000
     76      10.8040      0.00000
     77      11.0038      0.00000
     78      11.0200      0.00000
     79      11.4199      0.00000
     80      11.5758      0.00000
     81      11.6621      0.00000
     82      11.8789      0.00000
     83      12.0545      0.00000
     84      12.1957      0.00000
     85      12.3313      0.00000
     86      12.5081      0.00000
     87      12.6855      0.00000
     88      12.7141      0.00000
     89      12.9425      0.00000
     90      13.0127      0.00000
     91      13.1598      0.00000
     92      13.2204      0.00000
     93      13.3502      0.00000
     94      13.4290      0.00000
     95      13.6320      0.00000
     96      13.9672      0.00000
     97      14.1485      0.00000
     98      14.2221      0.00000
     99      14.4468      0.00000
    100      14.5498      0.00000
    101      14.5862      0.00000
    102      14.6652      0.00000
    103      15.3508      0.00000
    104      15.5101      0.00000
    105      15.8064      0.00000
    106      15.8944      0.00000
    107      16.1021      0.00000
    108      16.1763      0.00000
    109      16.2634      0.00000
    110      16.4819      0.00000
    111      16.7914      0.00000
    112      16.9857      0.00000
    113      17.1687      0.00000
    114      17.4029      0.00000
    115      17.4950      0.00000
    116      17.6878      0.00000
    117      17.9673      0.00000
    118      18.1136      0.00000
    119      18.5077      0.00000
    120      18.5383      0.00000
    121      18.7189      0.00000
    122      18.8146      0.00000
    123      19.0671      0.00000
    124      19.0915      0.00000
    125      19.4068      0.00000
    126      19.4461      0.00000
    127      19.5015      0.00000
    128      19.8591      0.00000

 k-point    42 :       0.5000    0.4000    0.5000
  band No.  band energies     occupation 
      1     -15.9492      2.00000
      2     -15.9492      2.00000
      3     -14.6279      2.00000
      4     -14.6279      2.00000
      5     -13.4266      2.00000
      6     -13.4266      2.00000
      7     -12.5507      2.00000
      8     -12.5506      2.00000
      9     -12.0240      2.00000
     10     -12.0240      2.00000
     11      -9.7873      2.00000
     12      -9.7873      2.00000
     13      -9.3176      2.00000
     14      -9.3176      2.00000
     15      -8.8550      2.00000
     16      -8.8550      2.00000
     17      -6.9443      2.00000
     18      -6.9443      2.00000
     19      -6.8344      2.00000
     20      -6.8344      2.00000
     21      -6.2838      2.00000
     22      -6.2838      2.00000
     23      -5.3968      2.00000
     24      -5.3968      2.00000
     25      -5.0577      2.00000
     26      -5.0577      2.00000
     27      -4.5686      2.00000
     28      -4.5686      2.00000
     29      -4.4706      2.00000
     30      -4.4706      2.00000
     31      -4.0268      2.00000
     32      -4.0268      2.00000
     33      -3.8617      2.00000
     34      -3.8617      2.00000
     35      -3.2974      2.00000
     36      -3.2974      2.00000
     37      -2.8167      2.00000
     38      -2.8167      2.00000
     39      -2.4483      2.00000
     40      -2.4483      2.00000
     41      -1.9544      2.00000
     42      -1.9544      2.00000
     43      -1.2810      2.00000
     44      -1.2810      2.00000
     45      -0.5652      2.00000
     46      -0.5652      2.00000
     47       0.3556      2.00000
     48       0.3556      2.00000
     49       3.5003      0.00000
     50       3.5003      0.00000
     51       4.4238      0.00000
     52       4.4238      0.00000
     53       4.9854      0.00000
     54       4.9854      0.00000
     55       6.5023      0.00000
     56       6.5023      0.00000
     57       6.7128      0.00000
     58       6.7128      0.00000
     59       7.1683      0.00000
     60       7.1683      0.00000
     61       7.7409      0.00000
     62       7.7409      0.00000
     63       8.3895      0.00000
     64       8.3895      0.00000
     65       8.9606      0.00000
     66       8.9606      0.00000
     67       9.3233      0.00000
     68       9.3233      0.00000
     69       9.5857      0.00000
     70       9.5857      0.00000
     71       9.9317      0.00000
     72       9.9317      0.00000
     73      10.2035      0.00000
     74      10.2035      0.00000
     75      10.7210      0.00000
     76      10.7210      0.00000
     77      11.0598      0.00000
     78      11.0598      0.00000
     79      11.5360      0.00000
     80      11.5360      0.00000
     81      11.7644      0.00000
     82      11.7644      0.00000
     83      12.2982      0.00000
     84      12.2982      0.00000
     85      12.4395      0.00000
     86      12.4395      0.00000
     87      12.6158      0.00000
     88      12.6158      0.00000
     89      12.7605      0.00000
     90      12.7605      0.00000
     91      13.0704      0.00000
     92      13.0704      0.00000
     93      13.3102      0.00000
     94      13.3102      0.00000
     95      13.7682      0.00000
     96      13.7682      0.00000
     97      14.2068      0.00000
     98      14.2068      0.00000
     99      14.5272      0.00000
    100      14.5272      0.00000
    101      14.8850      0.00000
    102      14.8850      0.00000
    103      15.3399      0.00000
    104      15.3399      0.00000
    105      15.7312      0.00000
    106      15.7312      0.00000
    107      16.2433      0.00000
    108      16.2433      0.00000
    109      16.4515      0.00000
    110      16.4515      0.00000
    111      17.0495      0.00000
    112      17.0495      0.00000
    113      17.4607      0.00000
    114      17.4607      0.00000
    115      17.7791      0.00000
    116      17.7793      0.00000
    117      18.1042      0.00000
    118      18.1071      0.00000
    119      18.2867      0.00000
    120      18.2873      0.00000
    121      18.6324      0.00000
    122      18.6332      0.00000
    123      19.0676      0.00000
    124      19.0686      0.00000
    125      19.3038      0.00000
    126      19.3048      0.00000
    127      19.7147      0.00000
    128      19.7190      0.00000


--------------------------------------------------------------------------------------------------------


 soft charge-density along one line, spin component           1
         0         1         2         3         4         5         6         7         8         9
 total charge-density along one line

 pseudopotential strength for first ion, spin component:           1
 12.478  20.994  -0.001   0.000  -0.001  -0.002   0.001  -0.001
 20.994  35.320  -0.002   0.001  -0.001  -0.003   0.001  -0.002
 -0.001  -0.002  -3.186   0.000   0.000  -5.703   0.000   0.000
  0.000   0.001   0.000  -3.186  -0.000   0.000  -5.704  -0.000
 -0.001  -0.001   0.000  -0.000  -3.186   0.000  -0.000  -5.704
 -0.002  -0.003  -5.703   0.000   0.000 -10.189   0.000   0.000
  0.001   0.001   0.000  -5.704  -0.000   0.000 -10.190  -0.000
 -0.001  -0.002   0.000  -0.000  -5.704   0.000  -0.000 -10.190
 total augmentation occupancy for first ion, spin component:           1
  6.335  -2.023  -0.004  -0.665   0.282   0.009   0.295  -0.121
 -2.023   0.681   0.013   0.308  -0.126  -0.009  -0.133   0.052
 -0.004   0.013   5.791   0.335   1.497  -1.825  -0.124  -0.574
 -0.665   0.308   0.335   5.437  -1.074  -0.124  -1.664   0.402
  0.282  -0.126   1.497  -1.074   3.821  -0.574   0.402  -1.070
  0.009  -0.009  -1.825  -0.124  -0.574   0.591   0.042   0.211
  0.295  -0.133  -0.124  -1.664   0.402   0.042   0.520  -0.143
 -0.121   0.052  -0.574   0.402  -1.070   0.211  -0.143   0.314


------------------------ aborting loop because EDIFF is reached ----------------------------------------


    FORLOC:  cpu time      0.0068: real time      0.0068
    FORNL :  cpu time      2.7939: real time      2.7953
    FORCOR:  cpu time      0.0950: real time      0.0956
    OFIELD:  cpu time      0.0023: real time      0.0023
 WARNING: Using user supplied parameters
     VDW_S8 = 1.682
     VDW_SR = 1.094
     because the xc functional is not supported. Required parameters not
     defined in the INCAR file will be replaced with PBE defaults ones.


 ---------------------------------------------------------------------------------------------

         DFTD3 V3.0 Rev 1        
 IVDW         = 11
 DF unknown   
 parameters
 VDW_S6       =    1.0000
 VDW_S8       =    1.6820
 VDW_SR       =    1.0940
 rs18     =    1.0000
 alpha6   =   14.0000
 alpha8   =   16.0000
 k1-k3    =   16.0000    1.3333   -4.0000
 VDW_RADIUS   =   50.2022 A
 VDW_CNRADIUS =   21.1671 A
 Edisp (eV)   -3.69714

 E6    (eV) :    -1.9005
 E8    (eV) :    -1.7966
 % E8        : 48.59
    FORVDW:  cpu time      0.5369: real time      0.5375

 VOLUME and BASIS-vectors are now :
 -----------------------------------------------------------------------------
  energy-cutoff  :     1000.00
  volume of cell :      340.83
      direct lattice vectors                 reciprocal lattice vectors
     8.084600000  0.000000000  0.000000000     0.123691958 -0.000000000  0.085562126
     0.000000000  5.937500000  0.000000000     0.000000000  0.168421053 -0.000000000
    -4.911530000  0.000000000  7.100300000     0.000000000  0.000000000  0.140839119

  length of vectors
     8.084600000  5.937500000  8.633503752     0.150401389  0.168421053  0.140839119


 FORCES acting on ions:
    Electron-Ion                     Ewald-Force                    Non-Local-Force
 -----------------------------------------------------------------------------------------------
   0.307E+02 -.222E+02 -.130E+03   -.303E+02 0.228E+02 0.130E+03   -.485E+00 -.570E+00 0.592E+00
   -.307E+02 0.222E+02 0.130E+03   0.303E+02 -.228E+02 -.130E+03   0.485E+00 0.570E+00 -.592E+00
   -.307E+02 -.222E+02 0.130E+03   0.303E+02 0.228E+02 -.130E+03   0.485E+00 -.570E+00 -.592E+00
   0.307E+02 0.222E+02 -.130E+03   -.303E+02 -.228E+02 0.130E+03   -.485E+00 0.570E+00 0.592E+00
   -.278E+02 -.924E+02 -.867E+02   0.274E+02 0.924E+02 0.874E+02   0.436E+00 0.218E+00 -.592E+00
   0.278E+02 0.924E+02 0.867E+02   -.274E+02 -.924E+02 -.874E+02   -.436E+00 -.218E+00 0.592E+00
   0.278E+02 -.924E+02 0.867E+02   -.274E+02 0.924E+02 -.874E+02   -.436E+00 0.218E+00 0.592E+00
   -.278E+02 0.924E+02 -.867E+02   0.274E+02 -.924E+02 0.874E+02   0.436E+00 -.218E+00 -.592E+00
   -.125E+02 -.380E+02 -.238E+02   0.127E+02 0.385E+02 0.239E+02   -.137E+00 -.416E+00 -.636E-01
   0.125E+02 0.380E+02 0.238E+02   -.127E+02 -.385E+02 -.239E+02   0.137E+00 0.416E+00 0.636E-01
   0.125E+02 -.380E+02 0.238E+02   -.127E+02 0.385E+02 -.239E+02   0.137E+00 -.416E+00 0.636E-01
   -.125E+02 0.380E+02 -.238E+02   0.127E+02 -.385E+02 0.239E+02   -.137E+00 0.416E+00 -.636E-01
   -.282E+02 -.955E+02 -.891E+01   0.288E+02 0.963E+02 0.845E+01   -.598E+00 -.574E+00 0.540E+00
   0.282E+02 0.955E+02 0.891E+01   -.288E+02 -.963E+02 -.845E+01   0.598E+00 0.574E+00 -.540E+00
   0.282E+02 -.955E+02 0.891E+01   -.288E+02 0.963E+02 -.845E+01   0.598E+00 -.574E+00 -.540E+00
   -.282E+02 0.955E+02 -.891E+01   0.288E+02 -.963E+02 0.845E+01   -.598E+00 0.574E+00 0.540E+00
   -.580E+02 -.648E+02 0.101E+03   0.580E+02 0.653E+02 -.998E+02   0.150E+00 -.397E+00 -.944E+00
   0.580E+02 0.648E+02 -.101E+03   -.580E+02 -.653E+02 0.998E+02   -.150E+00 0.397E+00 0.944E+00
   0.580E+02 -.648E+02 -.101E+03   -.580E+02 0.653E+02 0.998E+02   -.150E+00 -.397E+00 0.944E+00
   -.580E+02 0.648E+02 0.101E+03   0.580E+02 -.653E+02 -.998E+02   0.150E+00 0.397E+00 -.944E+00
   0.135E+02 -.139E+02 -.469E+02   -.151E+02 0.155E+02 0.522E+02   0.157E+01 -.161E+01 -.547E+01
   -.135E+02 0.139E+02 0.469E+02   0.151E+02 -.155E+02 -.522E+02   -.157E+01 0.161E+01 0.547E+01
   -.135E+02 -.139E+02 0.469E+02   0.151E+02 0.155E+02 -.522E+02   -.157E+01 -.161E+01 0.547E+01
   0.135E+02 0.139E+02 -.469E+02   -.151E+02 -.155E+02 0.522E+02   0.157E+01 0.161E+01 -.547E+01
   -.129E+02 -.442E+02 -.288E+02   0.146E+02 0.493E+02 0.310E+02   -.170E+01 -.524E+01 -.217E+01
   0.129E+02 0.442E+02 0.288E+02   -.146E+02 -.493E+02 -.310E+02   0.170E+01 0.524E+01 0.217E+01
   0.129E+02 -.442E+02 0.288E+02   -.146E+02 0.493E+02 -.310E+02   0.170E+01 -.524E+01 0.217E+01
   -.129E+02 0.442E+02 -.288E+02   0.146E+02 -.493E+02 0.310E+02   -.170E+01 0.524E+01 -.217E+01
   -.855E+01 -.419E+02 -.133E+02   0.102E+02 0.470E+02 0.154E+02   -.173E+01 -.528E+01 -.223E+01
   0.855E+01 0.419E+02 0.133E+02   -.102E+02 -.470E+02 -.154E+02   0.173E+01 0.528E+01 0.223E+01
   0.855E+01 -.419E+02 0.133E+02   -.102E+02 0.470E+02 -.154E+02   0.173E+01 -.528E+01 0.223E+01
   -.855E+01 0.419E+02 -.133E+02   0.102E+02 -.470E+02 0.154E+02   -.173E+01 0.528E+01 -.223E+01
   -.276E+02 -.327E+02 0.373E+02   0.308E+02 0.363E+02 -.404E+02   -.333E+01 -.367E+01 0.322E+01
   0.276E+02 0.327E+02 -.373E+02   -.308E+02 -.363E+02 0.404E+02   0.333E+01 0.367E+01 -.322E+01
   0.276E+02 -.327E+02 -.373E+02   -.308E+02 0.363E+02 0.404E+02   0.333E+01 -.367E+01 -.322E+01
   -.276E+02 0.327E+02 0.373E+02   0.308E+02 -.363E+02 -.404E+02   -.333E+01 0.367E+01 0.322E+01
 -----------------------------------------------------------------------------------------------
   0.978E-03 0.269E-03 0.846E-05   -.746E-13 -.284E-13 -.234E-12   0.444E-15 0.888E-15 -.888E-15


 POSITION                                       TOTAL-FORCE (eV/Angst)
 -----------------------------------------------------------------------------------
     -0.94974      0.11744      2.34434        -0.059719      0.082671      0.232260
      4.12281      5.82006      4.75596         0.059719     -0.082671     -0.232260
      0.08051      3.08619      4.75596         0.059707      0.082685     -0.232247
      3.09256      2.85131      2.34434        -0.059707     -0.082685      0.232247
     -0.18069      0.97674      1.58828         0.046267      0.196333      0.132519
      3.35376      4.96076      5.51202        -0.046267     -0.196333     -0.132519
     -0.68854      3.94549      5.51202        -0.046256      0.196330     -0.132518
      3.86161      1.99201      1.58828         0.046256     -0.196330      0.132518
      0.20693      0.63246      0.26732         0.024969      0.103279      0.040508
      2.96614      5.30504      6.83298        -0.024969     -0.103279     -0.040508
     -1.07616      3.60121      6.83298        -0.024983      0.103265     -0.040518
      4.24923      2.33629      0.26732         0.024983     -0.103265      0.040518
     -3.92115      1.49896      6.56173         0.075898      0.236530      0.038328
      7.09422      4.43854      0.53857        -0.075898     -0.236530     -0.038328
      3.05192      4.46771      0.53857        -0.075881      0.236518     -0.038344
      0.12115      1.46979      6.56173         0.075881     -0.236518      0.038344
     -3.55163      1.13140      5.28459         0.137545      0.180742     -0.126956
      6.72470      4.80610      1.81571        -0.137545     -0.180742      0.126956
      2.68240      4.10015      1.81571        -0.137551      0.180764      0.126949
      0.49067      1.83735      5.28459         0.137551     -0.180764     -0.126949
     -1.24421      0.40588      3.35327         0.032123     -0.029870     -0.108040
      4.41728      5.53162      3.74703        -0.032123      0.029870      0.108040
      0.37498      3.37463      3.74703        -0.032118     -0.029861      0.108014
      2.79809      2.56287      3.35327         0.032118      0.029861     -0.108014
      0.13370      1.94022      1.98886        -0.041998     -0.110376     -0.037660
      3.03937      3.99728      5.11144         0.041998      0.110376      0.037660
     -1.00293      4.90898      5.11144         0.041998     -0.110379      0.037662
      4.17600      1.02852      1.98886        -0.041998      0.110379     -0.037662
     -3.61071      2.45931      6.97233        -0.051426     -0.130235     -0.076774
      6.78378      3.47819      0.12797         0.051426      0.130235      0.076774
      2.74148      5.42806      0.12797         0.051420     -0.130224      0.076775
      0.43159      0.50944      6.97233        -0.051420      0.130224     -0.076775
     -2.93800      1.80454      4.68314        -0.077163     -0.086584      0.074949
      6.11107      4.13296      2.41716         0.077163      0.086584     -0.074949
      2.06877      4.77329      2.41716         0.077172     -0.086599     -0.074955
      1.10430      1.16421      4.68314        -0.077172      0.086599      0.074955
 -----------------------------------------------------------------------------------
    total drift:                                0.000978      0.000269      0.000008


--------------------------------------------------------------------------------------------------------



  FREE ENERGIE OF THE ION-ELECTRON SYSTEM (eV)
  ---------------------------------------------------
  free  energy   TOTEN  =      -232.21804184 eV

  energy  without entropy=     -232.21804184  energy(sigma->0) =     -232.21804184



--------------------------------------------------------------------------------------------------------


    POTLOK:  cpu time      0.1176: real time      0.1179


--------------------------------------------------------------------------------------------------------


 stress matrix after NEB project (eV)
     -5.56709     -0.00000     -0.99109
     -0.00000     -4.31279      0.00000
     -0.99109      0.00000     -3.80811
  FORCES: max atom, RMS     0.260215    0.194345
  FORCE total and by dimension    1.166069    0.236530
  Stress total and by dimension    8.127659    5.567087
     LOOP+:  cpu time    439.7021: real time    440.2516
    4ORBIT:  cpu time      0.0000: real time      0.0000

 total amount of memory used by VASP MPI-rank0   147221. kBytes
=======================================================================

   base      :      30000. kBytes
   nonl-proj :      73138. kBytes
   fftplans  :       7979. kBytes
   grid      :      11020. kBytes
   one-center:         55. kBytes
   wavefun   :      25029. kBytes

  
  
 General timing and accounting informations for this job:
 ========================================================
  
                  Total CPU time used (sec):      474.736
                            User time (sec):      472.182
                          System time (sec):        2.555
                         Elapsed time (sec):      479.050
  
                   Maximum memory used (kb):      428720.
                   Average memory used (kb):          N/A
  
                          Minor page faults:        76551
                          Major page faults:         1177
                 Voluntary context switches:         5877
