 vasp.6.4.1 05Apr23 (build Jun  6 2023 14:36:51) complex                         
 executed on        HPECrayEX_GCC date 2024.08.20  14:14:08
 running  256 mpi-ranks, with    1 threads/rank, on    2 nodes
 distrk:  each k-point on  256 cores,    1 groups
 distr:  one band on NCORE=   2 cores,  128 groups


--------------------------------------------------------------------------------------------------------


 INCAR:
   ALGO = Conjugate
   NCORE = 2
   PREC = Accurate
   EDIFF = 1E-7
   ENCUT = 1000
   ISMEAR = 0
   SIGMA = 0.01
   ISIF = 0
   SYMPREC = 1E-7
   IVDW = 11
   LWAVE = .FALSE.
   LCHARGE = .FALSE.
   LWAVE = .FALSE.
   LCHARGE = .FALSE.

 POTCAR:    PAW_PBE C_h 06Feb2004                 
 POTCAR:    PAW_PBE H_h 06Feb2004                 
 POTCAR:    PAW_PBE C_h 06Feb2004                 
   VRHFIN =C: s2p2                                                                                  
   LEXCH  = PE                                                                                      
   EATOM  =   147.1560 eV,   10.8157 Ry                                                             
                                                                                                    
   TITEL  = PAW_PBE C_h 06Feb2004                                                                   
   LULTRA =        F    use ultrasoft PP ?                                                          
   IUNSCR =        1    unscreen: 0-lin 1-nonlin 2-no                                               
   RPACOR =    0.800    partial core radius                                                         
   POMASS =   12.011; ZVAL   =    4.000    mass and valenz                                          
   RCORE  =    1.100    outmost cutoff radius                                                       
   RWIGS  =    1.630; RWIGS  =    0.863    wigner-seitz radius (au A)                               
   ENMAX  =  700.000; ENMIN  =  500.000 eV                                                          
   ICORE  =        2    local potential                                                             
   LCOR   =        T    correct aug charges                                                         
   LPAW   =        T    paw PP                                                                      
   EAUG   =  946.768                                                                                
   DEXC   =    0.000                                                                                
   RMAX   =    1.128    core radius for proj-oper                                                   
   RAUG   =    1.300    factor for augmentation sphere                                              
   RDEP   =    1.162    radius for radial grids                                                     
   RDEPT  =    1.088    core radius for aug-charge                                                  
                                                                                                    
   Atomic configuration                                                                             
    4 entries                                                                                       
     n  l   j            E        occ.                                                              
     1  0  0.50      -273.3789   2.0000                                                             
     2  0  0.50       -13.7508   2.0000                                                             
     2  1  0.50        -5.2854   2.0000                                                             
     3  2  1.50        -5.4423   0.0000                                                             
   Description                                                                                      
     l       E           TYP  RCUT    TYP  RCUT                                                     
     0    -13.7508458     23  1.100                                                                 
     0     -8.2022199     23  1.100                                                                 
     1     -5.2854383     23  1.100                                                                 
     1      1.1560700     23  1.100                                                                 
     2     -5.4423304      7  1.100                                                                 
  local pseudopotential read in
  partial core-charges read in
  partial kinetic energy density read in
  atomic valenz-charges read in
  non local Contribution for L=           0  read in
    real space projection operators read in
  non local Contribution for L=           0  read in
    real space projection operators read in
  non local Contribution for L=           1  read in
    real space projection operators read in
  non local Contribution for L=           1  read in
    real space projection operators read in
    PAW grid and wavefunctions read in

   number of l-projection  operators is LMAX  =           4
   number of lm-projection operators is LMMAX =           8

 POTCAR:    PAW_PBE H_h 06Feb2004                 
   VRHFIN =H: ultrasoft test                                                                        
   LEXCH  = PE                                                                                      
   EATOM  =    12.4884 eV,    0.9179 Ry                                                             
                                                                                                    
   TITEL  = PAW_PBE H_h 06Feb2004                                                                   
   LULTRA =        F    use ultrasoft PP ?                                                          
   IUNSCR =        0    unscreen: 0-lin 1-nonlin 2-no                                               
   RPACOR =    0.000    partial core radius                                                         
   POMASS =    1.000; ZVAL   =    1.000    mass and valenz                                          
   RCORE  =    0.800    outmost cutoff radius                                                       
   RWIGS  =    0.700; RWIGS  =    0.370    wigner-seitz radius (au A)                               
   ENMAX  =  700.000; ENMIN  =  350.000 eV                                                          
   RCLOC  =    0.701    cutoff for local pot                                                        
   LCOR   =        T    correct aug charges                                                         
   LPAW   =        T    paw PP                                                                      
   EAUG   = 1000.000                                                                                
   RMAX   =    0.819    core radius for proj-oper                                                   
   RAUG   =    1.000    factor for augmentation sphere                                              
   RDEP   =    0.817    radius for radial grids                                                     
   RDEPT  =    0.817    core radius for aug-charge                                                  
                                                                                                    
   Atomic configuration                                                                             
    2 entries                                                                                       
     n  l   j            E        occ.                                                              
     1  0  0.50        -6.4927   1.0000                                                             
     2  1  0.50        -3.4015   0.0000                                                             
   Description                                                                                      
     l       E           TYP  RCUT    TYP  RCUT                                                     
     0     -6.4927493     23  0.800                                                                 
     0      6.8029130     23  0.800                                                                 
     1     -6.8029130     23  0.800                                                                 
  local pseudopotential read in
  atomic valenz-charges read in
  non local Contribution for L=           0  read in
    real space projection operators read in
  non local Contribution for L=           0  read in
    real space projection operators read in
  non local Contribution for L=           1  read in
    real space projection operators read in
    PAW grid and wavefunctions read in

   number of l-projection  operators is LMAX  =           3
   number of lm-projection operators is LMMAX =           5

 -----------------------------------------------------------------------------
|                                                                             |
|               ----> ADVICE to this user running VASP <----                  |
|                                                                             |
|     You have a (more or less) 'large supercell' and for larger cells it     |
|     might be more efficient to use real-space projection operators.         |
|     Therefore, try LREAL= Auto in the INCAR file.                           |
|     Mind: For very accurate calculation, you might also keep the            |
|     reciprocal projection scheme (i.e. LREAL=.FALSE.).                      |
|                                                                             |
 -----------------------------------------------------------------------------

  PAW_PBE C_h 06Feb2004                 :
 energy of atom  1       EATOM= -147.1560
 kinetic energy error for atom=    0.0031 (will be added to EATOM!!)
  PAW_PBE H_h 06Feb2004                 :
 energy of atom  2       EATOM=  -12.4884
 kinetic energy error for atom=    0.0006 (will be added to EATOM!!)


 POSCAR:  C  H
  positions in cartesian coordinates
  No initial velocities read in
 exchange correlation table for  LEXCH =        8
   RHO(1)=    0.500       N(1)  =     2000
   RHO(2)=  100.500       N(2)  =     4000

 VTST: version 4.1, (05/19/21)

 CHAIN: initializing optimizer
 
 OPT: Using VASP Dynamics algorithm
 CHAIN: Read ICHAIN            0

 POSCAR:  C  H
  positions in cartesian coordinates
  No initial velocities read in



--------------------------------------------------------------------------------------------------------


 ion  position               nearest neighbor table
   1  0.083  0.020  0.330-  21 1.09   5 1.38  18 1.42
   2  0.917  0.980  0.670-  22 1.09   6 1.38  17 1.42
   3  0.417  0.520  0.670-  23 1.09   7 1.38  20 1.42
   4  0.583  0.480  0.330-  24 1.09   8 1.38  19 1.42
   5  0.114  0.165  0.224-  25 1.09   1 1.38   9 1.42
   6  0.886  0.835  0.776-  26 1.09   2 1.38  10 1.42
   7  0.386  0.665  0.776-  27 1.09   3 1.38  11 1.42
   8  0.614  0.335  0.224-  28 1.09   4 1.38  12 1.42
   9  0.048  0.107  0.038-   5 1.42  13 1.42  10 1.43
  10  0.952  0.893  0.962-   6 1.42  14 1.42   9 1.43
  11  0.452  0.607  0.962-   7 1.42  15 1.42  12 1.43
  12  0.548  0.393  0.038-   8 1.42  16 1.42  11 1.43
  13  0.076  0.252  0.924-  29 1.09  17 1.38   9 1.42
  14  0.924  0.748  0.076-  30 1.09  18 1.38  10 1.42
  15  0.424  0.752  0.076-  31 1.09  19 1.38  11 1.42
  16  0.576  0.248  0.924-  32 1.09  20 1.38  12 1.42
  17  0.013  0.191  0.744-  33 1.09  13 1.38   2 1.42
  18  0.987  0.809  0.256-  34 1.09  14 1.38   1 1.42
  19  0.487  0.691  0.256-  35 1.09  15 1.38   4 1.42
  20  0.513  0.309  0.744-  36 1.09  16 1.38   3 1.42
  21  0.133  0.068  0.472-   1 1.09
  22  0.867  0.932  0.528-   2 1.09
  23  0.367  0.568  0.528-   3 1.09
  24  0.633  0.432  0.472-   4 1.09
  25  0.187  0.327  0.280-   5 1.09
  26  0.813  0.673  0.720-   6 1.09
  27  0.313  0.827  0.720-   7 1.09
  28  0.687  0.173  0.280-   8 1.09
  29  0.150  0.414  0.982-  13 1.09
  30  0.850  0.586  0.018-  14 1.09
  31  0.350  0.914  0.018-  15 1.09
  32  0.650  0.086  0.982-  16 1.09
  33  0.037  0.304  0.660-  17 1.09
  34  0.963  0.696  0.340-  18 1.09
  35  0.463  0.804  0.340-  19 1.09
  36  0.537  0.196  0.660-  20 1.09

  LATTYP: Found a simple monoclinic cell.
 ALAT       =     7.7770581401
 B/A-ratio  =     0.7634634965
 C/A-ratio  =     1.0395447551
 COS(beta)  =    -0.4080038934
  
  Lattice vectors:
  
 A1 = (   3.1730700000,   0.0000000000,   7.1003000000)
 A2 = (   0.0000000000,   5.9375000000,   0.0000000000)
 A3 = (  -8.0846000000,   0.0000000000,   0.0000000000)


Analysis of symmetry for initial positions (statically):
=====================================================================
 Subroutine PRICEL returns:
 Original cell was already a primitive cell.
 

 Routine SETGRP: Setting up the symmetry group for a 
 simple monoclinic supercell.


 Subroutine GETGRP returns: Found  2 space group operations
 (whereof  2 operations were pure point group operations)
 out of a pool of  4 trial point group operations.


The static configuration has the point symmetry S_2 .


Analysis of symmetry for dynamics (positions and initial velocities):
=====================================================================
 Subroutine PRICEL returns:
 Original cell was already a primitive cell.
 

 Routine SETGRP: Setting up the symmetry group for a 
 simple monoclinic supercell.


 Subroutine GETGRP returns: Found  2 space group operations
 (whereof  2 operations were pure point group operations)
 out of a pool of  4 trial point group operations.


The dynamic configuration has the point symmetry S_2 .


 Subroutine INISYM returns: Found  2 space group operations
 (whereof  2 operations are pure point group operations),
 and found     1 'primitive' translations


----------------------------------------------------------------------------------------

                                     Primitive cell                                     

  volume of cell :     340.8308

  direct lattice vectors                    reciprocal lattice vectors
     8.084600000  0.000000000  0.000000000     0.123691958 -0.000000000  0.085562126
     0.000000000  5.937500000  0.000000000     0.000000000  0.168421053 -0.000000000
    -4.911530000  0.000000000  7.100300000     0.000000000  0.000000000  0.140839119

  length of vectors
     8.084600000  5.937500000  8.633503752     0.150401389  0.168421053  0.140839119

  position of ions in fractional coordinates (direct lattice)
     0.083111707  0.019778553  0.330174928
     0.916888292  0.980221447  0.669825073
     0.416888330  0.519778547  0.669825135
     0.583111642  0.480221442  0.330174876
     0.113546720  0.164504236  0.223692052
     0.886453278  0.835495766  0.776307949
     0.386453272  0.664504257  0.776308017
     0.613546696  0.335495732  0.223691994
     0.048468265  0.106520047  0.037648541
     0.951531732  0.893479954  0.962351458
     0.451531867  0.606520154  0.962351590
     0.548468104  0.393479835  0.037648423
     0.076421354  0.252457208  0.924148731
     0.923578642  0.747542793  0.075851269
     0.423578685  0.752457233  0.075851432
     0.576421291  0.247542760  0.924148584
     0.012851940  0.190551064  0.744276633
     0.987148060  0.809448938  0.255723368
     0.487148011  0.690551018  0.255723481
     0.512851966  0.309448977  0.744276534
     0.133014410  0.068359548  0.472271754
     0.866985587  0.931640452  0.527728245
     0.366985691  0.568359571  0.527728438
     0.633014282  0.431640423  0.472271576
     0.186708413  0.326774721  0.280109552
     0.813291581  0.673225284  0.719890449
     0.313291596  0.826774754  0.719890468
     0.686708375  0.173225242  0.280109545
     0.149951342  0.414200324  0.981976432
     0.850048650  0.585799681  0.018023568
     0.350048689  0.914200245  0.018023603
     0.649951287  0.085799746  0.981976407
     0.037292396  0.303922850  0.659569857
     0.962707600  0.696077153  0.340430144
     0.462707468  0.803922902  0.340430225
     0.537292509  0.196077096  0.659569788

  ion indices of the primitive-cell ions
   primitive index   ion index
                 1           1
                 2           2
                 3           3
                 4           4
                 5           5
                 6           6
                 7           7
                 8           8
                 9           9
                10          10
                11          11
                12          12
                13          13
                14          14
                15          15
                16          16
                17          17
                18          18
                19          19
                20          20
                21          21
                22          22
                23          23
                24          24
                25          25
                26          26
                27          27
                28          28
                29          29
                30          30
                31          31
                32          32
                33          33
                34          34
                35          35
                36          36

----------------------------------------------------------------------------------------



 KPOINTS: auto                                    

Automatic generation of k-mesh.
 Grid dimensions read from file:
 generate k-points for:    4    5    4

 Generating k-lattice:

  Cartesian coordinates                     Fractional coordinates (reciprocal lattice)
     0.030922989 -0.000000000  0.021390531     0.250000000  0.000000000 -0.000000000
     0.000000000  0.033684211 -0.000000000     0.000000000  0.200000000  0.000000000
     0.000000000  0.000000000  0.035209780     0.000000000  0.000000000  0.250000000

  Length of vectors
     0.037600347  0.033684211  0.035209780

  Shift w.r.t. Gamma in fractional coordinates (k-lattice)
     0.000000000  0.000000000  0.000000000

 
 Subroutine IBZKPT returns following result:
 ===========================================
 
 Found     42 irreducible k-points:
 
 Following reciprocal coordinates:
            Coordinates               Weight
  0.000000  0.000000  0.000000      1.000000
  0.250000  0.000000  0.000000      2.000000
  0.500000  0.000000  0.000000      1.000000
  0.000000  0.200000  0.000000      2.000000
  0.250000  0.200000  0.000000      2.000000
 -0.250000  0.200000  0.000000      2.000000
  0.500000  0.200000  0.000000      2.000000
  0.000000  0.400000  0.000000      2.000000
  0.250000  0.400000  0.000000      2.000000
 -0.250000  0.400000  0.000000      2.000000
  0.500000  0.400000  0.000000      2.000000
  0.000000  0.000000  0.250000      2.000000
  0.250000  0.000000  0.250000      2.000000
  0.500000  0.000000  0.250000      2.000000
 -0.250000  0.000000  0.250000      2.000000
  0.000000  0.200000  0.250000      2.000000
  0.000000  0.200000 -0.250000      2.000000
  0.250000  0.200000  0.250000      2.000000
 -0.250000  0.200000 -0.250000      2.000000
  0.500000  0.200000  0.250000      2.000000
  0.500000  0.200000 -0.250000      2.000000
 -0.250000  0.200000  0.250000      2.000000
  0.250000  0.200000 -0.250000      2.000000
  0.000000  0.400000  0.250000      2.000000
  0.000000  0.400000 -0.250000      2.000000
  0.250000  0.400000  0.250000      2.000000
 -0.250000  0.400000 -0.250000      2.000000
  0.500000  0.400000  0.250000      2.000000
  0.500000  0.400000 -0.250000      2.000000
 -0.250000  0.400000  0.250000      2.000000
  0.250000  0.400000 -0.250000      2.000000
  0.000000  0.000000  0.500000      1.000000
  0.250000  0.000000  0.500000      2.000000
  0.500000  0.000000  0.500000      1.000000
  0.000000  0.200000  0.500000      2.000000
  0.250000  0.200000  0.500000      2.000000
 -0.250000  0.200000  0.500000      2.000000
  0.500000  0.200000  0.500000      2.000000
  0.000000  0.400000  0.500000      2.000000
  0.250000  0.400000  0.500000      2.000000
 -0.250000  0.400000  0.500000      2.000000
  0.500000  0.400000  0.500000      2.000000
 
 Following cartesian coordinates:
            Coordinates               Weight
  0.000000  0.000000  0.000000      1.000000
  0.030923  0.000000  0.021391      2.000000
  0.061846  0.000000  0.042781      1.000000
  0.000000  0.033684  0.000000      2.000000
  0.030923  0.033684  0.021391      2.000000
 -0.030923  0.033684 -0.021391      2.000000
  0.061846  0.033684  0.042781      2.000000
  0.000000  0.067368  0.000000      2.000000
  0.030923  0.067368  0.021391      2.000000
 -0.030923  0.067368 -0.021391      2.000000
  0.061846  0.067368  0.042781      2.000000
  0.000000  0.000000  0.035210      2.000000
  0.030923  0.000000  0.056600      2.000000
  0.061846  0.000000  0.077991      2.000000
 -0.030923  0.000000  0.013819      2.000000
  0.000000  0.033684  0.035210      2.000000
  0.000000  0.033684 -0.035210      2.000000
  0.030923  0.033684  0.056600      2.000000
 -0.030923  0.033684 -0.056600      2.000000
  0.061846  0.033684  0.077991      2.000000
  0.061846  0.033684  0.007571      2.000000
 -0.030923  0.033684  0.013819      2.000000
  0.030923  0.033684 -0.013819      2.000000
  0.000000  0.067368  0.035210      2.000000
  0.000000  0.067368 -0.035210      2.000000
  0.030923  0.067368  0.056600      2.000000
 -0.030923  0.067368 -0.056600      2.000000
  0.061846  0.067368  0.077991      2.000000
  0.061846  0.067368  0.007571      2.000000
 -0.030923  0.067368  0.013819      2.000000
  0.030923  0.067368 -0.013819      2.000000
  0.000000  0.000000  0.070420      1.000000
  0.030923  0.000000  0.091810      2.000000
  0.061846  0.000000  0.113201      1.000000
  0.000000  0.033684  0.070420      2.000000
  0.030923  0.033684  0.091810      2.000000
 -0.030923  0.033684  0.049029      2.000000
  0.061846  0.033684  0.113201      2.000000
  0.000000  0.067368  0.070420      2.000000
  0.030923  0.067368  0.091810      2.000000
 -0.030923  0.067368  0.049029      2.000000
  0.061846  0.067368  0.113201      2.000000
 


--------------------------------------------------------------------------------------------------------




 Dimension of arrays:
   k-points           NKPTS =     42   k-points in BZ     NKDIM =     42   number of bands    NBANDS=    128
   number of dos      NEDOS =    301   number of ions     NIONS =     36
   non local maximal  LDIM  =      4   non local SUM 2l+1 LMDIM =      8
   total plane-waves  NPLWV = 483840
   max r-space proj   IRMAX =      1   max aug-charges    IRDMAX=   9616
   dimension x,y,z NGX =    84 NGY =   64 NGZ =   90
   dimension x,y,z NGXF=   168 NGYF=  128 NGZF=  180
   support grid    NGXF=   168 NGYF=  128 NGZF=  180
   ions per type =              20  16
   NGX,Y,Z   is equivalent  to a cutoff of  17.27, 17.92, 17.33 a.u.
   NGXF,Y,Z  is equivalent  to a cutoff of  34.55, 35.84, 34.66 a.u.

 SYSTEM =  unknown system                          
 POSCAR =   C  H                                   

 Startparameter for this run:
   NWRITE =      2    write-flag & timer
   PREC   = accura    normal or accurate (medium, high low for compatibility)
   ISTART =      0    job   : 0-new  1-cont  2-samecut
   ICHARG =      2    charge: 1-file 2-atom 10-const
   ISPIN  =      1    spin polarized calculation?
   LNONCOLLINEAR =      F non collinear calculations
   LSORBIT =      F    spin-orbit coupling
   INIWAV =      1    electr: 0-lowe 1-rand  2-diag
   LASPH  =      F    aspherical Exc in radial PAW
 Electronic Relaxation 1
   ENCUT  = 1000.0 eV  73.50 Ry    8.57 a.u.  20.85 15.31 22.26*2*pi/ulx,y,z
   ENINI  = 1000.0     initial cutoff
   ENAUG  = 1000.0 eV  augmentation charge cutoff
   NELM   =     60;   NELMIN=  2; NELMDL= -5     # of ELM steps 
   EDIFF  = 0.1E-06   stopping-criterion for ELM
   LREAL  =      F    real-space projection
   NLSPLINE    = F    spline interpolate recip. space projectors
   LCOMPAT=      F    compatible to vasp.4.4
   GGA_COMPAT  = T    GGA compatible to vasp.4.4-vasp.4.6
   LMAXPAW     = -100 max onsite density
   LMAXMIX     =    2 max onsite mixed and CHGCAR
   VOSKOWN=      0    Vosko Wilk Nusair interpolation
   ROPT   =    0.00000   0.00000
 Ionic relaxation
   EDIFFG = 0.1E-05   stopping-criterion for IOM
   NSW    =      0    number of steps for IOM
   NBLOCK =      1;   KBLOCK =      1    inner block; outer block 
   IBRION =     -1    ionic relax: 0-MD 1-quasi-New 2-CG
   NFREE  =      0    steps in history (QN), initial steepest desc. (CG)
   ISIF   =      0    stress and relaxation
   IWAVPR =     10    prediction:  0-non 1-charg 2-wave 3-comb
   ISYM   =      2    0-nonsym 1-usesym 2-fastsym
   LCORR  =      T    Harris-Foulkes like correction to forces

   POTIM  = 0.5000    time-step for ionic-motion
   TEIN   =    0.0    initial temperature
   TEBEG  =    0.0;   TEEND  =   0.0 temperature during run
   SMASS  =  -3.00    Nose mass-parameter (am)
   estimated Nose-frequenzy (Omega)   =  0.10E-29 period in steps = 0.13E+47 mass=  -0.149E-26a.u.
   SCALEE = 1.0000    scale energy and forces
   NPACO  =    256;   APACO  = 10.0  distance and # of slots for P.C.
   PSTRESS=    0.0 pullay stress

  Mass of Ions in am
   POMASS =  12.01  1.00
  Ionic Valenz
   ZVAL   =   4.00  1.00
  Atomic Wigner-Seitz radii
   RWIGS  =  -1.00 -1.00
  virtual crystal weights 
   VCA    =   1.00  1.00
   NELECT =      96.0000    total number of electrons
   NUPDOWN=      -1.0000    fix difference up-down

 DOS related values:
   EMIN   =  10.00;   EMAX   =-10.00  energy-range for DOS
   EFERMI =   0.00;   METHOD = LEGACY      
   ISMEAR =     0;   SIGMA  =   0.01  broadening in eV -4-tet -1-fermi 0-gaus

 Electronic relaxation 2 (details)
   IALGO  =     58    algorithm
   LDIAG  =      T    sub-space diagonalisation (order eigenvalues)
   LSUBROT=      F    optimize rotation matrix (better conditioning)
   TURBO    =      0    0=normal 1=particle mesh
   IRESTART =      0    0=no restart 2=restart with 2 vectors
   NREBOOT  =      0    no. of reboots
   NMIN     =      0    reboot dimension
   EREF     =   0.00    reference energy to select bands
   IMIX   =      4    mixing-type and parameters
     AMIX     =   0.40;   BMIX     =  1.00
     AMIX_MAG =   1.60;   BMIX_MAG =  1.00
     AMIN     =   0.10
     WC   =   100.;   INIMIX=   1;  MIXPRE=   1;  MAXMIX= -45

 Intra band minimization:
   WEIMIN = 0.0000     energy-eigenvalue tresh-hold
   EBREAK =  0.20E-09  absolut break condition
   DEPER  =   0.30     relativ break condition  

   TIME   =   0.40     timestep for ELM

  volume/ion in A,a.u.               =       9.47        63.89
  Fermi-wavevector in a.u.,A,eV,Ry     =   1.073130  2.027921 15.668575  1.151608
  Thomas-Fermi vector in A             =   2.208920

 Write flags
   LWAVE        =      F    write WAVECAR
   LDOWNSAMPLE  =      F    k-point downsampling of WAVECAR
   LCHARG       =      T    write CHGCAR
   LVTOT        =      F    write LOCPOT, total local potential
   LVHAR        =      F    write LOCPOT, Hartree potential only
   LELF         =      F    write electronic localiz. function (ELF)
   LORBIT       =      0    0 simple, 1 ext, 2 COOP (PROOUT), +10 PAW based schemes


 Dipole corrections
   LMONO  =      F    monopole corrections only (constant potential shift)
   LDIPOL =      F    correct potential (dipole corrections)
   IDIPOL =      0    1-x, 2-y, 3-z, 4-all directions 
   EPSILON=  1.0000000 bulk dielectric constant

 Exchange correlation treatment:
   GGA     =    --    GGA type
   LEXCH   =     8    internal setting for exchange type
   LIBXC   =     F    Libxc                    
   VOSKOWN =     0    Vosko Wilk Nusair interpolation
   LHFCALC =     F    Hartree Fock is set to
   LHFONE  =     F    Hartree Fock one center treatment
   AEXX    =    0.0000 exact exchange contribution

 Linear response parameters
   LEPSILON=     F    determine dielectric tensor
   LRPA    =     F    only Hartree local field effects (RPA)
   LNABLA  =     F    use nabla operator in PAW spheres
   LVEL    =     F    velocity operator in full k-point grid
   CSHIFT  =0.1000    complex shift for real part using Kramers Kronig
   OMEGAMAX=  -1.0    maximum frequency
   DEG_THRESHOLD= 0.2000000E-02 threshold for treating states as degnerate
   RTIME   =   -0.100 relaxation time in fs
  (WPLASMAI=    0.000 imaginary part of plasma frequency in eV, 0.658/RTIME)
   DFIELD  = 0.0000000 0.0000000 0.0000000 field for delta impulse in time

  Optional k-point grid parameters
   LKPOINTS_OPT  =     F    use optional k-point grid
   KPOINTS_OPT_MODE=     1    mode for optional k-point grid

 Orbital magnetization related:
   ORBITALMAG=     F  switch on orbital magnetization
   LCHIMAG   =     F  perturbation theory with respect to B field
   DQ        =  0.001000  dq finite difference perturbation B field
   LLRAUG    =     F  two centre corrections for induced B field
   LBONE     =     F  B-component reconstruction in AE one-centre
   LVGVCALC  =     T  calculate vGv susceptibility
   LVGVAPPL  =     F  apply vGv susceptibility instead of pGv for G=0

 Random number generation:
   RANDOM_GENERATOR = DEFAULT
   PCG_SEED         = not used


--------------------------------------------------------------------------------------------------------


 Static calculation
 charge density and potential will be updated during run
 non-spin polarized calculation
 Conjugate gradient for all bands (Freysoldt, et al. PRB 79, 241103 (2009))
 preconditioned conjugated gradient                                        
 perform sub-space diagonalisation
    before iterative eigenvector-optimisation
 modified Broyden-mixing scheme, WC =      100.0
 initial mixing is a Kerker type mixing with AMIX =  0.4000 and BMIX =      1.0000
 Hartree-type preconditioning will be used
 using additional bands           80
 reciprocal scheme for non local part
 use partial core corrections
 no Harris-corrections to forces 
 use gradient corrections 
 use of overlap-Matrix (Vanderbilt PP)
 Gauss-broadening in eV      SIGMA  =   0.01


--------------------------------------------------------------------------------------------------------


  energy-cutoff  :     1000.00
  volume of cell :      340.83
      direct lattice vectors                 reciprocal lattice vectors
     8.084600000  0.000000000  0.000000000     0.123691958 -0.000000000  0.085562126
     0.000000000  5.937500000  0.000000000     0.000000000  0.168421053 -0.000000000
    -4.911530000  0.000000000  7.100300000     0.000000000  0.000000000  0.140839119

  length of vectors
     8.084600000  5.937500000  8.633503752     0.150401389  0.168421053  0.140839119



 k-points in units of 2pi/SCALE and weight: auto                                    
   0.00000000  0.00000000  0.00000000       0.013
   0.03092299  0.00000000  0.02139053       0.025
   0.06184598  0.00000000  0.04278106       0.013
   0.00000000  0.03368421  0.00000000       0.025
   0.03092299  0.03368421  0.02139053       0.025
  -0.03092299  0.03368421 -0.02139053       0.025
   0.06184598  0.03368421  0.04278106       0.025
   0.00000000  0.06736842  0.00000000       0.025
   0.03092299  0.06736842  0.02139053       0.025
  -0.03092299  0.06736842 -0.02139053       0.025
   0.06184598  0.06736842  0.04278106       0.025
   0.00000000  0.00000000  0.03520978       0.025
   0.03092299  0.00000000  0.05660031       0.025
   0.06184598  0.00000000  0.07799084       0.025
  -0.03092299  0.00000000  0.01381925       0.025
   0.00000000  0.03368421  0.03520978       0.025
   0.00000000  0.03368421 -0.03520978       0.025
   0.03092299  0.03368421  0.05660031       0.025
  -0.03092299  0.03368421 -0.05660031       0.025
   0.06184598  0.03368421  0.07799084       0.025
   0.06184598  0.03368421  0.00757128       0.025
  -0.03092299  0.03368421  0.01381925       0.025
   0.03092299  0.03368421 -0.01381925       0.025
   0.00000000  0.06736842  0.03520978       0.025
   0.00000000  0.06736842 -0.03520978       0.025
   0.03092299  0.06736842  0.05660031       0.025
  -0.03092299  0.06736842 -0.05660031       0.025
   0.06184598  0.06736842  0.07799084       0.025
   0.06184598  0.06736842  0.00757128       0.025
  -0.03092299  0.06736842  0.01381925       0.025
   0.03092299  0.06736842 -0.01381925       0.025
   0.00000000  0.00000000  0.07041956       0.013
   0.03092299  0.00000000  0.09181009       0.025
   0.06184598  0.00000000  0.11320062       0.013
   0.00000000  0.03368421  0.07041956       0.025
   0.03092299  0.03368421  0.09181009       0.025
  -0.03092299  0.03368421  0.04902903       0.025
   0.06184598  0.03368421  0.11320062       0.025
   0.00000000  0.06736842  0.07041956       0.025
   0.03092299  0.06736842  0.09181009       0.025
  -0.03092299  0.06736842  0.04902903       0.025
   0.06184598  0.06736842  0.11320062       0.025

 k-points in reciprocal lattice and weights: auto                                    
   0.00000000  0.00000000  0.00000000       0.013
   0.25000000  0.00000000  0.00000000       0.025
   0.50000000  0.00000000  0.00000000       0.013
   0.00000000  0.20000000  0.00000000       0.025
   0.25000000  0.20000000  0.00000000       0.025
  -0.25000000  0.20000000  0.00000000       0.025
   0.50000000  0.20000000  0.00000000       0.025
   0.00000000  0.40000000  0.00000000       0.025
   0.25000000  0.40000000  0.00000000       0.025
  -0.25000000  0.40000000  0.00000000       0.025
   0.50000000  0.40000000  0.00000000       0.025
   0.00000000  0.00000000  0.25000000       0.025
   0.25000000  0.00000000  0.25000000       0.025
   0.50000000  0.00000000  0.25000000       0.025
  -0.25000000  0.00000000  0.25000000       0.025
   0.00000000  0.20000000  0.25000000       0.025
   0.00000000  0.20000000 -0.25000000       0.025
   0.25000000  0.20000000  0.25000000       0.025
  -0.25000000  0.20000000 -0.25000000       0.025
   0.50000000  0.20000000  0.25000000       0.025
   0.50000000  0.20000000 -0.25000000       0.025
  -0.25000000  0.20000000  0.25000000       0.025
   0.25000000  0.20000000 -0.25000000       0.025
   0.00000000  0.40000000  0.25000000       0.025
   0.00000000  0.40000000 -0.25000000       0.025
   0.25000000  0.40000000  0.25000000       0.025
  -0.25000000  0.40000000 -0.25000000       0.025
   0.50000000  0.40000000  0.25000000       0.025
   0.50000000  0.40000000 -0.25000000       0.025
  -0.25000000  0.40000000  0.25000000       0.025
   0.25000000  0.40000000 -0.25000000       0.025
   0.00000000  0.00000000  0.50000000       0.013
   0.25000000  0.00000000  0.50000000       0.025
   0.50000000  0.00000000  0.50000000       0.013
   0.00000000  0.20000000  0.50000000       0.025
   0.25000000  0.20000000  0.50000000       0.025
  -0.25000000  0.20000000  0.50000000       0.025
   0.50000000  0.20000000  0.50000000       0.025
   0.00000000  0.40000000  0.50000000       0.025
   0.25000000  0.40000000  0.50000000       0.025
  -0.25000000  0.40000000  0.50000000       0.025
   0.50000000  0.40000000  0.50000000       0.025

 position of ions in fractional coordinates (direct lattice) 
   0.08311171  0.01977855  0.33017493
   0.91688829  0.98022145  0.66982507
   0.41688833  0.51977855  0.66982514
   0.58311164  0.48022144  0.33017488
   0.11354672  0.16450424  0.22369205
   0.88645328  0.83549577  0.77630795
   0.38645327  0.66450426  0.77630802
   0.61354670  0.33549573  0.22369199
   0.04846826  0.10652005  0.03764854
   0.95153173  0.89347995  0.96235146
   0.45153187  0.60652015  0.96235159
   0.54846810  0.39347984  0.03764842
   0.07642135  0.25245721  0.92414873
   0.92357864  0.74754279  0.07585127
   0.42357869  0.75245723  0.07585143
   0.57642129  0.24754276  0.92414858
   0.01285194  0.19055106  0.74427663
   0.98714806  0.80944894  0.25572337
   0.48714801  0.69055102  0.25572348
   0.51285197  0.30944898  0.74427653
   0.13301441  0.06835955  0.47227175
   0.86698559  0.93164045  0.52772825
   0.36698569  0.56835957  0.52772844
   0.63301428  0.43164042  0.47227158
   0.18670841  0.32677472  0.28010955
   0.81329158  0.67322528  0.71989045
   0.31329160  0.82677475  0.71989047
   0.68670837  0.17322524  0.28010955
   0.14995134  0.41420032  0.98197643
   0.85004865  0.58579968  0.01802357
   0.35004869  0.91420025  0.01802360
   0.64995129  0.08579975  0.98197641
   0.03729240  0.30392285  0.65956986
   0.96270760  0.69607715  0.34043014
   0.46270747  0.80392290  0.34043022
   0.53729251  0.19607710  0.65956979

 position of ions in cartesian coordinates  (Angst):
  -0.94973915  0.11743516  2.34434104
   4.12280915  5.82006484  4.75595897
   0.08050915  3.08618512  4.75595941
   3.09256057  2.85131481  2.34434067
  -0.18069041  0.97674390  1.58828068
   3.35376039  4.96075611  5.51201933
  -0.68853999  3.94549402  5.51201981
   3.86160968  1.99200591  1.58828026
   0.20693460  0.63246278  0.26731594
   2.96613539  5.30503723  6.83298406
  -1.07616418  3.60121341  6.83298500
   4.24923388  2.33628652  0.26731509
  -3.92114814  1.49896467  6.56173323
   7.09421811  4.43853534  0.53856676
   3.05191766  4.46771482  0.53856792
   0.12115207  1.46978513  6.56173219
  -3.55163422  1.13139694  5.28458738
   6.72470421  4.80610307  1.81571263
   2.68240326  4.10014667  1.81571343
   0.49066648  1.83735330  5.28458667
  -1.24420859  0.40588482  3.35327114
   4.41727857  5.53161518  3.74702886
   0.37497846  3.37463495  3.74703023
   2.79809125  2.56286501  3.35326987
   0.13369636  1.94022491  1.98886185
   3.03937358  3.99727512  5.11143815
  -1.00292639  4.90897510  5.11143829
   4.17599609  1.02852488  1.98886180
  -3.61071009  2.45931442  6.97232726
   6.78378002  3.47818560  0.12797274
   2.74148016  5.42806396  0.12797299
   0.43158959  0.50943599  6.97232709
  -2.93800303  1.80454192  4.68314386
   6.11107300  4.13295810  2.41715615
   2.06877153  4.77329223  2.41715672
   1.10429822  1.16420776  4.68314336



--------------------------------------------------------------------------------------------------------


 k-point   1 :   0.0000 0.0000 0.0000  plane waves:   24413
 k-point   2 :   0.2500 0.0000 0.0000  plane waves:   24467
 k-point   3 :   0.5000 0.0000 0.0000  plane waves:   24492
 k-point   4 :   0.0000 0.2000 0.0000  plane waves:   24461
 k-point   5 :   0.2500 0.2000 0.0000  plane waves:   24481
 k-point   6 :  -0.2500 0.2000 0.0000  plane waves:   24481
 k-point   7 :   0.5000 0.2000 0.0000  plane waves:   24492
 k-point   8 :   0.0000 0.4000 0.0000  plane waves:   24482
 k-point   9 :   0.2500 0.4000 0.0000  plane waves:   24481
 k-point  10 :  -0.2500 0.4000 0.0000  plane waves:   24481
 k-point  11 :   0.5000 0.4000 0.0000  plane waves:   24484
 k-point  12 :   0.0000 0.0000 0.2500  plane waves:   24482
 k-point  13 :   0.2500 0.0000 0.2500  plane waves:   24508
 k-point  14 :   0.5000 0.0000 0.2500  plane waves:   24501
 k-point  15 :  -0.2500 0.0000 0.2500  plane waves:   24468
 k-point  16 :   0.0000 0.2000 0.2500  plane waves:   24485
 k-point  17 :   0.0000 0.2000-0.2500  plane waves:   24485
 k-point  18 :   0.2500 0.2000 0.2500  plane waves:   24478
 k-point  19 :  -0.2500 0.2000-0.2500  plane waves:   24478
 k-point  20 :   0.5000 0.2000 0.2500  plane waves:   24483
 k-point  21 :   0.5000 0.2000-0.2500  plane waves:   24483
 k-point  22 :  -0.2500 0.2000 0.2500  plane waves:   24454
 k-point  23 :   0.2500 0.2000-0.2500  plane waves:   24454
 k-point  24 :   0.0000 0.4000 0.2500  plane waves:   24470
 k-point  25 :   0.0000 0.4000-0.2500  plane waves:   24470
 k-point  26 :   0.2500 0.4000 0.2500  plane waves:   24459
 k-point  27 :  -0.2500 0.4000-0.2500  plane waves:   24459
 k-point  28 :   0.5000 0.4000 0.2500  plane waves:   24454
 k-point  29 :   0.5000 0.4000-0.2500  plane waves:   24454
 k-point  30 :  -0.2500 0.4000 0.2500  plane waves:   24459
 k-point  31 :   0.2500 0.4000-0.2500  plane waves:   24459
 k-point  32 :   0.0000 0.0000 0.5000  plane waves:   24468
 k-point  33 :   0.2500 0.0000 0.5000  plane waves:   24498
 k-point  34 :   0.5000 0.0000 0.5000  plane waves:   24486
 k-point  35 :   0.0000 0.2000 0.5000  plane waves:   24494
 k-point  36 :   0.2500 0.2000 0.5000  plane waves:   24479
 k-point  37 :  -0.2500 0.2000 0.5000  plane waves:   24479
 k-point  38 :   0.5000 0.2000 0.5000  plane waves:   24478
 k-point  39 :   0.0000 0.4000 0.5000  plane waves:   24466
 k-point  40 :   0.2500 0.4000 0.5000  plane waves:   24464
 k-point  41 :  -0.2500 0.4000 0.5000  plane waves:   24464
 k-point  42 :   0.5000 0.4000 0.5000  plane waves:   24482

 maximum and minimum number of plane-waves per node :     12280    12180

 maximum number of plane-waves:     24508
 maximum index in each direction: 
   IXMAX=   21   IYMAX=   15   IZMAX=   22
   IXMIN=  -21   IYMIN=  -15   IZMIN=  -22


 parallel 3D FFT for wavefunctions:
    minimum data exchange during FFTs selected (reduces bandwidth)
 parallel 3D FFT for charge:
    minimum data exchange during FFTs selected (reduces bandwidth)


 total amount of memory used by VASP MPI-rank0   147221. kBytes
=======================================================================

   base      :      30000. kBytes
   nonl-proj :      73138. kBytes
   fftplans  :       7979. kBytes
   grid      :      11020. kBytes
   one-center:         55. kBytes
   wavefun   :      25029. kBytes

     INWAV:  cpu time      0.0016: real time      0.0020
 Broyden mixing: mesh for mixing (old mesh)
   NGX = 41   NGY = 31   NGZ = 45
  (NGX  =168   NGY  =128   NGZ  =180)
  gives a total of  57195 points

 initial charge density was supplied:
 charge density of overlapping atoms calculated
 number of electron      96.0000000 magnetization 
 keeping initial charge density in first step


--------------------------------------------------------------------------------------------------------


 Maximum index for augmentation-charges          458 (set IRDMAX)


--------------------------------------------------------------------------------------------------------


 First call to EWALD:  gamma=   0.254
 Maximum number of real-space cells 3x 3x 3
 Maximum number of reciprocal cells 3x 2x 3

    FEWALD:  cpu time      0.0025: real time      0.0026


--------------------------------------- Ionic step        1  -------------------------------------------




--------------------------------------- Iteration      1(   1)  ---------------------------------------


    POTLOK:  cpu time      0.0670: real time      0.0678
    SETDIJ:  cpu time      0.0082: real time      0.0082
    TRIAL :  cpu time     26.2397: real time     26.2544
    CORREC:  cpu time      0.0017: real time      0.0019
    --------------------------------------------
      LOOP:  cpu time     26.3363: real time     26.3519

 eigenvalue-minimisations  : 10752
 total energy-change (2. order) : 0.2515706E+03  (-0.8241035E+04)
 number of electron      96.0000000 magnetization 
 augmentation part       96.0000000 magnetization 

 Free energy of the ion-electron system (eV)
  ---------------------------------------------------
  alpha Z        PSCENC =        88.11361408
  Ewald energy   TEWEN  =     -1438.30069511
  -Hartree energ DENC   =     -1402.10230865
  -exchange      EXHF   =         0.00000000
  -V(xc)+E(xc)   XCENC  =       180.70770087
  PAW double counting   =      2299.53497916    -2194.47437864
  entropy T*S    EENTRO =        -0.00023124
  eigenvalues    EBANDS =      -424.77116748
  atomic energy  EATOM  =      3142.86307098
  ---------------------------------------------------
  free energy    TOTEN  =       251.57058397 eV

  energy without entropy =      251.57081521  energy(sigma->0) =      251.57069959


--------------------------------------------------------------------------------------------------------




--------------------------------------- Iteration      1(   2)  ---------------------------------------


    TRIAL :  cpu time     68.7318: real time     68.7800
    CORREC:  cpu time      0.0003: real time      0.0003
    --------------------------------------------
      LOOP:  cpu time     68.7493: real time     68.8109

 eigenvalue-minimisations  : 16128
 total energy-change (2. order) :-0.4963982E+03  (-0.4952648E+03)
 number of electron      96.0000000 magnetization 
 augmentation part       96.0000000 magnetization 

 Free energy of the ion-electron system (eV)
  ---------------------------------------------------
  alpha Z        PSCENC =        88.11361408
  Ewald energy   TEWEN  =     -1438.30069511
  -Hartree energ DENC   =     -1402.10230865
  -exchange      EXHF   =         0.00000000
  -V(xc)+E(xc)   XCENC  =       180.70770087
  PAW double counting   =      2299.53497916    -2194.47437864
  entropy T*S    EENTRO =        -0.00000000
  eigenvalues    EBANDS =      -921.16955060
  atomic energy  EATOM  =      3142.86307098
  ---------------------------------------------------
  free energy    TOTEN  =      -244.82756791 eV

  energy without entropy =     -244.82756791  energy(sigma->0) =     -244.82756791


--------------------------------------------------------------------------------------------------------




--------------------------------------- Iteration      1(   3)  ---------------------------------------


    TRIAL :  cpu time     44.9308: real time     44.9583
    CORREC:  cpu time      0.0003: real time      0.0003
    --------------------------------------------
      LOOP:  cpu time     44.9452: real time     44.9882

 eigenvalue-minimisations  : 12800
 total energy-change (2. order) :-0.1566948E+02  (-0.1566948E+02)
 number of electron      96.0000000 magnetization 
 augmentation part       96.0000000 magnetization 

 Free energy of the ion-electron system (eV)
  ---------------------------------------------------
  alpha Z        PSCENC =        88.11361408
  Ewald energy   TEWEN  =     -1438.30069511
  -Hartree energ DENC   =     -1402.10230865
  -exchange      EXHF   =         0.00000000
  -V(xc)+E(xc)   XCENC  =       180.70770087
  PAW double counting   =      2299.53497916    -2194.47437864
  entropy T*S    EENTRO =        -0.00000000
  eigenvalues    EBANDS =      -936.83902827
  atomic energy  EATOM  =      3142.86307098
  ---------------------------------------------------
  free energy    TOTEN  =      -260.49704558 eV

  energy without entropy =     -260.49704558  energy(sigma->0) =     -260.49704558


--------------------------------------------------------------------------------------------------------




--------------------------------------- Iteration      1(   4)  ---------------------------------------


    TRIAL :  cpu time    138.6667: real time    138.7390
    CORREC:  cpu time      0.0018: real time      0.0018
    --------------------------------------------
      LOOP:  cpu time    138.6978: real time    138.7704

 eigenvalue-minimisations  : 21248
 total energy-change (2. order) :-0.6313630E-01  (-0.6313630E-01)
 number of electron      96.0000000 magnetization 
 augmentation part       96.0000000 magnetization 

 Free energy of the ion-electron system (eV)
  ---------------------------------------------------
  alpha Z        PSCENC =        88.11361408
  Ewald energy   TEWEN  =     -1438.30069511
  -Hartree energ DENC   =     -1402.10230865
  -exchange      EXHF   =         0.00000000
  -V(xc)+E(xc)   XCENC  =       180.70770087
  PAW double counting   =      2299.53497916    -2194.47437864
  entropy T*S    EENTRO =        -0.00000000
  eigenvalues    EBANDS =      -936.90216457
  atomic energy  EATOM  =      3142.86307098
  ---------------------------------------------------
  free energy    TOTEN  =      -260.56018188 eV

  energy without entropy =     -260.56018188  energy(sigma->0) =     -260.56018188


--------------------------------------------------------------------------------------------------------




--------------------------------------- Iteration      1(   5)  ---------------------------------------


    TRIAL :  cpu time     31.3660: real time     31.3857
    CORREC:  cpu time      0.0017: real time      0.0017
    CHARGE:  cpu time      0.5003: real time      0.5018
    --------------------------------------------
      LOOP:  cpu time     31.8808: real time     31.9191

 eigenvalue-minimisations  : 11008
 total energy-change (2. order) :-0.2375176E-05  (-0.2375009E-05)
 number of electron      96.0000001 magnetization 
 augmentation part       -0.0607316 magnetization 

 Free energy of the ion-electron system (eV)
  ---------------------------------------------------
  alpha Z        PSCENC =        88.11361408
  Ewald energy   TEWEN  =     -1438.30069511
  -Hartree energ DENC   =     -1402.10230865
  -exchange      EXHF   =         0.00000000
  -V(xc)+E(xc)   XCENC  =       180.70770087
  PAW double counting   =      2299.53497916    -2194.47437864
  entropy T*S    EENTRO =        -0.00000000
  eigenvalues    EBANDS =      -936.90216694
  atomic energy  EATOM  =      3142.86307098
  ---------------------------------------------------
  free energy    TOTEN  =      -260.56018425 eV

  energy without entropy =     -260.56018425  energy(sigma->0) =     -260.56018425


--------------------------------------------------------------------------------------------------------




--------------------------------------- Iteration      1(   6)  ---------------------------------------


    POTLOK:  cpu time      0.0285: real time      0.0285
    SETDIJ:  cpu time      0.0023: real time      0.0023
    TRIAL :  cpu time      5.4217: real time      5.4255
    CORREC:  cpu time      2.1587: real time      2.1606
    CHARGE:  cpu time      0.4500: real time      0.4505
    --------------------------------------------
      LOOP:  cpu time      8.0758: real time      8.0963

 eigenvalue-minimisations  :     0
 total energy-change (2. order) : 0.3745390E+02  (-0.1356898E+02)
 number of electron      96.0000001 magnetization 
 augmentation part       -0.0954493 magnetization 

 Free energy of the ion-electron system (eV)
  ---------------------------------------------------
  alpha Z        PSCENC =        88.11361408
  Ewald energy   TEWEN  =     -1438.30069511
  -Hartree energ DENC   =     -1929.19656855
  -exchange      EXHF   =         0.00000000
  -V(xc)+E(xc)   XCENC  =       210.54908282
  PAW double counting   =     29818.78235559   -29717.35833949
  entropy T*S    EENTRO =        -0.00000000
  eigenvalues    EBANDS =      -398.55880100
  atomic energy  EATOM  =      3142.86307098
  ---------------------------------------------------
  free energy    TOTEN  =      -223.10628067 eV

  energy without entropy =     -223.10628067  energy(sigma->0) =     -223.10628067


--------------------------------------------------------------------------------------------------------




--------------------------------------- Iteration      1(   7)  ---------------------------------------


    POTLOK:  cpu time      0.0254: real time      0.0254
    SETDIJ:  cpu time      0.0023: real time      0.0023
    TRIAL :  cpu time      5.1855: real time      5.1892
    CORREC:  cpu time      2.1672: real time      2.1687
    CHARGE:  cpu time      0.4496: real time      0.4504
    --------------------------------------------
      LOOP:  cpu time      7.8599: real time      7.8660

 eigenvalue-minimisations  :     0
 total energy-change (2. order) :-0.1348556E+02  (-0.2380728E+01)
 number of electron      96.0000001 magnetization 
 augmentation part       -0.1230205 magnetization 

 Free energy of the ion-electron system (eV)
  ---------------------------------------------------
  alpha Z        PSCENC =        88.11361408
  Ewald energy   TEWEN  =     -1438.30069511
  -Hartree energ DENC   =     -1726.46202365
  -exchange      EXHF   =         0.00000000
  -V(xc)+E(xc)   XCENC  =       201.20014218
  PAW double counting   =     42485.67194471   -42382.51573744
  entropy T*S    EENTRO =        -0.00000000
  eigenvalues    EBANDS =      -607.16215810
  atomic energy  EATOM  =      3142.86307098
  ---------------------------------------------------
  free energy    TOTEN  =      -236.59184235 eV

  energy without entropy =     -236.59184235  energy(sigma->0) =     -236.59184235


--------------------------------------------------------------------------------------------------------




--------------------------------------- Iteration      1(   8)  ---------------------------------------


    POTLOK:  cpu time      0.0252: real time      0.0252
    SETDIJ:  cpu time      0.0023: real time      0.0023
    TRIAL :  cpu time      5.2021: real time      5.2062
    CORREC:  cpu time      2.1394: real time      2.1408
    CHARGE:  cpu time      0.4473: real time      0.4480
    --------------------------------------------
      LOOP:  cpu time      7.8301: real time      7.8531

 eigenvalue-minimisations  :     0
 total energy-change (2. order) :-0.2352723E+01  (-0.4001398E+00)
 number of electron      96.0000001 magnetization 
 augmentation part       -0.1186345 magnetization 

 Free energy of the ion-electron system (eV)
  ---------------------------------------------------
  alpha Z        PSCENC =        88.11361408
  Ewald energy   TEWEN  =     -1438.30069511
  -Hartree energ DENC   =     -1688.63754595
  -exchange      EXHF   =         0.00000000
  -V(xc)+E(xc)   XCENC  =       199.47005253
  PAW double counting   =     41495.84139526   -41392.51958544
  entropy T*S    EENTRO =        -0.00000000
  eigenvalues    EBANDS =      -645.77487133
  atomic energy  EATOM  =      3142.86307098
  ---------------------------------------------------
  free energy    TOTEN  =      -238.94456498 eV

  energy without entropy =     -238.94456498  energy(sigma->0) =     -238.94456498


--------------------------------------------------------------------------------------------------------




--------------------------------------- Iteration      1(   9)  ---------------------------------------


    POTLOK:  cpu time      0.0255: real time      0.0255
    SETDIJ:  cpu time      0.0023: real time      0.0023
    TRIAL :  cpu time      5.1830: real time      5.1863
    CORREC:  cpu time      2.1336: real time      2.1351
    CHARGE:  cpu time      0.4661: real time      0.4661
    --------------------------------------------
      LOOP:  cpu time      7.8248: real time      7.8466

 eigenvalue-minimisations  :     0
 total energy-change (2. order) :-0.4001724E+00  (-0.6196947E-01)
 number of electron      96.0000001 magnetization 
 augmentation part       -0.1182657 magnetization 

 Free energy of the ion-electron system (eV)
  ---------------------------------------------------
  alpha Z        PSCENC =        88.11361408
  Ewald energy   TEWEN  =     -1438.30069511
  -Hartree energ DENC   =     -1683.11618460
  -exchange      EXHF   =         0.00000000
  -V(xc)+E(xc)   XCENC  =       198.95773042
  PAW double counting   =     39060.99242770   -38957.72518031
  entropy T*S    EENTRO =        -0.00000000
  eigenvalues    EBANDS =      -651.12952055
  atomic energy  EATOM  =      3142.86307098
  ---------------------------------------------------
  free energy    TOTEN  =      -239.34473740 eV

  energy without entropy =     -239.34473740  energy(sigma->0) =     -239.34473740


--------------------------------------------------------------------------------------------------------




--------------------------------------- Iteration      1(  10)  ---------------------------------------


    POTLOK:  cpu time      0.0275: real time      0.0275
    SETDIJ:  cpu time      0.0023: real time      0.0023
    TRIAL :  cpu time      5.2069: real time      5.2111
    CORREC:  cpu time      2.1311: real time      2.1326
    CHARGE:  cpu time      0.4433: real time      0.4433
    --------------------------------------------
      LOOP:  cpu time      7.8265: real time      7.8502

 eigenvalue-minimisations  :     0
 total energy-change (2. order) :-0.6196108E-01  (-0.1117609E-01)
 number of electron      96.0000001 magnetization 
 augmentation part       -0.1192510 magnetization 

 Free energy of the ion-electron system (eV)
  ---------------------------------------------------
  alpha Z        PSCENC =        88.11361408
  Ewald energy   TEWEN  =     -1438.30069511
  -Hartree energ DENC   =     -1682.95842723
  -exchange      EXHF   =         0.00000000
  -V(xc)+E(xc)   XCENC  =       198.84959872
  PAW double counting   =     38358.56511312   -38255.33402536
  entropy T*S    EENTRO =        -0.00000000
  eigenvalues    EBANDS =      -651.20494767
  atomic energy  EATOM  =      3142.86307098
  ---------------------------------------------------
  free energy    TOTEN  =      -239.40669848 eV

  energy without entropy =     -239.40669848  energy(sigma->0) =     -239.40669848


--------------------------------------------------------------------------------------------------------




--------------------------------------- Iteration      1(  11)  ---------------------------------------


    POTLOK:  cpu time      0.0250: real time      0.0250
    SETDIJ:  cpu time      0.0023: real time      0.0023
    TRIAL :  cpu time      5.1827: real time      5.1884
    CORREC:  cpu time      2.1342: real time      2.1354
    CHARGE:  cpu time      0.4525: real time      0.4525
    --------------------------------------------
      LOOP:  cpu time      7.8130: real time      7.8335

 eigenvalue-minimisations  :     0
 total energy-change (2. order) :-0.1116274E-01  (-0.2047967E-02)
 number of electron      96.0000001 magnetization 
 augmentation part       -0.1193733 magnetization 

 Free energy of the ion-electron system (eV)
  ---------------------------------------------------
  alpha Z        PSCENC =        88.11361408
  Ewald energy   TEWEN  =     -1438.30069511
  -Hartree energ DENC   =     -1683.77397033
  -exchange      EXHF   =         0.00000000
  -V(xc)+E(xc)   XCENC  =       198.84900130
  PAW double counting   =     38455.50179909   -38352.27784851
  entropy T*S    EENTRO =        -0.00000000
  eigenvalues    EBANDS =      -650.39283271
  atomic energy  EATOM  =      3142.86307098
  ---------------------------------------------------
  free energy    TOTEN  =      -239.41786121 eV

  energy without entropy =     -239.41786121  energy(sigma->0) =     -239.41786121


--------------------------------------------------------------------------------------------------------




--------------------------------------- Iteration      1(  12)  ---------------------------------------


    POTLOK:  cpu time      0.0248: real time      0.0248
    SETDIJ:  cpu time      0.0023: real time      0.0023
    TRIAL :  cpu time      5.2281: real time      5.2311
    CORREC:  cpu time      2.1362: real time      2.1383
    CHARGE:  cpu time      0.4494: real time      0.4495
    --------------------------------------------
      LOOP:  cpu time      7.8563: real time      7.8762

 eigenvalue-minimisations  :     0
 total energy-change (2. order) :-0.2050821E-02  (-0.2882340E-03)
 number of electron      96.0000001 magnetization 
 augmentation part       -0.1193386 magnetization 

 Free energy of the ion-electron system (eV)
  ---------------------------------------------------
  alpha Z        PSCENC =        88.11361408
  Ewald energy   TEWEN  =     -1438.30069511
  -Hartree energ DENC   =     -1683.71814693
  -exchange      EXHF   =         0.00000000
  -V(xc)+E(xc)   XCENC  =       198.83484005
  PAW double counting   =     38578.14433583   -38474.91482667
  entropy T*S    EENTRO =        -0.00000000
  eigenvalues    EBANDS =      -650.44210425
  atomic energy  EATOM  =      3142.86307098
  ---------------------------------------------------
  free energy    TOTEN  =      -239.41991203 eV

  energy without entropy =     -239.41991203  energy(sigma->0) =     -239.41991203


--------------------------------------------------------------------------------------------------------




--------------------------------------- Iteration      1(  13)  ---------------------------------------


    POTLOK:  cpu time      0.0252: real time      0.0252
    SETDIJ:  cpu time      0.0023: real time      0.0023
    TRIAL :  cpu time      5.1825: real time      5.1861
    CORREC:  cpu time      2.1367: real time      2.1381
    CHARGE:  cpu time      0.4480: real time      0.4488
    --------------------------------------------
      LOOP:  cpu time      7.8083: real time      7.8307

 eigenvalue-minimisations  :     0
 total energy-change (2. order) :-0.2890331E-03  (-0.4018111E-04)
 number of electron      96.0000001 magnetization 
 augmentation part       -0.1193589 magnetization 

 Free energy of the ion-electron system (eV)
  ---------------------------------------------------
  alpha Z        PSCENC =        88.11361408
  Ewald energy   TEWEN  =     -1438.30069511
  -Hartree energ DENC   =     -1683.75489165
  -exchange      EXHF   =         0.00000000
  -V(xc)+E(xc)   XCENC  =       198.83509712
  PAW double counting   =     38575.20698319   -38471.97653813
  entropy T*S    EENTRO =        -0.00000000
  eigenvalues    EBANDS =      -650.40684154
  atomic energy  EATOM  =      3142.86307098
  ---------------------------------------------------
  free energy    TOTEN  =      -239.42020107 eV

  energy without entropy =     -239.42020107  energy(sigma->0) =     -239.42020107


--------------------------------------------------------------------------------------------------------




--------------------------------------- Iteration      1(  14)  ---------------------------------------


    POTLOK:  cpu time      0.0253: real time      0.0253
    SETDIJ:  cpu time      0.0023: real time      0.0023
    TRIAL :  cpu time      5.2286: real time      5.2330
    CORREC:  cpu time      2.1359: real time      2.1370
    CHARGE:  cpu time      0.4477: real time      0.4485
    --------------------------------------------
      LOOP:  cpu time      7.8551: real time      7.8777

 eigenvalue-minimisations  :     0
 total energy-change (2. order) :-0.4004184E-04  (-0.6250654E-05)
 number of electron      96.0000001 magnetization 
 augmentation part       -0.1193950 magnetization 

 Free energy of the ion-electron system (eV)
  ---------------------------------------------------
  alpha Z        PSCENC =        88.11361408
  Ewald energy   TEWEN  =     -1438.30069511
  -Hartree energ DENC   =     -1683.75709408
  -exchange      EXHF   =         0.00000000
  -V(xc)+E(xc)   XCENC  =       198.83501985
  PAW double counting   =     38567.12771664   -38463.89729879
  entropy T*S    EENTRO =        -0.00000000
  eigenvalues    EBANDS =      -650.40457467
  atomic energy  EATOM  =      3142.86307098
  ---------------------------------------------------
  free energy    TOTEN  =      -239.42024111 eV

  energy without entropy =     -239.42024111  energy(sigma->0) =     -239.42024111


--------------------------------------------------------------------------------------------------------




--------------------------------------- Iteration      1(  15)  ---------------------------------------


    POTLOK:  cpu time      0.0250: real time      0.0250
    SETDIJ:  cpu time      0.0023: real time      0.0023
    TRIAL :  cpu time      5.1894: real time      5.1923
    CORREC:  cpu time      2.1357: real time      2.1371
    CHARGE:  cpu time      0.4469: real time      0.4473
    --------------------------------------------
      LOOP:  cpu time      7.8298: real time      7.8348

 eigenvalue-minimisations  :     0
 total energy-change (2. order) :-0.6059643E-05  (-0.1296269E-05)
 number of electron      96.0000001 magnetization 
 augmentation part       -0.1194097 magnetization 

 Free energy of the ion-electron system (eV)
  ---------------------------------------------------
  alpha Z        PSCENC =        88.11361408
  Ewald energy   TEWEN  =     -1438.30069511
  -Hartree energ DENC   =     -1683.73466162
  -exchange      EXHF   =         0.00000000
  -V(xc)+E(xc)   XCENC  =       198.83421650
  PAW double counting   =     38570.23577959   -38467.00526224
  entropy T*S    EENTRO =        -0.00000000
  eigenvalues    EBANDS =      -650.42630934
  atomic energy  EATOM  =      3142.86307098
  ---------------------------------------------------
  free energy    TOTEN  =      -239.42024717 eV

  energy without entropy =     -239.42024717  energy(sigma->0) =     -239.42024717


--------------------------------------------------------------------------------------------------------




--------------------------------------- Iteration      1(  16)  ---------------------------------------


    POTLOK:  cpu time      0.0253: real time      0.0253
    SETDIJ:  cpu time      0.0023: real time      0.0023
    TRIAL :  cpu time      5.1670: real time      5.1708
    CORREC:  cpu time      2.1353: real time      2.1368
    CHARGE:  cpu time      0.4454: real time      0.4455
    --------------------------------------------
      LOOP:  cpu time      7.7893: real time      7.8106

 eigenvalue-minimisations  :     0
 total energy-change (2. order) :-0.1042776E-05  (-0.1717437E-06)
 number of electron      96.0000001 magnetization 
 augmentation part       -0.1194077 magnetization 

 Free energy of the ion-electron system (eV)
  ---------------------------------------------------
  alpha Z        PSCENC =        88.11361408
  Ewald energy   TEWEN  =     -1438.30069511
  -Hartree energ DENC   =     -1683.74052380
  -exchange      EXHF   =         0.00000000
  -V(xc)+E(xc)   XCENC  =       198.83455680
  PAW double counting   =     38571.61997085   -38468.38954254
  entropy T*S    EENTRO =        -0.00000000
  eigenvalues    EBANDS =      -650.42069946
  atomic energy  EATOM  =      3142.86307098
  ---------------------------------------------------
  free energy    TOTEN  =      -239.42024821 eV

  energy without entropy =     -239.42024821  energy(sigma->0) =     -239.42024821


--------------------------------------------------------------------------------------------------------




--------------------------------------- Iteration      1(  17)  ---------------------------------------


    POTLOK:  cpu time      0.0249: real time      0.0249
    SETDIJ:  cpu time      0.0023: real time      0.0023
    TRIAL :  cpu time      5.1784: real time      5.1822
    CORREC:  cpu time      2.1265: real time      2.1277
    CHARGE:  cpu time      0.4496: real time      0.4496
    --------------------------------------------
      LOOP:  cpu time      7.7995: real time      7.8158

 eigenvalue-minimisations  :     0
 total energy-change (2. order) :-0.1775188E-06  (-0.3888698E-07)
 number of electron      96.0000001 magnetization 
 augmentation part       -0.1194055 magnetization 

 Free energy of the ion-electron system (eV)
  ---------------------------------------------------
  alpha Z        PSCENC =        88.11361408
  Ewald energy   TEWEN  =     -1438.30069511
  -Hartree energ DENC   =     -1683.73780082
  -exchange      EXHF   =         0.00000000
  -V(xc)+E(xc)   XCENC  =       198.83445296
  PAW double counting   =     38570.96856302   -38467.73813610
  entropy T*S    EENTRO =        -0.00000000
  eigenvalues    EBANDS =      -650.42331741
  atomic energy  EATOM  =      3142.86307098
  ---------------------------------------------------
  free energy    TOTEN  =      -239.42024839 eV

  energy without entropy =     -239.42024839  energy(sigma->0) =     -239.42024839


--------------------------------------------------------------------------------------------------------




--------------------------------------- Iteration      1(  18)  ---------------------------------------


    POTLOK:  cpu time      0.0252: real time      0.0252
    SETDIJ:  cpu time      0.0024: real time      0.0024
    TRIAL :  cpu time      5.1865: real time      5.1905
    CORREC:  cpu time      2.1561: real time      2.1582
    EDDIAG:  cpu time      2.0976: real time      2.0995
    CHARGE:  cpu time      0.4492: real time      0.4492
    --------------------------------------------
      LOOP:  cpu time      9.9470: real time      9.9553

 eigenvalue-minimisations  :     0
 total energy-change (2. order) :-0.3277091E-07  (-0.1255717E-07)
 number of electron      96.0000001 magnetization 
 augmentation part       -0.1194042 magnetization 

 Free energy of the ion-electron system (eV)
  ---------------------------------------------------
  alpha Z        PSCENC =        88.11361408
  Ewald energy   TEWEN  =     -1438.30069511
  -Hartree energ DENC   =     -1683.73773495
  -exchange      EXHF   =         0.00000000
  -V(xc)+E(xc)   XCENC  =       198.83443219
  PAW double counting   =     38570.56540648   -38467.33497845
  entropy T*S    EENTRO =        -0.00000000
  eigenvalues    EBANDS =      -650.42336364
  atomic energy  EATOM  =      3142.86307098
  ---------------------------------------------------
  free energy    TOTEN  =      -239.42024842 eV

  energy without entropy =     -239.42024842  energy(sigma->0) =     -239.42024842


--------------------------------------------------------------------------------------------------------


  average scaling for gradient   1.1661


 average (electrostatic) potential at core
  the test charge radii are     0.5770  0.4325
  (the norm of the test charge is              1.0000)
       1 -80.7490       2 -80.7490       3 -80.7490       4 -80.7490       5 -80.7209
       6 -80.7209       7 -80.7209       8 -80.7209       9 -80.9473      10 -80.9473
      11 -80.9473      12 -80.9473      13 -80.6642      14 -80.6642      15 -80.6642
      16 -80.6642      17 -80.7239      18 -80.7239      19 -80.7239      20 -80.7239
      21 -39.6195      22 -39.6195      23 -39.6195      24 -39.6195      25 -39.5634
      26 -39.5634      27 -39.5634      28 -39.5634      29 -39.4253      30 -39.4253
      31 -39.4253      32 -39.4253      33 -39.5274      34 -39.5274      35 -39.5274
      36 -39.5274



 E-fermi :   0.1880     XC(G=0):  -8.1757     alpha+bet : -7.4633

 Fermi energy:         0.1880069738

 k-point     1 :       0.0000    0.0000    0.0000
  band No.  band energies     occupation 
      1     -16.4478      2.00000
      2     -16.2730      2.00000
      3     -15.0038      2.00000
      4     -14.9436      2.00000
      5     -13.6845      2.00000
      6     -13.6623      2.00000
      7     -12.9917      2.00000
      8     -12.9320      2.00000
      9     -12.2830      2.00000
     10     -12.2709      2.00000
     11      -9.9802      2.00000
     12      -9.9104      2.00000
     13      -9.6723      2.00000
     14      -9.6097      2.00000
     15      -9.4267      2.00000
     16      -9.2542      2.00000
     17      -7.3267      2.00000
     18      -7.1963      2.00000
     19      -7.1400      2.00000
     20      -6.9640      2.00000
     21      -6.8456      2.00000
     22      -6.7671      2.00000
     23      -5.5169      2.00000
     24      -5.4863      2.00000
     25      -5.3703      2.00000
     26      -5.3644      2.00000
     27      -4.6110      2.00000
     28      -4.5780      2.00000
     29      -4.5761      2.00000
     30      -4.5539      2.00000
     31      -4.4412      2.00000
     32      -4.3173      2.00000
     33      -4.0337      2.00000
     34      -3.8265      2.00000
     35      -3.4146      2.00000
     36      -3.2842      2.00000
     37      -3.1610      2.00000
     38      -2.8854      2.00000
     39      -2.7068      2.00000
     40      -2.5115      2.00000
     41      -2.3453      2.00000
     42      -2.2843      2.00000
     43      -1.9988      2.00000
     44      -1.4689      2.00000
     45      -0.8551      2.00000
     46      -0.8238      2.00000
     47      -0.1437      2.00000
     48      -0.1420      2.00000
     49       3.0900      0.00000
     50       3.4509      0.00000
     51       3.9102      0.00000
     52       4.1027      0.00000
     53       4.9828      0.00000
     54       5.2483      0.00000
     55       5.2641      0.00000
     56       6.0856      0.00000
     57       6.3021      0.00000
     58       6.9705      0.00000
     59       7.1010      0.00000
     60       7.2608      0.00000
     61       7.7998      0.00000
     62       7.8431      0.00000
     63       7.9943      0.00000
     64       8.0538      0.00000
     65       8.5046      0.00000
     66       8.6516      0.00000
     67       8.8093      0.00000
     68       8.9556      0.00000
     69       9.0409      0.00000
     70       9.4061      0.00000
     71       9.4418      0.00000
     72       9.6694      0.00000
     73       9.9441      0.00000
     74      10.2312      0.00000
     75      10.4180      0.00000
     76      10.7854      0.00000
     77      10.8338      0.00000
     78      11.0305      0.00000
     79      11.1135      0.00000
     80      11.1440      0.00000
     81      11.4099      0.00000
     82      11.6323      0.00000
     83      11.6779      0.00000
     84      11.7693      0.00000
     85      11.7750      0.00000
     86      11.8068      0.00000
     87      12.2068      0.00000
     88      12.3737      0.00000
     89      12.5398      0.00000
     90      12.5948      0.00000
     91      12.8418      0.00000
     92      13.0466      0.00000
     93      13.4362      0.00000
     94      13.5137      0.00000
     95      13.6112      0.00000
     96      13.6664      0.00000
     97      13.9481      0.00000
     98      14.3239      0.00000
     99      14.3452      0.00000
    100      14.5247      0.00000
    101      14.6603      0.00000
    102      14.6909      0.00000
    103      15.3537      0.00000
    104      15.4194      0.00000
    105      15.4605      0.00000
    106      15.5389      0.00000
    107      16.1760      0.00000
    108      16.2143      0.00000
    109      16.2691      0.00000
    110      16.3482      0.00000
    111      16.3799      0.00000
    112      16.4108      0.00000
    113      16.8432      0.00000
    114      16.9563      0.00000
    115      17.2716      0.00000
    116      17.3566      0.00000
    117      17.3739      0.00000
    118      17.5422      0.00000
    119      17.6949      0.00000
    120      17.8472      0.00000
    121      17.9108      0.00000
    122      18.1496      0.00000
    123      18.8842      0.00000
    124      19.1148      0.00000
    125      19.1678      0.00000
    126      19.1802      0.00000
    127      19.2163      0.00000
    128      19.9445      0.00000

 k-point     2 :       0.2500    0.0000    0.0000
  band No.  band energies     occupation 
      1     -16.4232      2.00000
      2     -16.2997      2.00000
      3     -14.9960      2.00000
      4     -14.9537      2.00000
      5     -13.6805      2.00000
      6     -13.6648      2.00000
      7     -12.9774      2.00000
      8     -12.9356      2.00000
      9     -12.2850      2.00000
     10     -12.2762      2.00000
     11      -9.9704      2.00000
     12      -9.9205      2.00000
     13      -9.6647      2.00000
     14      -9.6204      2.00000
     15      -9.4024      2.00000
     16      -9.2818      2.00000
     17      -7.3412      2.00000
     18      -7.2593      2.00000
     19      -7.0912      2.00000
     20      -6.9471      2.00000
     21      -6.8281      2.00000
     22      -6.7702      2.00000
     23      -5.5243      2.00000
     24      -5.4811      2.00000
     25      -5.3210      2.00000
     26      -5.2681      2.00000
     27      -4.7025      2.00000
     28      -4.6799      2.00000
     29      -4.5593      2.00000
     30      -4.5201      2.00000
     31      -4.4208      2.00000
     32      -4.2703      2.00000
     33      -4.0550      2.00000
     34      -3.9236      2.00000
     35      -3.4295      2.00000
     36      -3.3173      2.00000
     37      -3.0434      2.00000
     38      -2.7807      2.00000
     39      -2.6686      2.00000
     40      -2.5321      2.00000
     41      -2.3958      2.00000
     42      -2.3702      2.00000
     43      -1.9735      2.00000
     44      -1.5831      2.00000
     45      -0.8330      2.00000
     46      -0.8107      2.00000
     47      -0.1579      2.00000
     48      -0.1505      2.00000
     49       3.1548      0.00000
     50       3.4238      0.00000
     51       3.9394      0.00000
     52       4.0872      0.00000
     53       4.9875      0.00000
     54       5.2323      0.00000
     55       5.5404      0.00000
     56       6.2042      0.00000
     57       6.2324      0.00000
     58       6.8114      0.00000
     59       7.1317      0.00000
     60       7.2161      0.00000
     61       7.5538      0.00000
     62       7.8753      0.00000
     63       7.9429      0.00000
     64       8.2320      0.00000
     65       8.3358      0.00000
     66       8.5811      0.00000
     67       8.8972      0.00000
     68       8.9622      0.00000
     69       9.2112      0.00000
     70       9.3041      0.00000
     71       9.4202      0.00000
     72       9.5989      0.00000
     73       9.9838      0.00000
     74      10.4568      0.00000
     75      10.5230      0.00000
     76      10.6382      0.00000
     77      10.9322      0.00000
     78      10.9724      0.00000
     79      11.0500      0.00000
     80      11.1746      0.00000
     81      11.3439      0.00000
     82      11.6155      0.00000
     83      11.6568      0.00000
     84      11.6982      0.00000
     85      11.8959      0.00000
     86      12.0730      0.00000
     87      12.1180      0.00000
     88      12.4098      0.00000
     89      12.6308      0.00000
     90      12.6897      0.00000
     91      12.9853      0.00000
     92      13.0283      0.00000
     93      13.2256      0.00000
     94      13.4027      0.00000
     95      13.8047      0.00000
     96      13.9156      0.00000
     97      14.0553      0.00000
     98      14.1438      0.00000
     99      14.1549      0.00000
    100      14.5085      0.00000
    101      14.6107      0.00000
    102      14.7135      0.00000
    103      14.8154      0.00000
    104      15.4499      0.00000
    105      15.5223      0.00000
    106      15.5505      0.00000
    107      15.8162      0.00000
    108      15.9262      0.00000
    109      15.9797      0.00000
    110      16.2696      0.00000
    111      16.4718      0.00000
    112      16.7539      0.00000
    113      16.8480      0.00000
    114      17.0647      0.00000
    115      17.0836      0.00000
    116      17.2310      0.00000
    117      17.4805      0.00000
    118      17.7137      0.00000
    119      17.7605      0.00000
    120      17.8866      0.00000
    121      17.9105      0.00000
    122      18.2257      0.00000
    123      18.5724      0.00000
    124      18.8252      0.00000
    125      18.8291      0.00000
    126      19.0905      0.00000
    127      19.3635      0.00000
    128      19.5233      0.00000

 k-point     3 :       0.5000    0.0000    0.0000
  band No.  band energies     occupation 
      1     -16.3625      2.00000
      2     -16.3625      2.00000
      3     -14.9760      2.00000
      4     -14.9760      2.00000
      5     -13.6718      2.00000
      6     -13.6718      2.00000
      7     -12.9512      2.00000
      8     -12.9512      2.00000
      9     -12.2844      2.00000
     10     -12.2844      2.00000
     11      -9.9456      2.00000
     12      -9.9455      2.00000
     13      -9.6440      2.00000
     14      -9.6440      2.00000
     15      -9.3438      2.00000
     16      -9.3438      2.00000
     17      -7.3305      2.00000
     18      -7.3305      2.00000
     19      -7.0036      2.00000
     20      -7.0036      2.00000
     21      -6.7816      2.00000
     22      -6.7816      2.00000
     23      -5.4948      2.00000
     24      -5.4948      2.00000
     25      -5.2355      2.00000
     26      -5.2355      2.00000
     27      -4.7633      2.00000
     28      -4.7633      2.00000
[...]
     35      -3.5334      2.00000
     36      -3.4762      2.00000
     37      -3.0171      2.00000
     38      -2.8966      2.00000
     39      -2.6307      2.00000
     40      -2.6215      2.00000
     41      -2.2816      2.00000
     42      -2.1994      2.00000
     43      -1.6525      2.00000
     44      -1.5272      2.00000
     45      -0.8950      2.00000
     46      -0.8495      2.00000
     47      -0.0214      2.00000
     48       0.0211      2.00000
     49       3.1860      0.00000
     50       3.2551      0.00000
     51       4.0334      0.00000
     52       4.1403      0.00000
     53       4.6992      0.00000
     54       4.7394      0.00000
     55       6.1211      0.00000
     56       6.3400      0.00000
     57       6.5092      0.00000
     58       6.5582      0.00000
     59       6.7004      0.00000
     60       7.0110      0.00000
     61       7.1925      0.00000
     62       7.4994      0.00000
     63       8.0480      0.00000
     64       8.2077      0.00000
     65       8.4647      0.00000
     66       8.7428      0.00000
     67       8.8953      0.00000
     68       9.0044      0.00000
     69       9.2469      0.00000
     70       9.2694      0.00000
     71       9.6925      0.00000
     72       9.9591      0.00000
     73      10.1381      0.00000
     74      10.4018      0.00000
     75      10.5322      0.00000
     76      10.5392      0.00000
     77      10.7436      0.00000
     78      10.7678      0.00000
     79      11.1321      0.00000
     80      11.2957      0.00000
     81      11.3685      0.00000
     82      11.5981      0.00000
     83      11.7795      0.00000
     84      11.9111      0.00000
     85      12.0716      0.00000
     86      12.2357      0.00000
     87      12.4109      0.00000
     88      12.4335      0.00000
     89      12.6581      0.00000
     90      12.7251      0.00000
     91      12.8977      0.00000
     92      12.9639      0.00000
     93      13.0868      0.00000
     94      13.2037      0.00000
     95      13.3680      0.00000
     96      13.6868      0.00000
     97      13.9104      0.00000
     98      13.9670      0.00000
     99      14.2072      0.00000
    100      14.2876      0.00000
    101      14.3389      0.00000
    102      14.4314      0.00000
    103      15.0870      0.00000
    104      15.2636      0.00000
    105      15.5376      0.00000
    106      15.6320      0.00000
    107      15.8594      0.00000
    108      15.9315      0.00000
    109      16.0298      0.00000
    110      16.2488      0.00000
    111      16.5219      0.00000
    112      16.7506      0.00000
    113      16.9175      0.00000
    114      17.1690      0.00000
    115      17.2344      0.00000
    116      17.4608      0.00000
    117      17.7091      0.00000
    118      17.8678      0.00000
    119      18.2613      0.00000
    120      18.2706      0.00000
    121      18.4704      0.00000
    122      18.5867      0.00000
    123      18.7868      0.00000
    124      18.8552      0.00000
    125      19.1278      0.00000
    126      19.2140      0.00000
    127      19.2493      0.00000
    128      19.5670      0.00000

 k-point    42 :       0.5000    0.4000    0.5000
  band No.  band energies     occupation 
      1     -16.3283      2.00000
      2     -16.3283      2.00000
      3     -14.9894      2.00000
      4     -14.9894      2.00000
      5     -13.7644      2.00000
      6     -13.7644      2.00000
      7     -12.8835      2.00000
      8     -12.8835      2.00000
      9     -12.3418      2.00000
     10     -12.3418      2.00000
     11     -10.0848      2.00000
     12     -10.0848      2.00000
     13      -9.6131      2.00000
     14      -9.6131      2.00000
     15      -9.1406      2.00000
     16      -9.1406      2.00000
     17      -7.2115      2.00000
     18      -7.2115      2.00000
     19      -7.0755      2.00000
     20      -7.0755      2.00000
     21      -6.5431      2.00000
     22      -6.5431      2.00000
     23      -5.6107      2.00000
     24      -5.6107      2.00000
     25      -5.2918      2.00000
     26      -5.2918      2.00000
     27      -4.7785      2.00000
     28      -4.7785      2.00000
     29      -4.6722      2.00000
     30      -4.6722      2.00000
     31      -4.2905      2.00000
     32      -4.2905      2.00000
     33      -4.1127      2.00000
     34      -4.1127      2.00000
     35      -3.4818      2.00000
     36      -3.4818      2.00000
     37      -3.0768      2.00000
     38      -3.0768      2.00000
     39      -2.6387      2.00000
     40      -2.6387      2.00000
     41      -2.1667      2.00000
     42      -2.1667      2.00000
     43      -1.6013      2.00000
     44      -1.6013      2.00000
     45      -0.8885      2.00000
     46      -0.8885      2.00000
     47       0.0417      2.00000
     48       0.0417      2.00000
     49       3.1999      0.00000
     50       3.1999      0.00000
     51       4.1264      0.00000
     52       4.1264      0.00000
     53       4.6950      0.00000
     54       4.6950      0.00000
     55       6.2282      0.00000
     56       6.2282      0.00000
     57       6.4368      0.00000
     58       6.4368      0.00000
     59       6.9037      0.00000
     60       6.9037      0.00000
     61       7.4671      0.00000
     62       7.4671      0.00000
     63       8.1242      0.00000
     64       8.1242      0.00000
     65       8.7019      0.00000
     66       8.7019      0.00000
     67       9.0492      0.00000
     68       9.0492      0.00000
     69       9.3322      0.00000
     70       9.3322      0.00000
     71       9.6845      0.00000
     72       9.6845      0.00000
     73       9.9310      0.00000
     74       9.9310      0.00000
     75      10.4676      0.00000
     76      10.4676      0.00000
     77      10.8059      0.00000
     78      10.8059      0.00000
     79      11.2505      0.00000
     80      11.2505      0.00000
     81      11.4798      0.00000
     82      11.4798      0.00000
     83      12.0120      0.00000
     84      12.0120      0.00000
     85      12.1767      0.00000
     86      12.1767      0.00000
     87      12.3302      0.00000
     88      12.3302      0.00000
     89      12.5110      0.00000
     90      12.5110      0.00000
     91      12.7926      0.00000
     92      12.7926      0.00000
     93      13.0578      0.00000
     94      13.0578      0.00000
     95      13.5190      0.00000
     96      13.5190      0.00000
     97      13.9596      0.00000
     98      13.9596      0.00000
     99      14.2902      0.00000
    100      14.2902      0.00000
    101      14.6282      0.00000
    102      14.6282      0.00000
    103      15.0761      0.00000
    104      15.0761      0.00000
    105      15.4777      0.00000
    106      15.4777      0.00000
    107      15.9950      0.00000
    108      15.9950      0.00000
    109      16.2106      0.00000
    110      16.2106      0.00000
    111      16.8045      0.00000
    112      16.8045      0.00000
    113      17.2193      0.00000
    114      17.2194      0.00000
    115      17.5101      0.00000
    116      17.5102      0.00000
    117      17.8710      0.00000
    118      17.8714      0.00000
    119      18.0485      0.00000
    120      18.0488      0.00000
    121      18.3581      0.00000
    122      18.3588      0.00000
    123      18.8129      0.00000
    124      18.8136      0.00000
    125      19.0794      0.00000
    126      19.0807      0.00000
    127      19.4866      0.00000
    128      19.4922      0.00000


--------------------------------------------------------------------------------------------------------


 soft charge-density along one line, spin component           1
         0         1         2         3         4         5         6         7         8         9
 total charge-density along one line

 pseudopotential strength for first ion, spin component:           1
 12.519  21.062  -0.001   0.000  -0.000  -0.002   0.000  -0.001
 21.062  35.435  -0.002   0.000  -0.001  -0.003   0.000  -0.001
 -0.001  -0.002  -3.098   0.000   0.001  -5.548   0.000   0.001
  0.000   0.000   0.000  -3.098  -0.000   0.000  -5.548  -0.001
 -0.000  -0.001   0.001  -0.000  -3.099   0.001  -0.001  -5.549
 -0.002  -0.003  -5.548   0.000   0.001  -9.911   0.000   0.001
  0.000   0.000   0.000  -5.548  -0.001   0.000  -9.911  -0.001
 -0.001  -0.001   0.001  -0.001  -5.549   0.001  -0.001  -9.913
 total augmentation occupancy for first ion, spin component:           1
  7.659  -2.634   0.000  -0.706   0.303   0.008   0.319  -0.133
 -2.634   0.934   0.013   0.337  -0.139  -0.009  -0.148   0.059
  0.000   0.013   6.561   0.370   1.632  -2.177  -0.141  -0.644
 -0.706   0.337   0.370   6.190  -1.178  -0.141  -2.004   0.454
  0.303  -0.139   1.632  -1.178   4.410  -0.644   0.454  -1.328
  0.008  -0.009  -2.177  -0.141  -0.644   0.736   0.051   0.246
  0.319  -0.148  -0.141  -2.004   0.454   0.051   0.658  -0.169
 -0.133   0.059  -0.644   0.454  -1.328   0.246  -0.169   0.412


------------------------ aborting loop because EDIFF is reached ----------------------------------------


    FORLOC:  cpu time      0.0068: real time      0.0068
    FORNL :  cpu time      2.2414: real time      2.2426
    FORCOR:  cpu time      0.0232: real time      0.0232
    OFIELD:  cpu time      0.0025: real time      0.0027

 ---------------------------------------------------------------------------------------------

         DFTD3 V3.0 Rev 1        
 IVDW         = 11
 DF pbe       
 parameters
 VDW_S6       =    1.0000
 VDW_S8       =    0.7220
 VDW_SR       =    1.2170
 rs18     =    1.0000
 alpha6   =   14.0000
 alpha8   =   16.0000
 k1-k3    =   16.0000    1.3333   -4.0000
 VDW_RADIUS   =   50.2022 A
 VDW_CNRADIUS =   21.1671 A
 Edisp (eV)   -2.14328

 E6    (eV) :    -1.3721
 E8    (eV) :    -0.7712
 % E8        : 35.98
    FORVDW:  cpu time      0.5489: real time      0.5513

 VOLUME and BASIS-vectors are now :
 -----------------------------------------------------------------------------
  energy-cutoff  :     1000.00
  volume of cell :      340.83
      direct lattice vectors                 reciprocal lattice vectors
     8.084600000  0.000000000  0.000000000     0.123691958 -0.000000000  0.085562126
     0.000000000  5.937500000  0.000000000     0.000000000  0.168421053 -0.000000000
    -4.911530000  0.000000000  7.100300000     0.000000000  0.000000000  0.140839119

  length of vectors
     8.084600000  5.937500000  8.633503752     0.150401389  0.168421053  0.140839119


 FORCES acting on ions:
    Electron-Ion                     Ewald-Force                    Non-Local-Force
 -----------------------------------------------------------------------------------------------
   0.307E+02 -.222E+02 -.130E+03   -.303E+02 0.228E+02 0.130E+03   -.422E+00 -.675E+00 0.304E+00
   -.307E+02 0.222E+02 0.130E+03   0.303E+02 -.228E+02 -.130E+03   0.422E+00 0.675E+00 -.304E+00
   -.307E+02 -.222E+02 0.130E+03   0.303E+02 0.228E+02 -.130E+03   0.422E+00 -.675E+00 -.304E+00
   0.307E+02 0.222E+02 -.130E+03   -.303E+02 -.228E+02 0.130E+03   -.422E+00 0.675E+00 0.304E+00
   -.277E+02 -.923E+02 -.866E+02   0.274E+02 0.924E+02 0.874E+02   0.356E+00 -.527E-01 -.752E+00
   0.277E+02 0.923E+02 0.866E+02   -.274E+02 -.924E+02 -.874E+02   -.356E+00 0.527E-01 0.752E+00
   0.277E+02 -.923E+02 0.866E+02   -.274E+02 0.924E+02 -.874E+02   -.356E+00 -.527E-01 0.752E+00
   -.277E+02 0.923E+02 -.866E+02   0.274E+02 -.924E+02 0.874E+02   0.356E+00 0.527E-01 -.752E+00
   -.125E+02 -.381E+02 -.238E+02   0.127E+02 0.385E+02 0.239E+02   -.158E+00 -.467E+00 -.823E-01
   0.125E+02 0.381E+02 0.238E+02   -.127E+02 -.385E+02 -.239E+02   0.158E+00 0.467E+00 0.823E-01
   0.125E+02 -.381E+02 0.238E+02   -.127E+02 0.385E+02 -.239E+02   0.158E+00 -.467E+00 0.823E-01
   -.125E+02 0.381E+02 -.238E+02   0.127E+02 -.385E+02 0.239E+02   -.158E+00 0.467E+00 -.823E-01
   -.281E+02 -.954E+02 -.886E+01   0.288E+02 0.963E+02 0.845E+01   -.709E+00 -.891E+00 0.458E+00
   0.281E+02 0.954E+02 0.886E+01   -.288E+02 -.963E+02 -.845E+01   0.709E+00 0.891E+00 -.458E+00
   0.281E+02 -.954E+02 0.886E+01   -.288E+02 0.963E+02 -.845E+01   0.709E+00 -.891E+00 -.458E+00
   -.281E+02 0.954E+02 -.886E+01   0.288E+02 -.963E+02 0.845E+01   -.709E+00 0.891E+00 0.458E+00
   -.580E+02 -.647E+02 0.101E+03   0.580E+02 0.653E+02 -.998E+02   -.257E-01 -.628E+00 -.789E+00
   0.580E+02 0.647E+02 -.101E+03   -.580E+02 -.653E+02 0.998E+02   0.257E-01 0.628E+00 0.789E+00
   0.580E+02 -.647E+02 -.101E+03   -.580E+02 0.653E+02 0.998E+02   0.257E-01 -.628E+00 0.789E+00
   -.580E+02 0.647E+02 0.101E+03   0.580E+02 -.653E+02 -.998E+02   -.257E-01 0.628E+00 -.789E+00
   0.135E+02 -.139E+02 -.469E+02   -.151E+02 0.155E+02 0.522E+02   0.153E+01 -.157E+01 -.533E+01
   -.135E+02 0.139E+02 0.469E+02   0.151E+02 -.155E+02 -.522E+02   -.153E+01 0.157E+01 0.533E+01
   -.135E+02 -.139E+02 0.469E+02   0.151E+02 0.155E+02 -.522E+02   -.153E+01 -.157E+01 0.533E+01
   0.135E+02 0.139E+02 -.469E+02   -.151E+02 -.155E+02 0.522E+02   0.153E+01 0.157E+01 -.533E+01
   -.129E+02 -.442E+02 -.289E+02   0.146E+02 0.493E+02 0.310E+02   -.166E+01 -.511E+01 -.212E+01
   0.129E+02 0.442E+02 0.289E+02   -.146E+02 -.493E+02 -.310E+02   0.166E+01 0.511E+01 0.212E+01
   0.129E+02 -.442E+02 0.289E+02   -.146E+02 0.493E+02 -.310E+02   0.166E+01 -.511E+01 0.212E+01
   -.129E+02 0.442E+02 -.289E+02   0.146E+02 -.493E+02 0.310E+02   -.166E+01 0.511E+01 -.212E+01
   -.854E+01 -.419E+02 -.133E+02   0.102E+02 0.470E+02 0.154E+02   -.169E+01 -.514E+01 -.218E+01
   0.854E+01 0.419E+02 0.133E+02   -.102E+02 -.470E+02 -.154E+02   0.169E+01 0.514E+01 0.218E+01
   0.854E+01 -.419E+02 0.133E+02   -.102E+02 0.470E+02 -.154E+02   0.169E+01 -.514E+01 0.218E+01
   -.854E+01 0.419E+02 -.133E+02   0.102E+02 -.470E+02 0.154E+02   -.169E+01 0.514E+01 -.218E+01
   -.276E+02 -.327E+02 0.373E+02   0.308E+02 0.363E+02 -.404E+02   -.325E+01 -.358E+01 0.314E+01
   0.276E+02 0.327E+02 -.373E+02   -.308E+02 -.363E+02 0.404E+02   0.325E+01 0.358E+01 -.314E+01
   0.276E+02 -.327E+02 -.373E+02   -.308E+02 0.363E+02 0.404E+02   0.325E+01 -.358E+01 -.314E+01
   -.276E+02 0.327E+02 0.373E+02   0.308E+02 -.363E+02 -.404E+02   -.325E+01 0.358E+01 0.314E+01
 -----------------------------------------------------------------------------------------------
   0.966E-03 0.266E-03 0.101E-04   -.746E-13 -.284E-13 -.234E-12   0.000E+00 0.000E+00 0.000E+00


 POSITION                                       TOTAL-FORCE (eV/Angst)
 -----------------------------------------------------------------------------------
     -0.94974      0.11744      2.34434         0.000073     -0.020544     -0.026939
      4.12281      5.82006      4.75596        -0.000073      0.020544      0.026939
      0.08051      3.08619      4.75596        -0.000085     -0.020531      0.026953
      3.09256      2.85131      2.34434         0.000085      0.020531     -0.026953
     -0.18069      0.97674      1.58828        -0.010550     -0.022288     -0.008060
      3.35376      4.96076      5.51202         0.010550      0.022288      0.008060
     -0.68854      3.94549      5.51202         0.010562     -0.022291      0.008060
      3.86161      1.99201      1.58828        -0.010562      0.022291     -0.008060
      0.20693      0.63246      0.26732         0.004059      0.024208      0.010075
      2.96614      5.30504      6.83298        -0.004059     -0.024208     -0.010075
     -1.07616      3.60121      6.83298        -0.004074      0.024195     -0.010083
      4.24923      2.33629      0.26732         0.004074     -0.024195      0.010083
     -3.92115      1.49896      6.56173        -0.014289     -0.021390     -0.007920
      7.09422      4.43854      0.53857         0.014289      0.021390      0.007920
      3.05192      4.46771      0.53857         0.014305     -0.021403      0.007906
      0.12115      1.46979      6.56173        -0.014305      0.021403     -0.007906
     -3.55163      1.13140      5.28459        -0.015589     -0.018256     -0.013267
      6.72470      4.80610      1.81571         0.015589      0.018256      0.013267
      2.68240      4.10015      1.81571         0.015582     -0.018233      0.013260
      0.49067      1.83735      5.28459        -0.015582      0.018233     -0.013260
     -1.24421      0.40588      3.35327        -0.000082      0.006369      0.007211
      4.41728      5.53162      3.74703         0.000082     -0.006369     -0.007211
      0.37498      3.37463      3.74703         0.000088      0.006378     -0.007238
      2.79809      2.56287      3.35327        -0.000088     -0.006378      0.007238
      0.13370      1.94022      1.98886         0.000409      0.000547     -0.004594
      3.03937      3.99728      5.11144        -0.000409     -0.000547      0.004594
     -1.00293      4.90898      5.11144        -0.000409      0.000545      0.004595
      4.17600      1.02852      1.98886         0.000409     -0.000545     -0.004595
     -3.61071      2.45931      6.97233         0.002398      0.000254     -0.002859
      6.78378      3.47819      0.12797        -0.002398     -0.000254      0.002859
      2.74148      5.42806      0.12797        -0.002403      0.000266      0.002860
      0.43159      0.50944      6.97233         0.002403     -0.000266     -0.002860
     -2.93800      1.80454      4.68314        -0.011565     -0.011737      0.012525
      6.11107      4.13296      2.41716         0.011565      0.011737     -0.012525
      2.06877      4.77329      2.41716         0.011575     -0.011752     -0.012531
      1.10430      1.16421      4.68314        -0.011575      0.011752      0.012531
 -----------------------------------------------------------------------------------
    total drift:                                0.000966      0.000266      0.000010


--------------------------------------------------------------------------------------------------------



  FREE ENERGIE OF THE ION-ELECTRON SYSTEM (eV)
  ---------------------------------------------------
  free  energy   TOTEN  =      -241.56353059 eV

  energy  without entropy=     -241.56353059  energy(sigma->0) =     -241.56353059



--------------------------------------------------------------------------------------------------------


    POTLOK:  cpu time      0.0533: real time      0.0533


--------------------------------------------------------------------------------------------------------


 stress matrix after NEB project (eV)
     -2.57317      0.00000     -0.29777
      0.00000     -2.16893     -0.00000
     -0.29777     -0.00000     -1.90913
  FORCES: max atom, RMS     0.033882    0.022506
  FORCE total and by dimension    0.135034    0.026953
  Stress total and by dimension    3.891982    2.573166
     LOOP+:  cpu time    423.5322: real time    424.0082
    4ORBIT:  cpu time      0.0000: real time      0.0000

 total amount of memory used by VASP MPI-rank0   147221. kBytes
=======================================================================

   base      :      30000. kBytes
   nonl-proj :      73138. kBytes
   fftplans  :       7979. kBytes
   grid      :      11020. kBytes
   one-center:         55. kBytes
   wavefun   :      25029. kBytes

  
  
 General timing and accounting informations for this job:
 ========================================================
  
                  Total CPU time used (sec):      457.728
                            User time (sec):      455.226
                          System time (sec):        2.503
                         Elapsed time (sec):      462.307
  
                   Maximum memory used (kb):      430272.
                   Average memory used (kb):          N/A
  
                          Minor page faults:        79730
                          Major page faults:         1161
                 Voluntary context switches:         6129
