 vasp.6.4.1 05Apr23 (build Jun  6 2023 14:46:38) gamma-only                      
 executed on        HPECrayEX_GCC date 2024.08.21  04:42:12
 running  256 mpi-ranks, with    1 threads/rank, on    2 nodes
 distrk:  each k-point on  256 cores,    1 groups
 distr:  one band on NCORE=   2 cores,  128 groups


--------------------------------------------------------------------------------------------------------


 INCAR:
   ALGO = Conjugate
   NCORE = 2
   PREC = Accurate
   EDIFF = 1E-7
   ENCUT = 1000
   ISMEAR = 0
   SIGMA = 0.01
   ISIF = 0
   SYMPREC = 1E-7
   GGA = B5
   ALDAX = 1.0
   AGGAX = 1.0
   AGGAC = 1.0
   ALDAC = 0.0
   IVDW = 11
   VDW_S8 = 1.682
   VDW_SR = 1.094
   LWAVE = .FALSE.
   LCHARG = .FALSE.
   LWAVE = .FALSE.
   LCHARG = .FALSE.

 POTCAR:    PAW_PBE C_h 06Feb2004                 
 POTCAR:    PAW_PBE H_h 06Feb2004                 
 POTCAR:    PAW_PBE C_h 06Feb2004                 
   VRHFIN =C: s2p2                                                                                  
   LEXCH  = PE                                                                                      
   EATOM  =   147.1560 eV,   10.8157 Ry                                                             
                                                                                                    
   TITEL  = PAW_PBE C_h 06Feb2004                                                                   
   LULTRA =        F    use ultrasoft PP ?                                                          
   IUNSCR =        1    unscreen: 0-lin 1-nonlin 2-no                                               
   RPACOR =    0.800    partial core radius                                                         
   POMASS =   12.011; ZVAL   =    4.000    mass and valenz                                          
   RCORE  =    1.100    outmost cutoff radius                                                       
   RWIGS  =    1.630; RWIGS  =    0.863    wigner-seitz radius (au A)                               
   ENMAX  =  700.000; ENMIN  =  500.000 eV                                                          
   ICORE  =        2    local potential                                                             
   LCOR   =        T    correct aug charges                                                         
   LPAW   =        T    paw PP                                                                      
   EAUG   =  946.768                                                                                
   DEXC   =    0.000                                                                                
   RMAX   =    1.128    core radius for proj-oper                                                   
   RAUG   =    1.300    factor for augmentation sphere                                              
   RDEP   =    1.162    radius for radial grids                                                     
   RDEPT  =    1.088    core radius for aug-charge                                                  
                                                                                                    
   Atomic configuration                                                                             
    4 entries                                                                                       
     n  l   j            E        occ.                                                              
     1  0  0.50      -273.3789   2.0000                                                             
     2  0  0.50       -13.7508   2.0000                                                             
     2  1  0.50        -5.2854   2.0000                                                             
     3  2  1.50        -5.4423   0.0000                                                             
   Description                                                                                      
     l       E           TYP  RCUT    TYP  RCUT                                                     
     0    -13.7508458     23  1.100                                                                 
     0     -8.2022199     23  1.100                                                                 
     1     -5.2854383     23  1.100                                                                 
     1      1.1560700     23  1.100                                                                 
     2     -5.4423304      7  1.100                                                                 
  local pseudopotential read in
  partial core-charges read in
  partial kinetic energy density read in
  atomic valenz-charges read in
  non local Contribution for L=           0  read in
    real space projection operators read in
  non local Contribution for L=           0  read in
    real space projection operators read in
  non local Contribution for L=           1  read in
    real space projection operators read in
  non local Contribution for L=           1  read in
    real space projection operators read in
    PAW grid and wavefunctions read in

   number of l-projection  operators is LMAX  =           4
   number of lm-projection operators is LMMAX =           8

 POTCAR:    PAW_PBE H_h 06Feb2004                 
   VRHFIN =H: ultrasoft test                                                                        
   LEXCH  = PE                                                                                      
   EATOM  =    12.4884 eV,    0.9179 Ry                                                             
                                                                                                    
   TITEL  = PAW_PBE H_h 06Feb2004                                                                   
   LULTRA =        F    use ultrasoft PP ?                                                          
   IUNSCR =        0    unscreen: 0-lin 1-nonlin 2-no                                               
   RPACOR =    0.000    partial core radius                                                         
   POMASS =    1.000; ZVAL   =    1.000    mass and valenz                                          
   RCORE  =    0.800    outmost cutoff radius                                                       
   RWIGS  =    0.700; RWIGS  =    0.370    wigner-seitz radius (au A)                               
   ENMAX  =  700.000; ENMIN  =  350.000 eV                                                          
   RCLOC  =    0.701    cutoff for local pot                                                        
   LCOR   =        T    correct aug charges                                                         
   LPAW   =        T    paw PP                                                                      
   EAUG   = 1000.000                                                                                
   RMAX   =    0.819    core radius for proj-oper                                                   
   RAUG   =    1.000    factor for augmentation sphere                                              
   RDEP   =    0.817    radius for radial grids                                                     
   RDEPT  =    0.817    core radius for aug-charge                                                  
                                                                                                    
   Atomic configuration                                                                             
    2 entries                                                                                       
     n  l   j            E        occ.                                                              
     1  0  0.50        -6.4927   1.0000                                                             
     2  1  0.50        -3.4015   0.0000                                                             
   Description                                                                                      
     l       E           TYP  RCUT    TYP  RCUT                                                     
     0     -6.4927493     23  0.800                                                                 
     0      6.8029130     23  0.800                                                                 
     1     -6.8029130     23  0.800                                                                 
  local pseudopotential read in
  atomic valenz-charges read in
  non local Contribution for L=           0  read in
    real space projection operators read in
  non local Contribution for L=           0  read in
    real space projection operators read in
  non local Contribution for L=           1  read in
    real space projection operators read in
    PAW grid and wavefunctions read in

   number of l-projection  operators is LMAX  =           3
   number of lm-projection operators is LMMAX =           5

 -----------------------------------------------------------------------------
|                                                                             |
|               ----> ADVICE to this user running VASP <----                  |
|                                                                             |
|     You enforced a specific xc type in the INCAR file but a different       |
|     type was found in the POTCAR file.                                      |
|     I HOPE YOU KNOW WHAT YOU ARE DOING!                                     |
|                                                                             |
 -----------------------------------------------------------------------------

  PAW_PBE C_h 06Feb2004                 :
 energy of atom  1       EATOM= -147.1560
 kinetic energy error for atom=    0.0031 (will be added to EATOM!!)
  PAW_PBE H_h 06Feb2004                 :
 energy of atom  2       EATOM=  -12.4884
 kinetic energy error for atom=    0.0006 (will be added to EATOM!!)


 POSCAR:  C  H
  positions in cartesian coordinates
  No initial velocities read in
 exchange correlation table for  LEXCH =       12
   RHO(1)=    0.500       N(1)  =     2000
   RHO(2)=  100.500       N(2)  =     4000

 VTST: version 4.1, (05/19/21)

 CHAIN: initializing optimizer
 
 OPT: Using VASP Dynamics algorithm
 CHAIN: Read ICHAIN            0

 POSCAR:  C  H
  positions in cartesian coordinates
  No initial velocities read in



--------------------------------------------------------------------------------------------------------


 ion  position               nearest neighbor table
   1  0.519  0.439  0.499-   7 1.09   6 1.40   3 1.40
   2  0.481  0.561  0.501-   8 1.09   5 1.40   4 1.40
   3  0.545  0.480  0.540-   9 1.09   5 1.40   1 1.40
   4  0.455  0.520  0.460-  10 1.09   2 1.40   6 1.40
   5  0.527  0.541  0.541-  11 1.09   3 1.40   2 1.40
   6  0.473  0.459  0.459-  12 1.09   1 1.40   4 1.40
   7  0.534  0.392  0.498-   1 1.09
   8  0.466  0.608  0.502-   2 1.09
   9  0.581  0.465  0.571-   3 1.09
  10  0.419  0.535  0.429-   4 1.09
  11  0.547  0.573  0.572-   5 1.09
  12  0.453  0.427  0.428-   6 1.09

  LATTYP: Found a simple cubic cell.
 ALAT       =    22.0000000000
  
  Lattice vectors:
  
 A1 = (  22.0000000000,   0.0000000000,   0.0000000000)
 A2 = (   0.0000000000,  22.0000000000,   0.0000000000)
 A3 = (   0.0000000000,   0.0000000000,  22.0000000000)


Analysis of symmetry for initial positions (statically):
=====================================================================
 Subroutine PRICEL returns:
 Original cell was already a primitive cell.
 

 Routine SETGRP: Setting up the symmetry group for a 
 simple cubic supercell.


 Subroutine GETGRP returns: Found  1 space group operations
 (whereof  1 operations were pure point group operations)
 out of a pool of 48 trial point group operations.


The static configuration has the point symmetry C_1 .


Analysis of symmetry for dynamics (positions and initial velocities):
=====================================================================
 Subroutine PRICEL returns:
 Original cell was already a primitive cell.
 

 Routine SETGRP: Setting up the symmetry group for a 
 simple cubic supercell.


 Subroutine GETGRP returns: Found  1 space group operations
 (whereof  1 operations were pure point group operations)
 out of a pool of 48 trial point group operations.


The dynamic configuration has the point symmetry C_1 .


 Subroutine INISYM returns: Found  1 space group operations
 (whereof  1 operations are pure point group operations),
 and found     1 'primitive' translations


----------------------------------------------------------------------------------------

                                     Primitive cell                                     

  volume of cell :   10648.0000

  direct lattice vectors                    reciprocal lattice vectors
    22.000000000  0.000000000  0.000000000     0.045454545  0.000000000  0.000000000
     0.000000000 22.000000000  0.000000000     0.000000000  0.045454545  0.000000000
     0.000000000  0.000000000 22.000000000     0.000000000  0.000000000  0.045454545

  length of vectors
    22.000000000 22.000000000 22.000000000     0.045454545  0.045454545  0.045454545

  position of ions in fractional coordinates (direct lattice)
     0.518879545  0.439469318  0.499069773
     0.481121364  0.560532955  0.500930682
     0.545410455  0.480336591  0.539659318
     0.454590909  0.519664318  0.460341136
     0.526531818  0.540868409  0.540588864
     0.473470455  0.459130682  0.459409773
     0.533607273  0.392252500  0.498346136
     0.466393636  0.607747500  0.501654773
     0.580828182  0.464995682  0.570592955
     0.419171818  0.535005227  0.429407500
     0.547221364  0.572747045  0.572250227
     0.452778636  0.427252955  0.427749773

  ion indices of the primitive-cell ions
   primitive index   ion index
                 1           1
                 2           2
                 3           3
                 4           4
                 5           5
                 6           6
                 7           7
                 8           8
                 9           9
                10          10
                11          11
                12          12

----------------------------------------------------------------------------------------



 KPOINTS: auto                                    

Automatic generation of k-mesh.
 Grid dimensions read from file:
 generate k-points for:    1    1    1

 Generating k-lattice:

  Cartesian coordinates                     Fractional coordinates (reciprocal lattice)
     0.045454545  0.000000000  0.000000000     1.000000000  0.000000000  0.000000000
     0.000000000  0.045454545  0.000000000     0.000000000  1.000000000  0.000000000
     0.000000000  0.000000000  0.045454545     0.000000000  0.000000000  1.000000000

  Length of vectors
     0.045454545  0.045454545  0.045454545

  Shift w.r.t. Gamma in fractional coordinates (k-lattice)
     0.000000000  0.000000000  0.000000000

 
 Subroutine IBZKPT returns following result:
 ===========================================
 
 Found      1 irreducible k-points:
 
 Following reciprocal coordinates:
            Coordinates               Weight
  0.000000  0.000000  0.000000      1.000000
 
 Following cartesian coordinates:
            Coordinates               Weight
  0.000000  0.000000  0.000000      1.000000
 


--------------------------------------------------------------------------------------------------------




 Dimension of arrays:
   k-points           NKPTS =      1   k-points in BZ     NKDIM =      1   number of bands    NBANDS=    128
   number of dos      NEDOS =    301   number of ions     NIONS =     12
   non local maximal  LDIM  =      4   non local SUM 2l+1 LMDIM =      8
   total plane-waves  NPLWV = ******
   max r-space proj   IRMAX =      1   max aug-charges    IRDMAX=   8811
   dimension x,y,z NGX =   240 NGY =  240 NGZ =  240
   dimension x,y,z NGXF=   480 NGYF=  480 NGZF=  480
   support grid    NGXF=   480 NGYF=  480 NGZF=  480
   ions per type =               6   6
   NGX,Y,Z   is equivalent  to a cutoff of  18.14, 18.14, 18.14 a.u.
   NGXF,Y,Z  is equivalent  to a cutoff of  36.27, 36.27, 36.27 a.u.

 SYSTEM =  unknown system                          
 POSCAR =   C  H                                   

 Startparameter for this run:
   NWRITE =      2    write-flag & timer
   PREC   = accura    normal or accurate (medium, high low for compatibility)
   ISTART =      0    job   : 0-new  1-cont  2-samecut
   ICHARG =      2    charge: 1-file 2-atom 10-const
   ISPIN  =      1    spin polarized calculation?
   LNONCOLLINEAR =      F non collinear calculations
   LSORBIT =      F    spin-orbit coupling
   INIWAV =      1    electr: 0-lowe 1-rand  2-diag
   LASPH  =      F    aspherical Exc in radial PAW
 Electronic Relaxation 1
   ENCUT  = 1000.0 eV  73.50 Ry    8.57 a.u.  56.73 56.73 56.73*2*pi/ulx,y,z
   ENINI  = 1000.0     initial cutoff
   ENAUG  = 1000.0 eV  augmentation charge cutoff
   NELM   =     60;   NELMIN=  2; NELMDL= -5     # of ELM steps 
   EDIFF  = 0.1E-06   stopping-criterion for ELM
   LREAL  =      F    real-space projection
   NLSPLINE    = F    spline interpolate recip. space projectors
   LCOMPAT=      F    compatible to vasp.4.4
   GGA_COMPAT  = T    GGA compatible to vasp.4.4-vasp.4.6
   LMAXPAW     = -100 max onsite density
   LMAXMIX     =    2 max onsite mixed and CHGCAR
   VOSKOWN=      0    Vosko Wilk Nusair interpolation
   ROPT   =    0.00000   0.00000
 Ionic relaxation
   EDIFFG = 0.1E-05   stopping-criterion for IOM
   NSW    =      0    number of steps for IOM
   NBLOCK =      1;   KBLOCK =      1    inner block; outer block 
   IBRION =     -1    ionic relax: 0-MD 1-quasi-New 2-CG
   NFREE  =      0    steps in history (QN), initial steepest desc. (CG)
   ISIF   =      0    stress and relaxation
   IWAVPR =     10    prediction:  0-non 1-charg 2-wave 3-comb
   ISYM   =      2    0-nonsym 1-usesym 2-fastsym
   LCORR  =      T    Harris-Foulkes like correction to forces

   POTIM  = 0.5000    time-step for ionic-motion
   TEIN   =    0.0    initial temperature
   TEBEG  =    0.0;   TEEND  =   0.0 temperature during run
   SMASS  =  -3.00    Nose mass-parameter (am)
   estimated Nose-frequenzy (Omega)   =  0.10E-29 period in steps = 0.13E+47 mass=  -0.111E-25a.u.
   SCALEE = 1.0000    scale energy and forces
   NPACO  =    256;   APACO  = 10.0  distance and # of slots for P.C.
   PSTRESS=    0.0 pullay stress

  Mass of Ions in am
   POMASS =  12.01  1.00
  Ionic Valenz
   ZVAL   =   4.00  1.00
  Atomic Wigner-Seitz radii
   RWIGS  =  -1.00 -1.00
  virtual crystal weights 
   VCA    =   1.00  1.00
   NELECT =      30.0000    total number of electrons
   NUPDOWN=      -1.0000    fix difference up-down

 DOS related values:
   EMIN   =  10.00;   EMAX   =-10.00  energy-range for DOS
   EFERMI =   0.00;   METHOD = LEGACY      
   ISMEAR =     0;   SIGMA  =   0.01  broadening in eV -4-tet -1-fermi 0-gaus

 Electronic relaxation 2 (details)
   IALGO  =     58    algorithm
   LDIAG  =      T    sub-space diagonalisation (order eigenvalues)
   LSUBROT=      F    optimize rotation matrix (better conditioning)
   TURBO    =      0    0=normal 1=particle mesh
   IRESTART =      0    0=no restart 2=restart with 2 vectors
   NREBOOT  =      0    no. of reboots
   NMIN     =      0    reboot dimension
   EREF     =   0.00    reference energy to select bands
   IMIX   =      4    mixing-type and parameters
     AMIX     =   0.40;   BMIX     =  1.00
     AMIX_MAG =   1.60;   BMIX_MAG =  1.00
     AMIN     =   0.10
     WC   =   100.;   INIMIX=   1;  MIXPRE=   1;  MAXMIX= -45

 Intra band minimization:
   WEIMIN = 0.0000     energy-eigenvalue tresh-hold
   EBREAK =  0.20E-09  absolut break condition
   DEPER  =   0.30     relativ break condition  

   TIME   =   0.40     timestep for ELM

  volume/ion in A,a.u.               =     887.33      5988.02
  Fermi-wavevector in a.u.,A,eV,Ry     =   0.231220  0.436943  0.727406  0.053463
  Thomas-Fermi vector in A             =   1.025338

 Write flags
   LWAVE        =      F    write WAVECAR
   LDOWNSAMPLE  =      F    k-point downsampling of WAVECAR
   LCHARG       =      F    write CHGCAR
   LVTOT        =      F    write LOCPOT, total local potential
   LVHAR        =      F    write LOCPOT, Hartree potential only
   LELF         =      F    write electronic localiz. function (ELF)
   LORBIT       =      0    0 simple, 1 ext, 2 COOP (PROOUT), +10 PAW based schemes


 Dipole corrections
   LMONO  =      F    monopole corrections only (constant potential shift)
   LDIPOL =      F    correct potential (dipole corrections)
   IDIPOL =      0    1-x, 2-y, 3-z, 4-all directions 
   EPSILON=  1.0000000 bulk dielectric constant

 Exchange correlation treatment:
   GGA     =    B5    GGA type
   LEXCH   =    12    internal setting for exchange type
   LIBXC   =     F    Libxc                    
   VOSKOWN =     0    Vosko Wilk Nusair interpolation
   LHFCALC =     F    Hartree Fock is set to
   LHFONE  =     F    Hartree Fock one center treatment
   AEXX    =    0.0000 exact exchange contribution

 Linear response parameters
   LEPSILON=     F    determine dielectric tensor
   LRPA    =     F    only Hartree local field effects (RPA)
   LNABLA  =     F    use nabla operator in PAW spheres
   LVEL    =     F    velocity operator in full k-point grid
   CSHIFT  =0.1000    complex shift for real part using Kramers Kronig
   OMEGAMAX=  -1.0    maximum frequency
   DEG_THRESHOLD= 0.2000000E-02 threshold for treating states as degnerate
   RTIME   =   -0.100 relaxation time in fs
  (WPLASMAI=    0.000 imaginary part of plasma frequency in eV, 0.658/RTIME)
   DFIELD  = 0.0000000 0.0000000 0.0000000 field for delta impulse in time

  Optional k-point grid parameters
   LKPOINTS_OPT  =     F    use optional k-point grid
   KPOINTS_OPT_MODE=     1    mode for optional k-point grid

 Orbital magnetization related:
   ORBITALMAG=     F  switch on orbital magnetization
   LCHIMAG   =     F  perturbation theory with respect to B field
   DQ        =  0.001000  dq finite difference perturbation B field
   LLRAUG    =     F  two centre corrections for induced B field
   LBONE     =     F  B-component reconstruction in AE one-centre
   LVGVCALC  =     T  calculate vGv susceptibility
   LVGVAPPL  =     F  apply vGv susceptibility instead of pGv for G=0

 Random number generation:
   RANDOM_GENERATOR = DEFAULT
   PCG_SEED         = not used


--------------------------------------------------------------------------------------------------------


 Static calculation
 charge density and potential will be updated during run
 non-spin polarized calculation
 Conjugate gradient for all bands (Freysoldt, et al. PRB 79, 241103 (2009))
 preconditioned conjugated gradient                                        
 perform sub-space diagonalisation
    before iterative eigenvector-optimisation
 modified Broyden-mixing scheme, WC =      100.0
 initial mixing is a Kerker type mixing with AMIX =  0.4000 and BMIX =      1.0000
 Hartree-type preconditioning will be used
 using additional bands          113
 reciprocal scheme for non local part
 use partial core corrections
 no Harris-corrections to forces 
 use gradient corrections 
 use of overlap-Matrix (Vanderbilt PP)
 Gauss-broadening in eV      SIGMA  =   0.01


--------------------------------------------------------------------------------------------------------


  energy-cutoff  :     1000.00
  volume of cell :    10648.00
      direct lattice vectors                 reciprocal lattice vectors
    22.000000000  0.000000000  0.000000000     0.045454545  0.000000000  0.000000000
     0.000000000 22.000000000  0.000000000     0.000000000  0.045454545  0.000000000
     0.000000000  0.000000000 22.000000000     0.000000000  0.000000000  0.045454545

  length of vectors
    22.000000000 22.000000000 22.000000000     0.045454545  0.045454545  0.045454545



 k-points in units of 2pi/SCALE and weight: auto                                    
   0.00000000  0.00000000  0.00000000       1.000

 k-points in reciprocal lattice and weights: auto                                    
   0.00000000  0.00000000  0.00000000       1.000

 position of ions in fractional coordinates (direct lattice) 
   0.51887955  0.43946932  0.49906977
   0.48112136  0.56053295  0.50093068
   0.54541045  0.48033659  0.53965932
   0.45459091  0.51966432  0.46034114
   0.52653182  0.54086841  0.54058886
   0.47347045  0.45913068  0.45940977
   0.53360727  0.39225250  0.49834614
   0.46639364  0.60774750  0.50165477
   0.58082818  0.46499568  0.57059295
   0.41917182  0.53500523  0.42940750
   0.54722136  0.57274705  0.57225023
   0.45277864  0.42725295  0.42774977

 position of ions in cartesian coordinates  (Angst):
  11.41535000  9.66832500 10.97953500
  10.58467000 12.33172500 11.02047500
  11.99903000 10.56740500 11.87250500
  10.00100000 11.43261500 10.12750500
  11.58370000 11.89910500 11.89295500
  10.41635000 10.10087500 10.10701500
  11.73936000  8.62955500 10.96361500
  10.26066000 13.37044500 11.03640500
  12.77822000 10.22990500 12.55304500
   9.22178000 11.77011500  9.44696500
  12.03887000 12.60043500 12.58950500
   9.96113000  9.39956500  9.41049500



--------------------------------------------------------------------------------------------------------


 use parallel FFT for orbitals z direction half grid
 k-point   1 :   0.0000 0.0000 0.0000  plane waves:  381993

 maximum and minimum number of plane-waves per node :    191003   190990

 maximum number of plane-waves:    381993
 maximum index in each direction: 
   IXMAX=   56   IYMAX=   56   IZMAX=   56
   IXMIN=  -56   IYMIN=  -56   IZMIN=    0


 parallel 3D FFT for wavefunctions:
    minimum data exchange during FFTs selected (reduces bandwidth)
 parallel 3D FFT for charge:
    minimum data exchange during FFTs selected (reduces bandwidth)


 total amount of memory used by VASP MPI-rank0   562254. kBytes
=======================================================================

   base      :      30000. kBytes
   nonl-proj :      61153. kBytes
   fftplans  :     159096. kBytes
   grid      :     302822. kBytes
   one-center:          9. kBytes
   wavefun   :       9174. kBytes

     INWAV:  cpu time      0.0001: real time      0.0001
 Broyden mixing: mesh for mixing (old mesh)
   NGX =113   NGY =113   NGZ =113
  (NGX  =480   NGY  =480   NGZ  =480)
  gives a total of ****** points

 initial charge density was supplied:
 charge density of overlapping atoms calculated
 number of electron      30.0000000 magnetization 
 keeping initial charge density in first step


--------------------------------------------------------------------------------------------------------


 Maximum index for augmentation-charges          464 (set IRDMAX)


--------------------------------------------------------------------------------------------------------


 First call to EWALD:  gamma=   0.081
 Maximum number of real-space cells 3x 3x 3
 Maximum number of reciprocal cells 3x 3x 3

    FEWALD:  cpu time      0.0042: real time      0.0042


--------------------------------------- Ionic step        1  -------------------------------------------




--------------------------------------- Iteration      1(   1)  ---------------------------------------


    POTLOK:  cpu time      1.1982: real time      1.1993
    SETDIJ:  cpu time      0.0118: real time      0.0123
    TRIAL :  cpu time      4.5613: real time      4.5681
    CORREC:  cpu time      0.0020: real time      0.0020
    --------------------------------------------
      LOOP:  cpu time      5.7822: real time      5.7911

 eigenvalue-minimisations  :   256
 total energy-change (2. order) : 0.3338435E+03  (-0.1094648E+04)
 number of electron      30.0000000 magnetization 
 augmentation part       30.0000000 magnetization 

 Free energy of the ion-electron system (eV)
  ---------------------------------------------------
  alpha Z        PSCENC =         0.27259789
  Ewald energy   TEWEN  =      1975.98163212
  -Hartree energ DENC   =     -2588.16533435
  -exchange      EXHF   =         0.00000000
  -V(xc)+E(xc)   XCENC  =        51.42542774
  PAW double counting   =       694.02286786     -662.36562892
  entropy T*S    EENTRO =        -0.00362062
  eigenvalues    EBANDS =       -96.25567496
  atomic energy  EATOM  =       958.93119535
  ---------------------------------------------------
  free energy    TOTEN  =       333.84346212 eV

  energy without entropy =      333.84708274  energy(sigma->0) =      333.84527243


--------------------------------------------------------------------------------------------------------




--------------------------------------- Iteration      1(   2)  ---------------------------------------


    TRIAL :  cpu time      8.3282: real time      8.3354
    CORREC:  cpu time      0.0002: real time      0.0002
    --------------------------------------------
      LOOP:  cpu time      8.3424: real time      8.3639

 eigenvalue-minimisations  :   512
 total energy-change (2. order) :-0.3867493E+03  (-0.3856746E+03)
 number of electron      30.0000000 magnetization 
 augmentation part       30.0000000 magnetization 

 Free energy of the ion-electron system (eV)
  ---------------------------------------------------
  alpha Z        PSCENC =         0.27259789
  Ewald energy   TEWEN  =      1975.98163212
  -Hartree energ DENC   =     -2588.16533435
  -exchange      EXHF   =         0.00000000
  -V(xc)+E(xc)   XCENC  =        51.42542774
  PAW double counting   =       694.02286786     -662.36562892
  entropy T*S    EENTRO =        -0.00000000
  eigenvalues    EBANDS =      -483.00861835
  atomic energy  EATOM  =       958.93119535
  ---------------------------------------------------
  free energy    TOTEN  =       -52.90586065 eV

  energy without entropy =      -52.90586065  energy(sigma->0) =      -52.90586065


--------------------------------------------------------------------------------------------------------




--------------------------------------- Iteration      1(   3)  ---------------------------------------


    TRIAL :  cpu time      6.2914: real time      6.2946
    CORREC:  cpu time      0.0001: real time      0.0001
    --------------------------------------------
      LOOP:  cpu time      6.3061: real time      6.3242

 eigenvalue-minimisations  :   384
 total energy-change (2. order) :-0.2885206E+02  (-0.2885206E+02)
 number of electron      30.0000000 magnetization 
 augmentation part       30.0000000 magnetization 

 Free energy of the ion-electron system (eV)
  ---------------------------------------------------
  alpha Z        PSCENC =         0.27259789
  Ewald energy   TEWEN  =      1975.98163212
  -Hartree energ DENC   =     -2588.16533435
  -exchange      EXHF   =         0.00000000
  -V(xc)+E(xc)   XCENC  =        51.42542774
  PAW double counting   =       694.02286786     -662.36562892
  entropy T*S    EENTRO =        -0.00000000
  eigenvalues    EBANDS =      -511.86068331
  atomic energy  EATOM  =       958.93119535
  ---------------------------------------------------
  free energy    TOTEN  =       -81.75792562 eV

  energy without entropy =      -81.75792562  energy(sigma->0) =      -81.75792562


--------------------------------------------------------------------------------------------------------




--------------------------------------- Iteration      1(   4)  ---------------------------------------


    TRIAL :  cpu time      4.5345: real time      4.5367
    CORREC:  cpu time      0.0035: real time      0.0035
    --------------------------------------------
      LOOP:  cpu time      4.5672: real time      4.5696

 eigenvalue-minimisations  :   256
 total energy-change (2. order) :-0.1168047E+00  (-0.1168047E+00)
 number of electron      30.0000000 magnetization 
 augmentation part       30.0000000 magnetization 

 Free energy of the ion-electron system (eV)
  ---------------------------------------------------
  alpha Z        PSCENC =         0.27259789
  Ewald energy   TEWEN  =      1975.98163212
  -Hartree energ DENC   =     -2588.16533435
  -exchange      EXHF   =         0.00000000
  -V(xc)+E(xc)   XCENC  =        51.42542774
  PAW double counting   =       694.02286786     -662.36562892
  entropy T*S    EENTRO =        -0.00000000
  eigenvalues    EBANDS =      -511.97748805
  atomic energy  EATOM  =       958.93119535
  ---------------------------------------------------
  free energy    TOTEN  =       -81.87473036 eV

  energy without entropy =      -81.87473036  energy(sigma->0) =      -81.87473036


--------------------------------------------------------------------------------------------------------




--------------------------------------- Iteration      1(   5)  ---------------------------------------


    TRIAL :  cpu time      8.2837: real time      8.2876
    CORREC:  cpu time      0.0001: real time      0.0001
    CHARGE:  cpu time      1.4289: real time      1.4331
    --------------------------------------------
      LOOP:  cpu time      9.7297: real time      9.7534

 eigenvalue-minimisations  :   512
 total energy-change (2. order) :-0.1354432E-02  (-0.1354399E-02)
 number of electron      30.0000000 magnetization 
 augmentation part       -0.0004105 magnetization 

 Free energy of the ion-electron system (eV)
  ---------------------------------------------------
  alpha Z        PSCENC =         0.27259789
  Ewald energy   TEWEN  =      1975.98163212
  -Hartree energ DENC   =     -2588.16533435
  -exchange      EXHF   =         0.00000000
  -V(xc)+E(xc)   XCENC  =        51.42542774
  PAW double counting   =       694.02286786     -662.36562892
  entropy T*S    EENTRO =        -0.00000000
  eigenvalues    EBANDS =      -511.97884249
  atomic energy  EATOM  =       958.93119535
  ---------------------------------------------------
  free energy    TOTEN  =       -81.87608479 eV

  energy without entropy =      -81.87608479  energy(sigma->0) =      -81.87608479


--------------------------------------------------------------------------------------------------------




--------------------------------------- Iteration      1(   6)  ---------------------------------------


    POTLOK:  cpu time      0.7872: real time      0.7882
    SETDIJ:  cpu time      0.0086: real time      0.0086
    TRIAL :  cpu time      2.6508: real time      2.6561
    CORREC:  cpu time      2.8552: real time      2.8570
    CHARGE:  cpu time      1.3954: real time      1.3958
    --------------------------------------------
      LOOP:  cpu time      7.7122: real time      7.7340

 eigenvalue-minimisations  :     0
 total energy-change (2. order) : 0.1651534E+02  (-0.6349004E+01)
 number of electron      30.0000000 magnetization 
 augmentation part       -0.0117583 magnetization 

 Free energy of the ion-electron system (eV)
  ---------------------------------------------------
  alpha Z        PSCENC =         0.27259789
  Ewald energy   TEWEN  =      1975.98163212
  -Hartree energ DENC   =     -2890.03395633
  -exchange      EXHF   =         0.00000000
  -V(xc)+E(xc)   XCENC  =        63.35467872
  PAW double counting   =      6271.32542162    -6241.19095354
  entropy T*S    EENTRO =        -0.00000000
  eigenvalues    EBANDS =      -204.00135672
  atomic energy  EATOM  =       958.93119535
  ---------------------------------------------------
  free energy    TOTEN  =       -65.36074090 eV

  energy without entropy =      -65.36074090  energy(sigma->0) =      -65.36074090


--------------------------------------------------------------------------------------------------------




--------------------------------------- Iteration      1(   7)  ---------------------------------------


    POTLOK:  cpu time      0.7833: real time      0.7836
    SETDIJ:  cpu time      0.0042: real time      0.0042
    TRIAL :  cpu time      2.5800: real time      2.5816
    CORREC:  cpu time      2.8481: real time      2.8490
    CHARGE:  cpu time      1.3942: real time      1.3952
    --------------------------------------------
      LOOP:  cpu time      7.6240: real time      7.6428

 eigenvalue-minimisations  :     0
 total energy-change (2. order) :-0.6365777E+01  (-0.8440739E+00)
 number of electron      30.0000000 magnetization 
 augmentation part       -0.0252557 magnetization 

 Free energy of the ion-electron system (eV)
  ---------------------------------------------------
  alpha Z        PSCENC =         0.27259789
  Ewald energy   TEWEN  =      1975.98163212
  -Hartree energ DENC   =     -2766.51373374
  -exchange      EXHF   =         0.00000000
  -V(xc)+E(xc)   XCENC  =        59.08506969
  PAW double counting   =      8484.99172915    -8454.11896175
  entropy T*S    EENTRO =        -0.00000000
  eigenvalues    EBANDS =      -330.35604685
  atomic energy  EATOM  =       958.93119535
  ---------------------------------------------------
  free energy    TOTEN  =       -71.72651815 eV

  energy without entropy =      -71.72651815  energy(sigma->0) =      -71.72651815


--------------------------------------------------------------------------------------------------------




--------------------------------------- Iteration      1(   8)  ---------------------------------------


    POTLOK:  cpu time      0.7855: real time      0.7860
    SETDIJ:  cpu time      0.0043: real time      0.0043
    TRIAL :  cpu time      2.5799: real time      2.5815
    CORREC:  cpu time      2.8633: real time      2.8647
    CHARGE:  cpu time      1.3977: real time      1.3981
    --------------------------------------------
      LOOP:  cpu time      7.6445: real time      7.6641

 eigenvalue-minimisations  :     0
 total energy-change (2. order) :-0.8496180E+00  (-0.4702848E+00)
 number of electron      30.0000000 magnetization 
 augmentation part       -0.0270171 magnetization 

 Free energy of the ion-electron system (eV)
  ---------------------------------------------------
  alpha Z        PSCENC =         0.27259789
  Ewald energy   TEWEN  =      1975.98163212
  -Hartree energ DENC   =     -2759.70940596
  -exchange      EXHF   =         0.00000000
  -V(xc)+E(xc)   XCENC  =        58.95298886
  PAW double counting   =      9307.41310052    -9276.44554651
  entropy T*S    EENTRO =        -0.00000000
  eigenvalues    EBANDS =      -337.97269839
  atomic energy  EATOM  =       958.93119535
  ---------------------------------------------------
  free energy    TOTEN  =       -72.57613613 eV

  energy without entropy =      -72.57613613  energy(sigma->0) =      -72.57613613


--------------------------------------------------------------------------------------------------------




--------------------------------------- Iteration      1(   9)  ---------------------------------------


    POTLOK:  cpu time      0.7994: real time      0.7999
    SETDIJ:  cpu time      0.0042: real time      0.0042
    TRIAL :  cpu time      2.5752: real time      2.5774
    CORREC:  cpu time      2.8546: real time      2.8559
    CHARGE:  cpu time      1.3995: real time      1.3998
    --------------------------------------------
      LOOP:  cpu time      7.6496: real time      7.6666

 eigenvalue-minimisations  :     0
 total energy-change (2. order) :-0.4408881E+00  (-0.1183422E+00)
 number of electron      30.0000000 magnetization 
 augmentation part       -0.0261219 magnetization 

 Free energy of the ion-electron system (eV)
  ---------------------------------------------------
  alpha Z        PSCENC =         0.27259789
  Ewald energy   TEWEN  =      1975.98163212
  -Hartree energ DENC   =     -2741.82909982
  -exchange      EXHF   =         0.00000000
  -V(xc)+E(xc)   XCENC  =        58.40625494
  PAW double counting   =      9580.55640899    -9549.50184943
  entropy T*S    EENTRO =        -0.00000000
  eigenvalues    EBANDS =      -355.83416431
  atomic energy  EATOM  =       958.93119535
  ---------------------------------------------------
  free energy    TOTEN  =       -73.01702427 eV

  energy without entropy =      -73.01702427  energy(sigma->0) =      -73.01702427


--------------------------------------------------------------------------------------------------------




--------------------------------------- Iteration      1(  10)  ---------------------------------------


    POTLOK:  cpu time      0.7960: real time      0.7963
    SETDIJ:  cpu time      0.0042: real time      0.0042
    TRIAL :  cpu time      2.5736: real time      2.5758
    CORREC:  cpu time      2.8731: real time      2.8741
    CHARGE:  cpu time      1.4156: real time      1.4165
    --------------------------------------------
      LOOP:  cpu time      7.6798: real time      7.6959

 eigenvalue-minimisations  :     0
 total energy-change (2. order) :-0.1178402E+00  (-0.3472665E-01)
 number of electron      30.0000000 magnetization 
 augmentation part       -0.0247131 magnetization 

 Free energy of the ion-electron system (eV)
  ---------------------------------------------------
  alpha Z        PSCENC =         0.27259789
  Ewald energy   TEWEN  =      1975.98163212
  -Hartree energ DENC   =     -2738.20471665
  -exchange      EXHF   =         0.00000000
  -V(xc)+E(xc)   XCENC  =        58.31789708
  PAW double counting   =      9280.32339282    -9249.28634772
  entropy T*S    EENTRO =        -0.00000000
  eigenvalues    EBANDS =      -359.47051530
  atomic energy  EATOM  =       958.93119535
  ---------------------------------------------------
  free energy    TOTEN  =       -73.13486442 eV

  energy without entropy =      -73.13486442  energy(sigma->0) =      -73.13486442


--------------------------------------------------------------------------------------------------------




--------------------------------------- Iteration      1(  11)  ---------------------------------------


    POTLOK:  cpu time      0.7969: real time      0.7973
    SETDIJ:  cpu time      0.0043: real time      0.0043
    TRIAL :  cpu time      2.5752: real time      2.5766
    CORREC:  cpu time      2.8600: real time      2.8613
    CHARGE:  cpu time      1.3998: real time      1.4003
    --------------------------------------------
      LOOP:  cpu time      7.6502: real time      7.6685

 eigenvalue-minimisations  :     0
 total energy-change (2. order) :-0.3492616E-01  (-0.1298598E-01)
 number of electron      30.0000000 magnetization 
 augmentation part       -0.0234214 magnetization 

 Free energy of the ion-electron system (eV)
  ---------------------------------------------------
  alpha Z        PSCENC =         0.27259789
  Ewald energy   TEWEN  =      1975.98163212
  -Hartree energ DENC   =     -2739.93726203
  -exchange      EXHF   =         0.00000000
  -V(xc)+E(xc)   XCENC  =        58.37486777
  PAW double counting   =      8974.89143193    -8943.89078520
  entropy T*S    EENTRO =        -0.00000000
  eigenvalues    EBANDS =      -357.79346841
  atomic energy  EATOM  =       958.93119535
  ---------------------------------------------------
  free energy    TOTEN  =       -73.16979058 eV

  energy without entropy =      -73.16979058  energy(sigma->0) =      -73.16979058


--------------------------------------------------------------------------------------------------------




--------------------------------------- Iteration      1(  12)  ---------------------------------------


    POTLOK:  cpu time      0.7982: real time      0.7983
    SETDIJ:  cpu time      0.0042: real time      0.0042
    TRIAL :  cpu time      2.5676: real time      2.5697
    CORREC:  cpu time      2.8571: real time      2.8583
    CHARGE:  cpu time      1.3924: real time      1.3927
    --------------------------------------------
      LOOP:  cpu time      7.6416: real time      7.6520

 eigenvalue-minimisations  :     0
 total energy-change (2. order) :-0.1307141E-01  (-0.5829122E-02)
 number of electron      30.0000000 magnetization 
 augmentation part       -0.0227949 magnetization 

 Free energy of the ion-electron system (eV)
  ---------------------------------------------------
  alpha Z        PSCENC =         0.27259789
  Ewald energy   TEWEN  =      1975.98163212
  -Hartree energ DENC   =     -2740.09370880
  -exchange      EXHF   =         0.00000000
  -V(xc)+E(xc)   XCENC  =        58.35750210
  PAW double counting   =      8830.17674081    -8799.19045337
  entropy T*S    EENTRO =        -0.00000000
  eigenvalues    EBANDS =      -357.61836809
  atomic energy  EATOM  =       958.93119535
  ---------------------------------------------------
  free energy    TOTEN  =       -73.18286200 eV

  energy without entropy =      -73.18286200  energy(sigma->0) =      -73.18286200


--------------------------------------------------------------------------------------------------------




--------------------------------------- Iteration      1(  13)  ---------------------------------------


    POTLOK:  cpu time      0.8361: real time      0.8365
    SETDIJ:  cpu time      0.0041: real time      0.0041
    TRIAL :  cpu time      2.5743: real time      2.5760
    CORREC:  cpu time      2.8573: real time      2.8581
    CHARGE:  cpu time      1.3877: real time      1.3885
    --------------------------------------------
      LOOP:  cpu time      7.6728: real time      7.6918

 eigenvalue-minimisations  :     0
 total energy-change (2. order) :-0.5851772E-02  (-0.2499706E-02)
 number of electron      30.0000000 magnetization 
 augmentation part       -0.0226377 magnetization 

 Free energy of the ion-electron system (eV)
  ---------------------------------------------------
  alpha Z        PSCENC =         0.27259789
  Ewald energy   TEWEN  =      1975.98163212
  -Hartree energ DENC   =     -2740.66824533
  -exchange      EXHF   =         0.00000000
  -V(xc)+E(xc)   XCENC  =        58.35895390
  PAW double counting   =      8816.20504258    -8785.22229809
  entropy T*S    EENTRO =        -0.00000000
  eigenvalues    EBANDS =      -357.04759219
  atomic energy  EATOM  =       958.93119535
  ---------------------------------------------------
  free energy    TOTEN  =       -73.18871377 eV

  energy without entropy =      -73.18871377  energy(sigma->0) =      -73.18871377


--------------------------------------------------------------------------------------------------------




--------------------------------------- Iteration      1(  14)  ---------------------------------------


    POTLOK:  cpu time      0.7870: real time      0.7874
    SETDIJ:  cpu time      0.0041: real time      0.0041
    TRIAL :  cpu time      2.5757: real time      2.5770
    CORREC:  cpu time      2.8284: real time      2.8297
    CHARGE:  cpu time      1.4042: real time      1.4046
    --------------------------------------------
      LOOP:  cpu time      7.6126: real time      7.6327

 eigenvalue-minimisations  :     0
 total energy-change (2. order) :-0.2499138E-02  (-0.8337303E-03)
 number of electron      30.0000000 magnetization 
 augmentation part       -0.0225928 magnetization 

 Free energy of the ion-electron system (eV)
  ---------------------------------------------------
  alpha Z        PSCENC =         0.27259789
  Ewald energy   TEWEN  =      1975.98163212
  -Hartree energ DENC   =     -2741.51009282
  -exchange      EXHF   =         0.00000000
  -V(xc)+E(xc)   XCENC  =        58.38349673
  PAW double counting   =      8855.76781629    -8824.78424712
  entropy T*S    EENTRO =        -0.00000000
  eigenvalues    EBANDS =      -356.23361134
  atomic energy  EATOM  =       958.93119535
  ---------------------------------------------------
  free energy    TOTEN  =       -73.19121291 eV

  energy without entropy =      -73.19121291  energy(sigma->0) =      -73.19121291


--------------------------------------------------------------------------------------------------------




--------------------------------------- Iteration      1(  15)  ---------------------------------------


    POTLOK:  cpu time      0.7807: real time      0.7807
    SETDIJ:  cpu time      0.0041: real time      0.0041
    TRIAL :  cpu time      2.5781: real time      2.5802
    CORREC:  cpu time      2.8337: real time      2.8348
    CHARGE:  cpu time      1.3869: real time      1.3872
    --------------------------------------------
      LOOP:  cpu time      7.6124: real time      7.6162

 eigenvalue-minimisations  :     0
 total energy-change (2. order) :-0.8343530E-03  (-0.2505399E-03)
 number of electron      30.0000000 magnetization 
 augmentation part       -0.0225563 magnetization 

 Free energy of the ion-electron system (eV)
  ---------------------------------------------------
  alpha Z        PSCENC =         0.27259789
  Ewald energy   TEWEN  =      1975.98163212
  -Hartree energ DENC   =     -2741.55172348
  -exchange      EXHF   =         0.00000000
  -V(xc)+E(xc)   XCENC  =        58.38777057
  PAW double counting   =      8885.45750990    -8854.47052891
  entropy T*S    EENTRO =        -0.00000000
  eigenvalues    EBANDS =      -356.20050069
  atomic energy  EATOM  =       958.93119535
  ---------------------------------------------------
  free energy    TOTEN  =       -73.19204726 eV

  energy without entropy =      -73.19204726  energy(sigma->0) =      -73.19204726


--------------------------------------------------------------------------------------------------------




--------------------------------------- Iteration      1(  16)  ---------------------------------------


    POTLOK:  cpu time      0.7826: real time      0.7830
    SETDIJ:  cpu time      0.0041: real time      0.0041
    TRIAL :  cpu time      2.5752: real time      2.5766
    CORREC:  cpu time      2.8405: real time      2.8416
    CHARGE:  cpu time      1.3957: real time      1.3964
    --------------------------------------------
      LOOP:  cpu time      7.6121: real time      7.6320

 eigenvalue-minimisations  :     0
 total energy-change (2. order) :-0.2553599E-03  (-0.9771795E-04)
 number of electron      30.0000000 magnetization 
 augmentation part       -0.0225573 magnetization 

 Free energy of the ion-electron system (eV)
  ---------------------------------------------------
  alpha Z        PSCENC =         0.27259789
  Ewald energy   TEWEN  =      1975.98163212
  -Hartree energ DENC   =     -2741.60002514
  -exchange      EXHF   =         0.00000000
  -V(xc)+E(xc)   XCENC  =        58.39201118
  PAW double counting   =      8893.05626737    -8862.06797816
  entropy T*S    EENTRO =        -0.00000000
  eigenvalues    EBANDS =      -356.15800323
  atomic energy  EATOM  =       958.93119535
  ---------------------------------------------------
  free energy    TOTEN  =       -73.19230262 eV

  energy without entropy =      -73.19230262  energy(sigma->0) =      -73.19230262


--------------------------------------------------------------------------------------------------------




--------------------------------------- Iteration      1(  17)  ---------------------------------------


    POTLOK:  cpu time      0.7797: real time      0.7802
    SETDIJ:  cpu time      0.0041: real time      0.0041
    TRIAL :  cpu time      2.5703: real time      2.5719
    CORREC:  cpu time      2.8646: real time      2.8661
    CHARGE:  cpu time      1.4014: real time      1.4019
    --------------------------------------------
      LOOP:  cpu time      7.6327: real time      7.6539

 eigenvalue-minimisations  :     0
 total energy-change (2. order) :-0.9711997E-04  (-0.3588650E-04)
 number of electron      30.0000000 magnetization 
 augmentation part       -0.0225932 magnetization 

 Free energy of the ion-electron system (eV)
  ---------------------------------------------------
  alpha Z        PSCENC =         0.27259789
  Ewald energy   TEWEN  =      1975.98163212
  -Hartree energ DENC   =     -2741.65093228
  -exchange      EXHF   =         0.00000000
  -V(xc)+E(xc)   XCENC  =        58.39581425
  PAW double counting   =      8892.39274496    -8861.40423045
  entropy T*S    EENTRO =        -0.00000000
  eigenvalues    EBANDS =      -356.11122157
  atomic energy  EATOM  =       958.93119535
  ---------------------------------------------------
  free energy    TOTEN  =       -73.19239974 eV

  energy without entropy =      -73.19239974  energy(sigma->0) =      -73.19239974


--------------------------------------------------------------------------------------------------------




--------------------------------------- Iteration      1(  18)  ---------------------------------------


    POTLOK:  cpu time      0.7738: real time      0.7742
    SETDIJ:  cpu time      0.0043: real time      0.0043
    TRIAL :  cpu time      2.5733: real time      2.5760
    CORREC:  cpu time      2.8257: real time      2.8271
    CHARGE:  cpu time      1.3974: real time      1.3978
    --------------------------------------------
      LOOP:  cpu time      7.5901: real time      7.6085

 eigenvalue-minimisations  :     0
 total energy-change (2. order) :-0.3628275E-04  (-0.1655013E-04)
 number of electron      30.0000000 magnetization 
 augmentation part       -0.0226322 magnetization 

 Free energy of the ion-electron system (eV)
  ---------------------------------------------------
  alpha Z        PSCENC =         0.27259789
  Ewald energy   TEWEN  =      1975.98163212
  -Hartree energ DENC   =     -2741.60065242
  -exchange      EXHF   =         0.00000000
  -V(xc)+E(xc)   XCENC  =        58.39480463
  PAW double counting   =      8891.34057091    -8860.35190067
  entropy T*S    EENTRO =        -0.00000000
  eigenvalues    EBANDS =      -356.16068382
  atomic energy  EATOM  =       958.93119535
  ---------------------------------------------------
  free energy    TOTEN  =       -73.19243602 eV

  energy without entropy =      -73.19243602  energy(sigma->0) =      -73.19243602


--------------------------------------------------------------------------------------------------------




--------------------------------------- Iteration      1(  19)  ---------------------------------------


    POTLOK:  cpu time      0.7726: real time      0.7730
    SETDIJ:  cpu time      0.0041: real time      0.0041
    TRIAL :  cpu time      2.5730: real time      2.5743
    CORREC:  cpu time      2.8489: real time      2.8502
    CHARGE:  cpu time      1.3940: real time      1.3949
    --------------------------------------------
      LOOP:  cpu time      7.6078: real time      7.6257

 eigenvalue-minimisations  :     0
 total energy-change (2. order) :-0.1754013E-04  (-0.7061545E-05)
 number of electron      30.0000000 magnetization 
 augmentation part       -0.0226557 magnetization 

 Free energy of the ion-electron system (eV)
  ---------------------------------------------------
  alpha Z        PSCENC =         0.27259789
  Ewald energy   TEWEN  =      1975.98163212
  -Hartree energ DENC   =     -2741.56398769
  -exchange      EXHF   =         0.00000000
  -V(xc)+E(xc)   XCENC  =        58.39340145
  PAW double counting   =      8891.51997061    -8860.53131762
  entropy T*S    EENTRO =        -0.00000000
  eigenvalues    EBANDS =      -356.19594567
  atomic energy  EATOM  =       958.93119535
  ---------------------------------------------------
  free energy    TOTEN  =       -73.19245356 eV

  energy without entropy =      -73.19245356  energy(sigma->0) =      -73.19245356


--------------------------------------------------------------------------------------------------------




--------------------------------------- Iteration      1(  20)  ---------------------------------------


    POTLOK:  cpu time      0.7725: real time      0.7726
    SETDIJ:  cpu time      0.0041: real time      0.0041
    TRIAL :  cpu time      2.5752: real time      2.5775
    CORREC:  cpu time      2.8272: real time      2.8287
    CHARGE:  cpu time      1.3951: real time      1.3954
    --------------------------------------------
      LOOP:  cpu time      7.5888: real time      7.6074

 eigenvalue-minimisations  :     0
 total energy-change (2. order) :-0.7151531E-05  (-0.3289633E-05)
 number of electron      30.0000000 magnetization 
 augmentation part       -0.0226671 magnetization 

 Free energy of the ion-electron system (eV)
  ---------------------------------------------------
  alpha Z        PSCENC =         0.27259789
  Ewald energy   TEWEN  =      1975.98163212
  -Hartree energ DENC   =     -2741.57046264
  -exchange      EXHF   =         0.00000000
  -V(xc)+E(xc)   XCENC  =        58.39333586
  PAW double counting   =      8892.11805375    -8861.12957049
  entropy T*S    EENTRO =        -0.00000000
  eigenvalues    EBANDS =      -356.18924256
  atomic energy  EATOM  =       958.93119535
  ---------------------------------------------------
  free energy    TOTEN  =       -73.19246072 eV

  energy without entropy =      -73.19246072  energy(sigma->0) =      -73.19246072


--------------------------------------------------------------------------------------------------------




--------------------------------------- Iteration      1(  21)  ---------------------------------------


    POTLOK:  cpu time      0.7765: real time      0.7769
    SETDIJ:  cpu time      0.0046: real time      0.0046
    TRIAL :  cpu time      2.5697: real time      2.5718
    CORREC:  cpu time      2.8381: real time      2.8390
    CHARGE:  cpu time      1.3817: real time      1.3825
    --------------------------------------------
      LOOP:  cpu time      7.5997: real time      7.6040

 eigenvalue-minimisations  :     0
 total energy-change (2. order) :-0.3073391E-05  (-0.1074849E-05)
 number of electron      30.0000000 magnetization 
 augmentation part       -0.0226704 magnetization 

 Free energy of the ion-electron system (eV)
  ---------------------------------------------------
  alpha Z        PSCENC =         0.27259789
  Ewald energy   TEWEN  =      1975.98163212
  -Hartree energ DENC   =     -2741.57257367
  -exchange      EXHF   =         0.00000000
  -V(xc)+E(xc)   XCENC  =        58.39323107
  PAW double counting   =      8892.47963817    -8861.49126545
  entropy T*S    EENTRO =        -0.00000000
  eigenvalues    EBANDS =      -356.18691926
  atomic energy  EATOM  =       958.93119535
  ---------------------------------------------------
  free energy    TOTEN  =       -73.19246379 eV

  energy without entropy =      -73.19246379  energy(sigma->0) =      -73.19246379


--------------------------------------------------------------------------------------------------------




--------------------------------------- Iteration      1(  22)  ---------------------------------------


    POTLOK:  cpu time      0.7721: real time      0.7726
    SETDIJ:  cpu time      0.0043: real time      0.0043
    TRIAL :  cpu time      2.5741: real time      2.5757
    CORREC:  cpu time      2.8377: real time      2.8390
    CHARGE:  cpu time      1.3960: real time      1.3964
    --------------------------------------------
      LOOP:  cpu time      7.5971: real time      7.6175

 eigenvalue-minimisations  :     0
 total energy-change (2. order) :-0.1310005E-05  (-0.5575543E-06)
 number of electron      30.0000000 magnetization 
 augmentation part       -0.0226701 magnetization 

 Free energy of the ion-electron system (eV)
  ---------------------------------------------------
  alpha Z        PSCENC =         0.27259789
  Ewald energy   TEWEN  =      1975.98163212
  -Hartree energ DENC   =     -2741.56844697
  -exchange      EXHF   =         0.00000000
  -V(xc)+E(xc)   XCENC  =        58.39305154
  PAW double counting   =      8892.50328642    -8861.51494232
  entropy T*S    EENTRO =        -0.00000000
  eigenvalues    EBANDS =      -356.19083912
  atomic energy  EATOM  =       958.93119535
  ---------------------------------------------------
  free energy    TOTEN  =       -73.19246510 eV

  energy without entropy =      -73.19246510  energy(sigma->0) =      -73.19246510


--------------------------------------------------------------------------------------------------------




--------------------------------------- Iteration      1(  23)  ---------------------------------------


    POTLOK:  cpu time      0.7718: real time      0.7723
    SETDIJ:  cpu time      0.0042: real time      0.0042
    TRIAL :  cpu time      2.5746: real time      2.5769
    CORREC:  cpu time      2.8296: real time      2.8310
    CHARGE:  cpu time      1.3936: real time      1.3940
    --------------------------------------------
      LOOP:  cpu time      7.5875: real time      7.6076

 eigenvalue-minimisations  :     0
 total energy-change (2. order) :-0.4800813E-06  (-0.3338855E-06)
 number of electron      30.0000000 magnetization 
 augmentation part       -0.0226688 magnetization 

 Free energy of the ion-electron system (eV)
  ---------------------------------------------------
  alpha Z        PSCENC =         0.27259789
  Ewald energy   TEWEN  =      1975.98163212
  -Hartree energ DENC   =     -2741.56579078
  -exchange      EXHF   =         0.00000000
  -V(xc)+E(xc)   XCENC  =        58.39296115
  PAW double counting   =      8892.37832724    -8861.38998549
  entropy T*S    EENTRO =        -0.00000000
  eigenvalues    EBANDS =      -356.19340305
  atomic energy  EATOM  =       958.93119535
  ---------------------------------------------------
  free energy    TOTEN  =       -73.19246558 eV

  energy without entropy =      -73.19246558  energy(sigma->0) =      -73.19246558


--------------------------------------------------------------------------------------------------------




--------------------------------------- Iteration      1(  24)  ---------------------------------------


    POTLOK:  cpu time      0.7775: real time      0.7783
    SETDIJ:  cpu time      0.0050: real time      0.0050
    TRIAL :  cpu time      2.5829: real time      2.5844
    CORREC:  cpu time      2.8420: real time      2.8434
    CHARGE:  cpu time      1.4017: real time      1.4024
    --------------------------------------------
      LOOP:  cpu time      7.6216: real time      7.6424

 eigenvalue-minimisations  :     0
 total energy-change (2. order) :-0.6791151E-06  (-0.1916686E-06)
 number of electron      30.0000000 magnetization 
 augmentation part       -0.0226671 magnetization 

 Free energy of the ion-electron system (eV)
  ---------------------------------------------------
  alpha Z        PSCENC =         0.27259789
  Ewald energy   TEWEN  =      1975.98163212
  -Hartree energ DENC   =     -2741.56510145
  -exchange      EXHF   =         0.00000000
  -V(xc)+E(xc)   XCENC  =        58.39290822
  PAW double counting   =      8892.22499411    -8861.23665152
  entropy T*S    EENTRO =        -0.00000000
  eigenvalues    EBANDS =      -356.19404097
  atomic energy  EATOM  =       958.93119535
  ---------------------------------------------------
  free energy    TOTEN  =       -73.19246626 eV

  energy without entropy =      -73.19246626  energy(sigma->0) =      -73.19246626


--------------------------------------------------------------------------------------------------------




--------------------------------------- Iteration      1(  25)  ---------------------------------------


    POTLOK:  cpu time      0.7735: real time      0.7735
    SETDIJ:  cpu time      0.0041: real time      0.0041
    TRIAL :  cpu time      2.5733: real time      2.5752
    CORREC:  cpu time      2.8341: real time      2.8355
    CHARGE:  cpu time      1.3881: real time      1.3885
    --------------------------------------------
      LOOP:  cpu time      7.5868: real time      7.6056

 eigenvalue-minimisations  :     0
 total energy-change (2. order) :-0.1392264E-06  (-0.1909899E-06)
 number of electron      30.0000000 magnetization 
 augmentation part       -0.0226644 magnetization 

 Free energy of the ion-electron system (eV)
  ---------------------------------------------------
  alpha Z        PSCENC =         0.27259789
  Ewald energy   TEWEN  =      1975.98163212
  -Hartree energ DENC   =     -2741.56626015
  -exchange      EXHF   =         0.00000000
  -V(xc)+E(xc)   XCENC  =        58.39295729
  PAW double counting   =      8892.08760579    -8861.09926147
  entropy T*S    EENTRO =        -0.00000000
  eigenvalues    EBANDS =      -356.19293321
  atomic energy  EATOM  =       958.93119535
  ---------------------------------------------------
  free energy    TOTEN  =       -73.19246640 eV

  energy without entropy =      -73.19246640  energy(sigma->0) =      -73.19246640


--------------------------------------------------------------------------------------------------------




--------------------------------------- Iteration      1(  26)  ---------------------------------------


    POTLOK:  cpu time      0.7722: real time      0.7729
    SETDIJ:  cpu time      0.0041: real time      0.0041
    TRIAL :  cpu time      2.5728: real time      2.5749
    CORREC:  cpu time      2.8533: real time      2.8545
    CHARGE:  cpu time      1.3995: real time      1.3999
    --------------------------------------------
      LOOP:  cpu time      7.6311: real time      7.6358

 eigenvalue-minimisations  :     0
 total energy-change (2. order) :-0.3048181E-06  (-0.4922589E-07)
 number of electron      30.0000000 magnetization 
 augmentation part       -0.0226634 magnetization 

 Free energy of the ion-electron system (eV)
  ---------------------------------------------------
  alpha Z        PSCENC =         0.27259789
  Ewald energy   TEWEN  =      1975.98163212
  -Hartree energ DENC   =     -2741.56889604
  -exchange      EXHF   =         0.00000000
  -V(xc)+E(xc)   XCENC  =        58.39302165
  PAW double counting   =      8891.90453515    -8860.91618586
  entropy T*S    EENTRO =        -0.00000000
  eigenvalues    EBANDS =      -356.19036696
  atomic energy  EATOM  =       958.93119535
  ---------------------------------------------------
  free energy    TOTEN  =       -73.19246670 eV

  energy without entropy =      -73.19246670  energy(sigma->0) =      -73.19246670


--------------------------------------------------------------------------------------------------------




--------------------------------------- Iteration      1(  27)  ---------------------------------------


    POTLOK:  cpu time      0.7711: real time      0.7718
    SETDIJ:  cpu time      0.0041: real time      0.0041
    TRIAL :  cpu time      2.5744: real time      2.5760
    CORREC:  cpu time      2.8416: real time      2.8430
    EDDIAG:  cpu time      1.0391: real time      1.0400
    CHARGE:  cpu time      1.3979: real time      1.3986
    --------------------------------------------
      LOOP:  cpu time      8.6536: real time      8.6628

 eigenvalue-minimisations  :     0
 total energy-change (2. order) :-0.9778159E-07  (-0.5050301E-07)
 number of electron      30.0000000 magnetization 
 augmentation part       -0.0226626 magnetization 

 Free energy of the ion-electron system (eV)
  ---------------------------------------------------
  alpha Z        PSCENC =         0.27259789
  Ewald energy   TEWEN  =      1975.98163212
  -Hartree energ DENC   =     -2741.56976182
  -exchange      EXHF   =         0.00000000
  -V(xc)+E(xc)   XCENC  =        58.39305109
  PAW double counting   =      8891.84175903    -8860.85340560
  entropy T*S    EENTRO =        -0.00000000
  eigenvalues    EBANDS =      -356.18953486
  atomic energy  EATOM  =       958.93119535
  ---------------------------------------------------
  free energy    TOTEN  =       -73.19246680 eV

  energy without entropy =      -73.19246680  energy(sigma->0) =      -73.19246680


--------------------------------------------------------------------------------------------------------


  average scaling for gradient   1.3603


 average (electrostatic) potential at core
  the test charge radii are     0.5770  0.4325
  (the norm of the test charge is              1.0000)
       1 -86.5263       2 -86.5262       3 -86.5262       4 -86.5263       5 -86.5263
       6 -86.5263       7 -45.7947       8 -45.7951       9 -45.7951      10 -45.7948
      11 -45.7948      12 -45.7950



 E-fermi :  -5.9556     XC(G=0):  -0.1483     alpha+bet : -0.0747

 Fermi energy:        -5.9556195622

 k-point     1 :       0.0000    0.0000    0.0000
  band No.  band energies     occupation 
      1     -20.9095      2.00000
      2     -18.1582      2.00000
      3     -18.1581      2.00000
      4     -14.5832      2.00000
      5     -14.5831      2.00000
      6     -12.6699      2.00000
      7     -11.0105      2.00000
      8     -10.7046      2.00000
      9     -10.0713      2.00000
     10     -10.0710      2.00000
     11      -8.7970      2.00000
     12      -8.1101      2.00000
     13      -8.1101      2.00000
     14      -6.0788      2.00000
     15      -6.0787      2.00000
     16      -1.0017      0.00000
     17      -1.0014      0.00000
     18      -0.4142      0.00000
     19       0.0767      0.00000
     20       0.0810      0.00000
     21       0.1132      0.00000
     22       0.2983      0.00000
     23       0.3294      0.00000
     24       0.3469      0.00000
     25       0.4546      0.00000
     26       0.4589      0.00000
     27       0.5115      0.00000
     28       0.5365      0.00000
     29       0.5429      0.00000
     30       0.5847      0.00000
     31       0.6217      0.00000
     32       0.6422      0.00000
     33       0.6529      0.00000
     34       0.6557      0.00000
     35       0.6654      0.00000
     36       0.6673      0.00000
     37       0.8547      0.00000
     38       0.8581      0.00000
     39       0.8582      0.00000
     40       0.8615      0.00000
     41       0.8893      0.00000
     42       0.8965      0.00000
     43       0.9279      0.00000
     44       0.9557      0.00000
     45       0.9956      0.00000
     46       1.1434      0.00000
     47       1.1546      0.00000
     48       1.1590      0.00000
     49       1.2020      0.00000
     50       1.2042      0.00000
     51       1.2566      0.00000
     52       1.2586      0.00000
     53       1.3767      0.00000
     54       1.3926      0.00000
     55       1.4012      0.00000
     56       1.4286      0.00000
     57       1.4584      0.00000
     58       1.4591      0.00000
     59       1.4685      0.00000
     60       1.5283      0.00000
     61       1.5430      0.00000
     62       1.5623      0.00000
     63       1.5693      0.00000
     64       1.5713      0.00000
     65       1.5810      0.00000
     66       1.5855      0.00000
     67       1.5912      0.00000
     68       1.5925      0.00000
     69       1.5942      0.00000
     70       1.5958      0.00000
     71       1.5968      0.00000
     72       1.5993      0.00000
     73       1.6004      0.00000
     74       1.6005      0.00000
     75       1.6966      0.00000
     76       1.7298      0.00000
     77       1.7507      0.00000
     78       1.7591      0.00000
     79       1.7852      0.00000
     80       1.8016      0.00000
     81       1.8039      0.00000
     82       1.8222      0.00000
     83       1.8433      0.00000
     84       1.8493      0.00000
     85       1.8732      0.00000
     86       1.8768      0.00000
     87       1.8834      0.00000
     88       1.8865      0.00000
     89       1.8866      0.00000
     90       1.8891      0.00000
     91       1.8960      0.00000
     92       1.8969      0.00000
     93       1.8983      0.00000
     94       1.9009      0.00000
     95       1.9058      0.00000
     96       1.9065      0.00000
     97       1.9078      0.00000
     98       1.9097      0.00000
     99       2.1510      0.00000
    100       2.2813      0.00000
    101       2.2887      0.00000
    102       2.2977      0.00000
    103       2.3903      0.00000
    104       2.4092      0.00000
    105       2.4173      0.00000
    106       2.4333      0.00000
    107       2.4504      0.00000
    108       2.4722      0.00000
    109       2.4762      0.00000
    110       2.4813      0.00000
    111       2.5305      0.00000
    112       2.5660      0.00000
    113       2.5854      0.00000
    114       2.6002      0.00000
    115       2.6231      0.00000
    116       2.6341      0.00000
    117       2.6456      0.00000
    118       2.6697      0.00000
    119       2.6928      0.00000
    120       2.7143      0.00000
    121       2.7300      0.00000
    122       2.7481      0.00000
    123       2.7552      0.00000
    124       2.7618      0.00000
    125       2.7727      0.00000
    126       2.7855      0.00000
    127       2.7904      0.00000
    128       2.8699      0.00000


--------------------------------------------------------------------------------------------------------


 soft charge-density along one line, spin component           1
         0         1         2         3         4         5         6         7         8         9
 total charge-density along one line

 pseudopotential strength for first ion, spin component:           1
 12.683  21.344  -0.001  -0.000   0.000  -0.001  -0.000   0.000
 21.344  35.917  -0.001  -0.000   0.000  -0.002  -0.000   0.001
 -0.001  -0.001  -3.265   0.000  -0.000  -5.853   0.000  -0.000
 -0.000  -0.000   0.000  -3.265   0.000   0.000  -5.853   0.000
  0.000   0.000  -0.000   0.000  -3.265  -0.000   0.000  -5.853
 -0.001  -0.002  -5.853   0.000  -0.000 -10.468   0.000   0.000
 -0.000  -0.000   0.000  -5.853   0.000   0.000 -10.468   0.000
  0.000   0.001  -0.000   0.000  -5.853   0.000   0.000 -10.468
 total augmentation occupancy for first ion, spin component:           1
  6.335  -2.022   0.682   0.010  -0.213  -0.303  -0.005   0.095
 -2.022   0.679  -0.315  -0.005   0.098   0.137   0.002  -0.043
  0.682  -0.315   5.706   0.620  -0.417  -1.768  -0.236   0.152
  0.010  -0.005   0.620   4.742   1.935  -0.236  -1.424  -0.738
 -0.213   0.098  -0.417   1.935   4.605   0.151  -0.738  -1.369
 -0.303   0.137  -1.768  -0.236   0.151   0.558   0.086  -0.052
 -0.005   0.002  -0.236  -1.424  -0.738   0.086   0.444   0.270
  0.095  -0.043   0.152  -0.738  -1.369  -0.052   0.270   0.423


------------------------ aborting loop because EDIFF is reached ----------------------------------------


    FORLOC:  cpu time      0.0378: real time      0.0378
    FORNL :  cpu time      0.3246: real time      0.3247
    FORCOR:  cpu time      0.5822: real time      0.5830
    OFIELD:  cpu time      0.0044: real time      0.0044
 WARNING: Using user supplied parameters
     VDW_S8 = 1.682
     VDW_SR = 1.094
     because the xc functional is not supported. Required parameters not
     defined in the INCAR file will be replaced with PBE defaults ones.


 ---------------------------------------------------------------------------------------------

         DFTD3 V3.0 Rev 1        
 IVDW         = 11
 DF unknown   
 parameters
 VDW_S6       =    1.0000
 VDW_S8       =    1.6820
 VDW_SR       =    1.0940
 rs18     =    1.0000
 alpha6   =   14.0000
 alpha8   =   16.0000
 k1-k3    =   16.0000    1.3333   -4.0000
 VDW_RADIUS   =   50.2022 A
 VDW_CNRADIUS =   21.1671 A
 Edisp (eV)   -0.17315

 E6    (eV) :    -0.0645
 E8    (eV) :    -0.1086
 % E8        : 62.74
    FORVDW:  cpu time      0.0544: real time      0.0544

 VOLUME and BASIS-vectors are now :
 -----------------------------------------------------------------------------
  energy-cutoff  :     1000.00
  volume of cell :    10648.00
      direct lattice vectors                 reciprocal lattice vectors
    22.000000000  0.000000000  0.000000000     0.045454545  0.000000000  0.000000000
     0.000000000 22.000000000  0.000000000     0.000000000  0.045454545  0.000000000
     0.000000000  0.000000000 22.000000000     0.000000000  0.000000000  0.045454545

  length of vectors
    22.000000000 22.000000000 22.000000000     0.045454545  0.045454545  0.045454545


 FORCES acting on ions:
    Electron-Ion                     Ewald-Force                    Non-Local-Force
 -----------------------------------------------------------------------------------------------
   -.537E+02 0.172E+03 0.265E+01   0.536E+02 -.172E+03 -.264E+01   0.244E+00 -.783E+00 -.118E-01
   0.537E+02 -.172E+03 -.265E+01   -.536E+02 0.172E+03 0.264E+01   -.243E+00 0.780E+00 0.112E-01
   -.129E+03 0.560E+02 -.113E+03   0.129E+03 -.558E+02 0.113E+03   0.585E+00 -.254E+00 0.511E+00
   0.129E+03 -.560E+02 0.113E+03   -.129E+03 0.558E+02 -.113E+03   -.585E+00 0.254E+00 -.511E+00
   -.755E+02 -.116E+03 -.116E+03   0.753E+02 0.116E+03 0.115E+03   0.341E+00 0.528E+00 0.523E+00
   0.755E+02 0.116E+03 0.116E+03   -.753E+02 -.116E+03 -.115E+03   -.342E+00 -.526E+00 -.523E+00
   -.239E+02 0.766E+02 0.118E+01   0.257E+02 -.822E+02 -.126E+01   -.176E+01 0.565E+01 0.866E-01
   0.239E+02 -.766E+02 -.118E+01   -.257E+02 0.822E+02 0.126E+01   0.176E+01 -.565E+01 -.866E-01
   -.574E+02 0.249E+02 -.502E+02   0.617E+02 -.267E+02 0.539E+02   -.424E+01 0.184E+01 -.370E+01
   0.574E+02 -.249E+02 0.502E+02   -.617E+02 0.267E+02 -.539E+02   0.424E+01 -.184E+01 0.370E+01
   -.336E+02 -.517E+02 -.514E+02   0.360E+02 0.555E+02 0.551E+02   -.248E+01 -.382E+01 -.379E+01
   0.336E+02 0.517E+02 0.514E+02   -.360E+02 -.555E+02 -.551E+02   0.248E+01 0.382E+01 0.379E+01
 -----------------------------------------------------------------------------------------------
   -.437E-03 0.123E-02 0.126E-02   0.426E-13 -.568E-13 -.284E-13   0.438E-03 -.119E-02 -.129E-02


 POSITION                                       TOTAL-FORCE (eV/Angst)
 -----------------------------------------------------------------------------------
     11.41535      9.66833     10.97954         0.075781     -0.242697     -0.003615
     10.58467     12.33173     11.02048        -0.075126      0.239479      0.003002
     11.99903     10.56740     11.87251         0.180192     -0.078759      0.157190
     10.00100     11.43261     10.12751        -0.180366      0.078383     -0.157690
     11.58370     11.89911     11.89296         0.104801      0.164086      0.161860
     10.41635     10.10087     10.10701        -0.105512     -0.161347     -0.161092
     11.73936      8.62955     10.96362        -0.002712      0.008362     -0.000005
     10.26066     13.37045     11.03640         0.002363     -0.006997      0.000127
     12.77822     10.22990     12.55304        -0.005100      0.002407     -0.004477
      9.22178     11.77011      9.44697         0.005542     -0.002632      0.004860
     12.03887     12.60044     12.58950        -0.003110     -0.005331     -0.005232
      9.96113      9.39956      9.41050         0.003246      0.005045      0.005070
 -----------------------------------------------------------------------------------
    total drift:                                0.000002      0.000041     -0.000028


--------------------------------------------------------------------------------------------------------



  FREE ENERGIE OF THE ION-ELECTRON SYSTEM (eV)
  ---------------------------------------------------
  free  energy   TOTEN  =       -73.36561757 eV

  energy  without entropy=      -73.36561757  energy(sigma->0) =      -73.36561757



--------------------------------------------------------------------------------------------------------


    POTLOK:  cpu time      0.8205: real time      0.8208


--------------------------------------------------------------------------------------------------------


 stress matrix after NEB project (eV)
      0.00477     -0.00146      0.00445
     -0.00146      0.00879      0.00146
      0.00445      0.00146      0.00493
  FORCES: max atom, RMS     0.254279    0.178461
  FORCE total and by dimension    0.618205    0.242697
  Stress total and by dimension    0.013134    0.008790
     LOOP+:  cpu time    205.3958: real time    205.8494
    4ORBIT:  cpu time      0.0000: real time      0.0000

 total amount of memory used by VASP MPI-rank0   562254. kBytes
=======================================================================

   base      :      30000. kBytes
   nonl-proj :      61153. kBytes
   fftplans  :     159096. kBytes
   grid      :     302822. kBytes
   one-center:          9. kBytes
   wavefun   :       9174. kBytes

  
  
 General timing and accounting informations for this job:
 ========================================================
  
                  Total CPU time used (sec):      247.240
                            User time (sec):      209.985
                          System time (sec):       37.256
                         Elapsed time (sec):      252.058
  
                   Maximum memory used (kb):      818624.
                   Average memory used (kb):          N/A
  
                          Minor page faults:      1438400
                          Major page faults:         1174
                 Voluntary context switches:         7713
