 vasp.6.4.1 05Apr23 (build Jun  6 2023 14:36:51) complex                         
 executed on        HPECrayEX_GCC date 2024.08.21  08:42:05
 running  128 mpi-ranks, with    1 threads/rank, on    1 nodes
 distrk:  each k-point on  128 cores,    1 groups
 distr:  one band on NCORE=  32 cores,    4 groups


--------------------------------------------------------------------------------------------------------


 INCAR:
   ALGO = Conjugate
   NPAR = 4
   ISMEAR = 0
   SIGMA = 0.01
   PREC = Accurate
   EDIFF = 1E-7
   ENCUT = 1000
   ISIF = 0
   GGA = OR
   LUSE_VDW = .TRUE.
   AGGAC = 0.0000
   LASPH = .TRUE.
   LWAVE = .FALSE.
   LCHARGE = .FALSE.

 POTCAR:    PAW_PBE C_h 06Feb2004                 
 POTCAR:    PAW_PBE H_h 06Feb2004                 
 POTCAR:    PAW_PBE O_h 06Feb2004                 
 -----------------------------------------------------------------------------
|                                                                             |
|               ----> ADVICE to this user running VASP <----                  |
|                                                                             |
|     You have switched on vdW-DFT.                                           |
|     This routine was written and supplied by Jiri Klimes. We recommend      |
|     that you carefully read and cite the following publications:            |
|       J. Klimes, D.R. Bowler, A. Michelides                                 |
|          J. Phys.: Cond Matt. 22 022201 (2010)                              |
|       J. Klimes, D.R. Bowler, A. Michelides                                 |
|          Phys. Rev. B. 83, 195131 (2011)                                    |
|     and references therein.                                                 |
|                                                                             |
 -----------------------------------------------------------------------------

 POTCAR:    PAW_PBE C_h 06Feb2004                 
   VRHFIN =C: s2p2                                                                                  
   LEXCH  = PE                                                                                      
   EATOM  =   147.1560 eV,   10.8157 Ry                                                             
                                                                                                    
   TITEL  = PAW_PBE C_h 06Feb2004                                                                   
   LULTRA =        F    use ultrasoft PP ?                                                          
   IUNSCR =        1    unscreen: 0-lin 1-nonlin 2-no                                               
   RPACOR =    0.800    partial core radius                                                         
   POMASS =   12.011; ZVAL   =    4.000    mass and valenz                                          
   RCORE  =    1.100    outmost cutoff radius                                                       
   RWIGS  =    1.630; RWIGS  =    0.863    wigner-seitz radius (au A)                               
   ENMAX  =  700.000; ENMIN  =  500.000 eV                                                          
   ICORE  =        2    local potential                                                             
   LCOR   =        T    correct aug charges                                                         
   LPAW   =        T    paw PP                                                                      
   EAUG   =  946.768                                                                                
   DEXC   =    0.000                                                                                
   RMAX   =    1.128    core radius for proj-oper                                                   
   RAUG   =    1.300    factor for augmentation sphere                                              
   RDEP   =    1.162    radius for radial grids                                                     
   RDEPT  =    1.088    core radius for aug-charge                                                  
                                                                                                    
   Atomic configuration                                                                             
    4 entries                                                                                       
     n  l   j            E        occ.                                                              
     1  0  0.50      -273.3789   2.0000                                                             
     2  0  0.50       -13.7508   2.0000                                                             
     2  1  0.50        -5.2854   2.0000                                                             
     3  2  1.50        -5.4423   0.0000                                                             
   Description                                                                                      
     l       E           TYP  RCUT    TYP  RCUT                                                     
     0    -13.7508458     23  1.100                                                                 
     0     -8.2022199     23  1.100                                                                 
     1     -5.2854383     23  1.100                                                                 
     1      1.1560700     23  1.100                                                                 
     2     -5.4423304      7  1.100                                                                 
  local pseudopotential read in
  partial core-charges read in
  partial kinetic energy density read in
  atomic valenz-charges read in
  non local Contribution for L=           0  read in
    real space projection operators read in
  non local Contribution for L=           0  read in
    real space projection operators read in
  non local Contribution for L=           1  read in
    real space projection operators read in
  non local Contribution for L=           1  read in
    real space projection operators read in
    PAW grid and wavefunctions read in

   number of l-projection  operators is LMAX  =           4
   number of lm-projection operators is LMMAX =           8

 POTCAR:    PAW_PBE H_h 06Feb2004                 
   VRHFIN =H: ultrasoft test                                                                        
   LEXCH  = PE                                                                                      
   EATOM  =    12.4884 eV,    0.9179 Ry                                                             
                                                                                                    
   TITEL  = PAW_PBE H_h 06Feb2004                                                                   
   LULTRA =        F    use ultrasoft PP ?                                                          
   IUNSCR =        0    unscreen: 0-lin 1-nonlin 2-no                                               
   RPACOR =    0.000    partial core radius                                                         
   POMASS =    1.000; ZVAL   =    1.000    mass and valenz                                          
   RCORE  =    0.800    outmost cutoff radius                                                       
   RWIGS  =    0.700; RWIGS  =    0.370    wigner-seitz radius (au A)                               
   ENMAX  =  700.000; ENMIN  =  350.000 eV                                                          
   RCLOC  =    0.701    cutoff for local pot                                                        
   LCOR   =        T    correct aug charges                                                         
   LPAW   =        T    paw PP                                                                      
   EAUG   = 1000.000                                                                                
   RMAX   =    0.819    core radius for proj-oper                                                   
   RAUG   =    1.000    factor for augmentation sphere                                              
   RDEP   =    0.817    radius for radial grids                                                     
   RDEPT  =    0.817    core radius for aug-charge                                                  
                                                                                                    
   Atomic configuration                                                                             
    2 entries                                                                                       
     n  l   j            E        occ.                                                              
     1  0  0.50        -6.4927   1.0000                                                             
     2  1  0.50        -3.4015   0.0000                                                             
   Description                                                                                      
     l       E           TYP  RCUT    TYP  RCUT                                                     
     0     -6.4927493     23  0.800                                                                 
     0      6.8029130     23  0.800                                                                 
     1     -6.8029130     23  0.800                                                                 
  local pseudopotential read in
  atomic valenz-charges read in
  non local Contribution for L=           0  read in
    real space projection operators read in
  non local Contribution for L=           0  read in
    real space projection operators read in
  non local Contribution for L=           1  read in
    real space projection operators read in
    PAW grid and wavefunctions read in

   number of l-projection  operators is LMAX  =           3
   number of lm-projection operators is LMMAX =           5

 POTCAR:    PAW_PBE O_h 06Feb2004                 
   VRHFIN =O: s2p4                                                                                  
   LEXCH  = PE                                                                                      
   EATOM  =   432.3788 eV,   31.7789 Ry                                                             
                                                                                                    
   TITEL  = PAW_PBE O_h 06Feb2004                                                                   
   LULTRA =        F    use ultrasoft PP ?                                                          
   IUNSCR =        1    unscreen: 0-lin 1-nonlin 2-no                                               
   RPACOR =    0.800    partial core radius                                                         
   POMASS =   16.000; ZVAL   =    6.000    mass and valenz                                          
   RCORE  =    1.100    outmost cutoff radius                                                       
   RWIGS  =    1.400; RWIGS  =    0.741    wigner-seitz radius (au A)                               
   ENMAX  =  700.000; ENMIN  =  500.000 eV                                                          
   ICORE  =        2    local potential                                                             
   LCOR   =        T    correct aug charges                                                         
   LPAW   =        T    paw PP                                                                      
   EAUG   =  888.804                                                                                
   DEXC   =    0.000                                                                                
   RMAX   =    1.128    core radius for proj-oper                                                   
   RAUG   =    1.300    factor for augmentation sphere                                              
   RDEP   =    1.125    radius for radial grids                                                     
   RDEPT  =    1.088    core radius for aug-charge                                                  
                                                                                                    
   Atomic configuration                                                                             
    4 entries                                                                                       
     n  l   j            E        occ.                                                              
     1  0  0.50      -514.6923   2.0000                                                             
     2  0  0.50       -23.9615   2.0000                                                             
     2  1  0.50        -9.0305   4.0000                                                             
     3  2  1.50        -9.5241   0.0000                                                             
   Description                                                                                      
     l       E           TYP  RCUT    TYP  RCUT                                                     
     0    -23.9615319     23  1.100                                                                 
     0    -25.3221145     23  1.100                                                                 
     1     -9.0304911     23  1.100                                                                 
     1     -5.4802209     23  1.100                                                                 
     2     -9.5240782      7  1.100                                                                 
  local pseudopotential read in
  partial core-charges read in
  partial kinetic energy density read in
  atomic valenz-charges read in
  non local Contribution for L=           0  read in
    real space projection operators read in
  non local Contribution for L=           0  read in
    real space projection operators read in
  non local Contribution for L=           1  read in
    real space projection operators read in
  non local Contribution for L=           1  read in
    real space projection operators read in
    PAW grid and wavefunctions read in

   number of l-projection  operators is LMAX  =           4
   number of lm-projection operators is LMMAX =           8

 -----------------------------------------------------------------------------
|                                                                             |
|               ----> ADVICE to this user running VASP <----                  |
|                                                                             |
|     You enforced a specific xc type in the INCAR file but a different       |
|     type was found in the POTCAR file.                                      |
|     I HOPE YOU KNOW WHAT YOU ARE DOING!                                     |
|                                                                             |
 -----------------------------------------------------------------------------

  PAW_PBE C_h 06Feb2004                 :
 energy of atom  1       EATOM= -147.1560
 kinetic energy error for atom=    0.0031 (will be added to EATOM!!)
  PAW_PBE H_h 06Feb2004                 :
 energy of atom  2       EATOM=  -12.4884
 kinetic energy error for atom=    0.0006 (will be added to EATOM!!)
  PAW_PBE O_h 06Feb2004                 :
 energy of atom  3       EATOM= -432.3788
 kinetic energy error for atom=    0.0171 (will be added to EATOM!!)


 POSCAR:  C  H  O
  positions in cartesian coordinates
  No initial velocities read in
 exchange correlation table for  LEXCH =       41
   RHO(1)=    0.500       N(1)  =     2000
   RHO(2)=  100.500       N(2)  =     4000

 VTST: version 4.1, (05/19/21)

 CHAIN: initializing optimizer
 
 OPT: Using VASP Dynamics algorithm
 CHAIN: Read ICHAIN            0

 POSCAR:  C  H  O
  positions in cartesian coordinates
  No initial velocities read in



--------------------------------------------------------------------------------------------------------


 ion  position               nearest neighbor table
   1  0.144  0.003  0.998-   9 1.23  10 1.31   2 1.54
   2  0.856  0.997  0.002-  11 1.23  12 1.31   1 1.54
   3  0.856  0.503  0.502-  13 1.23  15 1.31   4 1.54
   4  0.144  0.497  0.498-  14 1.23  16 1.31   3 1.54
   5  0.519  0.899  0.192-  10 1.02
   6  0.481  0.101  0.808-  12 1.02
   7  0.481  0.399  0.308-  15 1.02
   8  0.519  0.601  0.692-  16 1.02
   9  0.181  0.105  0.821-   1 1.23
  10  0.333  0.892  0.202-   5 1.02   1 1.31
  11  0.819  0.895  0.179-   2 1.23
  12  0.667  0.108  0.798-   6 1.02   2 1.31
  13  0.819  0.605  0.679-   3 1.23
  14  0.181  0.395  0.321-   4 1.23
  15  0.667  0.392  0.298-   7 1.02   3 1.31
  16  0.333  0.608  0.702-   8 1.02   4 1.31

  LATTYP: Found a simple monoclinic cell.
 ALAT       =     5.3300000000
 B/A-ratio  =     1.1285178236
 C/A-ratio  =     1.0198869820
 COS(beta)  =    -0.4357029138
  
  Lattice vectors:
  
 A1 = (   5.3300000000,   0.0000000000,   0.0000000000)
 A2 = (   0.0000000000,   6.0150000000,   0.0000000000)
 A3 = (  -2.3684800000,   0.0000000000,   4.8928900000)


Analysis of symmetry for initial positions (statically):
=====================================================================
 Subroutine PRICEL returns:
 Original cell was already a primitive cell.
 

 Routine SETGRP: Setting up the symmetry group for a 
 simple monoclinic supercell.


 Subroutine GETGRP returns: Found  4 space group operations
 (whereof  2 operations were pure point group operations)
 out of a pool of  4 trial point group operations.


The static configuration has the point symmetry S_2 .
 The point group associated with its full space group is C_2h.


Analysis of symmetry for dynamics (positions and initial velocities):
=====================================================================
 Subroutine PRICEL returns:
 Original cell was already a primitive cell.
 

 Routine SETGRP: Setting up the symmetry group for a 
 simple monoclinic supercell.


 Subroutine GETGRP returns: Found  4 space group operations
 (whereof  2 operations were pure point group operations)
 out of a pool of  4 trial point group operations.


The dynamic configuration has the point symmetry S_2 .
 The point group associated with its full space group is C_2h.


 Subroutine INISYM returns: Found  4 space group operations
 (whereof  2 operations are pure point group operations),
 and found     1 'primitive' translations


----------------------------------------------------------------------------------------

                                     Primitive cell                                     

  volume of cell :     156.8658

  direct lattice vectors                    reciprocal lattice vectors
     5.330000000  0.000000000  0.000000000     0.187617261 -0.000000000  0.090819072
     0.000000000  6.015000000  0.000000000     0.000000000  0.166251039 -0.000000000
    -2.368480000  0.000000000  4.892890000     0.000000000  0.000000000  0.204378190

  length of vectors
     5.330000000  6.015000000  5.435997614     0.208442655  0.166251039  0.204378190

  position of ions in fractional coordinates (direct lattice)
     0.143691759  0.003048989  0.998318707
     0.856308241  0.996951011  0.001681293
     0.856308238  0.503048993  0.501681414
     0.143691762  0.496951006  0.498318586
     0.519222146  0.898542098  0.191901324
     0.480777854  0.101457902  0.808098676
     0.480777830  0.398542067  0.308098767
     0.519222170  0.601457933  0.691901233
     0.180772503  0.105456181  0.821140772
     0.332993439  0.892056331  0.202355363
     0.819227497  0.894543819  0.178859228
     0.667006561  0.107943669  0.797644637
     0.819227565  0.605456176  0.678859303
     0.180772436  0.394543824  0.321140697
     0.667006610  0.392056290  0.297644791
     0.332993390  0.607943710  0.702355209

  ion indices of the primitive-cell ions
   primitive index   ion index
                 1           1
                 2           2
                 3           3
                 4           4
                 5           5
                 6           6
                 7           7
                 8           8
                 9           9
                10          10
                11          11
                12          12
                13          13
                14          14
                15          15
                16          16

----------------------------------------------------------------------------------------



 KPOINTS: auto                                    

Automatic generation of k-mesh.
 Grid dimensions read from file:
 generate k-points for:    6    4    5

 Generating k-lattice:

  Cartesian coordinates                     Fractional coordinates (reciprocal lattice)
     0.031269543 -0.000000000  0.015136512     0.166666667  0.000000000 -0.000000000
     0.000000000  0.041562760 -0.000000000     0.000000000  0.250000000  0.000000000
     0.000000000  0.000000000  0.040875638     0.000000000  0.000000000  0.200000000

  Length of vectors
     0.034740442  0.041562760  0.040875638

  Shift w.r.t. Gamma in fractional coordinates (k-lattice)
     0.000000000  0.000000000  0.000000000

 
 Subroutine IBZKPT returns following result:
 ===========================================
 
 Found     48 irreducible k-points:
 
 Following reciprocal coordinates:
            Coordinates               Weight
  0.000000  0.000000  0.000000      1.000000
  0.166667  0.000000  0.000000      2.000000
  0.333333  0.000000  0.000000      2.000000
  0.500000  0.000000  0.000000      1.000000
  0.000000  0.250000  0.000000      2.000000
  0.166667  0.250000  0.000000      4.000000
  0.333333  0.250000  0.000000      4.000000
  0.500000  0.250000  0.000000      2.000000
  0.000000  0.500000  0.000000      1.000000
  0.166667  0.500000  0.000000      2.000000
  0.333333  0.500000  0.000000      2.000000
  0.500000  0.500000  0.000000      1.000000
  0.000000  0.000000  0.200000      2.000000
  0.166667  0.000000  0.200000      2.000000
  0.333333  0.000000  0.200000      2.000000
  0.500000  0.000000  0.200000      2.000000
 -0.333333  0.000000  0.200000      2.000000
 -0.166667  0.000000  0.200000      2.000000
  0.000000  0.250000  0.200000      4.000000
  0.166667  0.250000  0.200000      4.000000
  0.333333  0.250000  0.200000      4.000000
  0.500000  0.250000  0.200000      4.000000
 -0.333333  0.250000  0.200000      4.000000
 -0.166667  0.250000  0.200000      4.000000
  0.000000  0.500000  0.200000      2.000000
  0.166667  0.500000  0.200000      2.000000
  0.333333  0.500000  0.200000      2.000000
  0.500000  0.500000  0.200000      2.000000
 -0.333333  0.500000  0.200000      2.000000
 -0.166667  0.500000  0.200000      2.000000
  0.000000  0.000000  0.400000      2.000000
  0.166667  0.000000  0.400000      2.000000
  0.333333  0.000000  0.400000      2.000000
  0.500000  0.000000  0.400000      2.000000
 -0.333333  0.000000  0.400000      2.000000
 -0.166667  0.000000  0.400000      2.000000
  0.000000  0.250000  0.400000      4.000000
  0.166667  0.250000  0.400000      4.000000
  0.333333  0.250000  0.400000      4.000000
  0.500000  0.250000  0.400000      4.000000
 -0.333333  0.250000  0.400000      4.000000
 -0.166667  0.250000  0.400000      4.000000
  0.000000  0.500000  0.400000      2.000000
  0.166667  0.500000  0.400000      2.000000
  0.333333  0.500000  0.400000      2.000000
  0.500000  0.500000  0.400000      2.000000
 -0.333333  0.500000  0.400000      2.000000
 -0.166667  0.500000  0.400000      2.000000
 
 Following cartesian coordinates:
            Coordinates               Weight
  0.000000  0.000000  0.000000      1.000000
  0.031270  0.000000  0.015137      2.000000
  0.062539  0.000000  0.030273      2.000000
  0.093809  0.000000  0.045410      1.000000
  0.000000  0.041563  0.000000      2.000000
  0.031270  0.041563  0.015137      4.000000
  0.062539  0.041563  0.030273      4.000000
  0.093809  0.041563  0.045410      2.000000
  0.000000  0.083126  0.000000      1.000000
  0.031270  0.083126  0.015137      2.000000
  0.062539  0.083126  0.030273      2.000000
  0.093809  0.083126  0.045410      1.000000
  0.000000  0.000000  0.040876      2.000000
  0.031270  0.000000  0.056012      2.000000
  0.062539  0.000000  0.071149      2.000000
  0.093809  0.000000  0.086285      2.000000
 -0.062539  0.000000  0.010603      2.000000
 -0.031270  0.000000  0.025739      2.000000
  0.000000  0.041563  0.040876      4.000000
  0.031270  0.041563  0.056012      4.000000
  0.062539  0.041563  0.071149      4.000000
  0.093809  0.041563  0.086285      4.000000
 -0.062539  0.041563  0.010603      4.000000
 -0.031270  0.041563  0.025739      4.000000
  0.000000  0.083126  0.040876      2.000000
  0.031270  0.083126  0.056012      2.000000
  0.062539  0.083126  0.071149      2.000000
  0.093809  0.083126  0.086285      2.000000
 -0.062539  0.083126  0.010603      2.000000
 -0.031270  0.083126  0.025739      2.000000
  0.000000  0.000000  0.081751      2.000000
  0.031270  0.000000  0.096888      2.000000
  0.062539  0.000000  0.112024      2.000000
  0.093809  0.000000  0.127161      2.000000
 -0.062539  0.000000  0.051478      2.000000
 -0.031270  0.000000  0.066615      2.000000
  0.000000  0.041563  0.081751      4.000000
  0.031270  0.041563  0.096888      4.000000
  0.062539  0.041563  0.112024      4.000000
  0.093809  0.041563  0.127161      4.000000
 -0.062539  0.041563  0.051478      4.000000
 -0.031270  0.041563  0.066615      4.000000
  0.000000  0.083126  0.081751      2.000000
  0.031270  0.083126  0.096888      2.000000
  0.062539  0.083126  0.112024      2.000000
  0.093809  0.083126  0.127161      2.000000
 -0.062539  0.083126  0.051478      2.000000
 -0.031270  0.083126  0.066615      2.000000
 


--------------------------------------------------------------------------------------------------------




 Dimension of arrays:
   k-points           NKPTS =     48   k-points in BZ     NKDIM =     48   number of bands    NBANDS=     44
   number of dos      NEDOS =    301   number of ions     NIONS =     16
   non local maximal  LDIM  =      4   non local SUM 2l+1 LMDIM =      8
   total plane-waves  NPLWV = 200704
   max r-space proj   IRMAX =      1   max aug-charges    IRDMAX=   9530
   dimension x,y,z NGX =    56 NGY =   64 NGZ =   56
   dimension x,y,z NGXF=   112 NGYF=  128 NGZF=  112
   support grid    NGXF=   112 NGYF=  128 NGZF=  112
   ions per type =               4   4   8
   NGX,Y,Z   is equivalent  to a cutoff of  17.47, 17.69, 17.13 a.u.
   NGXF,Y,Z  is equivalent  to a cutoff of  34.93, 35.38, 34.25 a.u.

 SYSTEM =  unknown system                          
 POSCAR =   C  H  O                                

 Startparameter for this run:
   NWRITE =      2    write-flag & timer
   PREC   = accura    normal or accurate (medium, high low for compatibility)
   ISTART =      0    job   : 0-new  1-cont  2-samecut
   ICHARG =      2    charge: 1-file 2-atom 10-const
   ISPIN  =      1    spin polarized calculation?
   LNONCOLLINEAR =      F non collinear calculations
   LSORBIT =      F    spin-orbit coupling
   INIWAV =      1    electr: 0-lowe 1-rand  2-diag
   LASPH  =      T    aspherical Exc in radial PAW
 Electronic Relaxation 1
   ENCUT  = 1000.0 eV  73.50 Ry    8.57 a.u.  13.74 15.51 14.02*2*pi/ulx,y,z
   ENINI  = 1000.0     initial cutoff
   ENAUG  = 1000.0 eV  augmentation charge cutoff
   NELM   =     60;   NELMIN=  2; NELMDL= -5     # of ELM steps 
   EDIFF  = 0.1E-06   stopping-criterion for ELM
   LREAL  =      F    real-space projection
   NLSPLINE    = F    spline interpolate recip. space projectors
   LCOMPAT=      F    compatible to vasp.4.4
   GGA_COMPAT  = T    GGA compatible to vasp.4.4-vasp.4.6
   LMAXPAW     = -100 max onsite density
   LMAXMIX     =    2 max onsite mixed and CHGCAR
   VOSKOWN=      0    Vosko Wilk Nusair interpolation
   ROPT   =    0.00000   0.00000   0.00000
 Ionic relaxation
   EDIFFG = 0.1E-05   stopping-criterion for IOM
   NSW    =      0    number of steps for IOM
   NBLOCK =      1;   KBLOCK =      1    inner block; outer block 
   IBRION =     -1    ionic relax: 0-MD 1-quasi-New 2-CG
   NFREE  =      0    steps in history (QN), initial steepest desc. (CG)
   ISIF   =      0    stress and relaxation
   IWAVPR =     10    prediction:  0-non 1-charg 2-wave 3-comb
   ISYM   =      2    0-nonsym 1-usesym 2-fastsym
   LCORR  =      T    Harris-Foulkes like correction to forces

   POTIM  = 0.5000    time-step for ionic-motion
   TEIN   =    0.0    initial temperature
   TEBEG  =    0.0;   TEEND  =   0.0 temperature during run
   SMASS  =  -3.00    Nose mass-parameter (am)
   estimated Nose-frequenzy (Omega)   =  0.10E-29 period in steps = 0.13E+47 mass=  -0.649E-27a.u.
   SCALEE = 1.0000    scale energy and forces
   NPACO  =    256;   APACO  = 10.0  distance and # of slots for P.C.
   PSTRESS=    0.0 pullay stress

  Mass of Ions in am
   POMASS =  12.01  1.00 16.00
  Ionic Valenz
   ZVAL   =   4.00  1.00  6.00
  Atomic Wigner-Seitz radii
   RWIGS  =  -1.00 -1.00 -1.00
  virtual crystal weights 
   VCA    =   1.00  1.00  1.00
   NELECT =      68.0000    total number of electrons
   NUPDOWN=      -1.0000    fix difference up-down

 DOS related values:
   EMIN   =  10.00;   EMAX   =-10.00  energy-range for DOS
   EFERMI =   0.00;   METHOD = LEGACY      
   ISMEAR =     0;   SIGMA  =   0.01  broadening in eV -4-tet -1-fermi 0-gaus

 Electronic relaxation 2 (details)
   IALGO  =     58    algorithm
   LDIAG  =      T    sub-space diagonalisation (order eigenvalues)
   LSUBROT=      F    optimize rotation matrix (better conditioning)
   TURBO    =      0    0=normal 1=particle mesh
   IRESTART =      0    0=no restart 2=restart with 2 vectors
   NREBOOT  =      0    no. of reboots
   NMIN     =      0    reboot dimension
   EREF     =   0.00    reference energy to select bands
   IMIX   =      4    mixing-type and parameters
     AMIX     =   0.40;   BMIX     =  1.00
     AMIX_MAG =   1.60;   BMIX_MAG =  1.00
     AMIN     =   0.10
     WC   =   100.;   INIMIX=   1;  MIXPRE=   1;  MAXMIX= -45

 Intra band minimization:
   WEIMIN = 0.0000     energy-eigenvalue tresh-hold
   EBREAK =  0.57E-09  absolut break condition
   DEPER  =   0.30     relativ break condition  

   TIME   =   0.40     timestep for ELM

  volume/ion in A,a.u.               =       9.80        66.16
  Fermi-wavevector in a.u.,A,eV,Ry     =   1.238992  2.341355 20.886307  1.535100
  Thomas-Fermi vector in A             =   2.373494

 Write flags
   LWAVE        =      F    write WAVECAR
   LDOWNSAMPLE  =      F    k-point downsampling of WAVECAR
   LCHARG       =      T    write CHGCAR
   LVTOT        =      F    write LOCPOT, total local potential
   LVHAR        =      F    write LOCPOT, Hartree potential only
   LELF         =      F    write electronic localiz. function (ELF)
   LORBIT       =      0    0 simple, 1 ext, 2 COOP (PROOUT), +10 PAW based schemes


 Dipole corrections
   LMONO  =      F    monopole corrections only (constant potential shift)
   LDIPOL =      F    correct potential (dipole corrections)
   IDIPOL =      0    1-x, 2-y, 3-z, 4-all directions 
   EPSILON=  1.0000000 bulk dielectric constant

 Exchange correlation treatment:
   GGA     =    OR    GGA type
   LEXCH   =    41    internal setting for exchange type
   LIBXC   =     F    Libxc                    
   VOSKOWN =     0    Vosko Wilk Nusair interpolation
   LHFCALC =     F    Hartree Fock is set to
   LHFONE  =     F    Hartree Fock one center treatment
   AEXX    =    0.0000 exact exchange contribution

 vdW DFT:
   LUSE_VDW   =     T    switch on vdW DFT
   IVDW_NL    =     1    kernel type
   LSPIN_VDW  =     F    use spin-polarized vdW DFT
   Zab_VDW    =-.8491    correlation parameter
   PARAM1     =0.1234
   PARAM2     =1.0000
   PARAM3     =0.0000
   -- rVV10 --
   BPARAM     = 6.3000
   CPARAM     = 0.0093

 Linear response parameters
   LEPSILON=     F    determine dielectric tensor
   LRPA    =     F    only Hartree local field effects (RPA)
   LNABLA  =     F    use nabla operator in PAW spheres
   LVEL    =     F    velocity operator in full k-point grid
   CSHIFT  =0.1000    complex shift for real part using Kramers Kronig
   OMEGAMAX=  -1.0    maximum frequency
   DEG_THRESHOLD= 0.2000000E-02 threshold for treating states as degnerate
   RTIME   =   -0.100 relaxation time in fs
  (WPLASMAI=    0.000 imaginary part of plasma frequency in eV, 0.658/RTIME)
   DFIELD  = 0.0000000 0.0000000 0.0000000 field for delta impulse in time

  Optional k-point grid parameters
   LKPOINTS_OPT  =     F    use optional k-point grid
   KPOINTS_OPT_MODE=     1    mode for optional k-point grid

 Orbital magnetization related:
   ORBITALMAG=     F  switch on orbital magnetization
   LCHIMAG   =     F  perturbation theory with respect to B field
   DQ        =  0.001000  dq finite difference perturbation B field
   LLRAUG    =     F  two centre corrections for induced B field
   LBONE     =     F  B-component reconstruction in AE one-centre
   LVGVCALC  =     T  calculate vGv susceptibility
   LVGVAPPL  =     F  apply vGv susceptibility instead of pGv for G=0

 Random number generation:
   RANDOM_GENERATOR = DEFAULT
   PCG_SEED         = not used


--------------------------------------------------------------------------------------------------------


 Static calculation
 charge density and potential will be updated during run
 non-spin polarized calculation
 Conjugate gradient for all bands (Freysoldt, et al. PRB 79, 241103 (2009))
 preconditioned conjugated gradient                                        
 perform sub-space diagonalisation
    before iterative eigenvector-optimisation
 modified Broyden-mixing scheme, WC =      100.0
 initial mixing is a Kerker type mixing with AMIX =  0.4000 and BMIX =      1.0000
 Hartree-type preconditioning will be used
 using additional bands           10
 reciprocal scheme for non local part
 use partial core corrections
 no Harris-corrections to forces 
 use gradient corrections 
 use of overlap-Matrix (Vanderbilt PP)
 Gauss-broadening in eV      SIGMA  =   0.01


--------------------------------------------------------------------------------------------------------


  energy-cutoff  :     1000.00
  volume of cell :      156.87
      direct lattice vectors                 reciprocal lattice vectors
     5.330000000  0.000000000  0.000000000     0.187617261 -0.000000000  0.090819072
     0.000000000  6.015000000  0.000000000     0.000000000  0.166251039 -0.000000000
    -2.368480000  0.000000000  4.892890000     0.000000000  0.000000000  0.204378190

  length of vectors
     5.330000000  6.015000000  5.435997614     0.208442655  0.166251039  0.204378190



 k-points in units of 2pi/SCALE and weight: auto                                    
   0.00000000  0.00000000  0.00000000       0.008
   0.03126954  0.00000000  0.01513651       0.017
   0.06253909  0.00000000  0.03027302       0.017
   0.09380863  0.00000000  0.04540954       0.008
   0.00000000  0.04156276  0.00000000       0.017
   0.03126954  0.04156276  0.01513651       0.033
   0.06253909  0.04156276  0.03027302       0.033
   0.09380863  0.04156276  0.04540954       0.017
   0.00000000  0.08312552  0.00000000       0.008
   0.03126954  0.08312552  0.01513651       0.017
   0.06253909  0.08312552  0.03027302       0.017
   0.09380863  0.08312552  0.04540954       0.008
   0.00000000  0.00000000  0.04087564       0.017
   0.03126954  0.00000000  0.05601215       0.017
   0.06253909  0.00000000  0.07114866       0.017
   0.09380863  0.00000000  0.08628517       0.017
  -0.06253909  0.00000000  0.01060261       0.017
  -0.03126954  0.00000000  0.02573913       0.017
   0.00000000  0.04156276  0.04087564       0.033
   0.03126954  0.04156276  0.05601215       0.033
   0.06253909  0.04156276  0.07114866       0.033
   0.09380863  0.04156276  0.08628517       0.033
  -0.06253909  0.04156276  0.01060261       0.033
  -0.03126954  0.04156276  0.02573913       0.033
   0.00000000  0.08312552  0.04087564       0.017
   0.03126954  0.08312552  0.05601215       0.017
   0.06253909  0.08312552  0.07114866       0.017
   0.09380863  0.08312552  0.08628517       0.017
  -0.06253909  0.08312552  0.01060261       0.017
  -0.03126954  0.08312552  0.02573913       0.017
   0.00000000  0.00000000  0.08175128       0.017
   0.03126954  0.00000000  0.09688779       0.017
   0.06253909  0.00000000  0.11202430       0.017
   0.09380863  0.00000000  0.12716081       0.017
  -0.06253909  0.00000000  0.05147825       0.017
  -0.03126954  0.00000000  0.06661476       0.017
   0.00000000  0.04156276  0.08175128       0.033
   0.03126954  0.04156276  0.09688779       0.033
   0.06253909  0.04156276  0.11202430       0.033
   0.09380863  0.04156276  0.12716081       0.033
  -0.06253909  0.04156276  0.05147825       0.033
  -0.03126954  0.04156276  0.06661476       0.033
   0.00000000  0.08312552  0.08175128       0.017
   0.03126954  0.08312552  0.09688779       0.017
   0.06253909  0.08312552  0.11202430       0.017
   0.09380863  0.08312552  0.12716081       0.017
  -0.06253909  0.08312552  0.05147825       0.017
  -0.03126954  0.08312552  0.06661476       0.017

 k-points in reciprocal lattice and weights: auto                                    
   0.00000000  0.00000000  0.00000000       0.008
   0.16666667  0.00000000  0.00000000       0.017
   0.33333333  0.00000000  0.00000000       0.017
   0.50000000  0.00000000  0.00000000       0.008
   0.00000000  0.25000000  0.00000000       0.017
   0.16666667  0.25000000  0.00000000       0.033
   0.33333333  0.25000000  0.00000000       0.033
   0.50000000  0.25000000  0.00000000       0.017
   0.00000000  0.50000000  0.00000000       0.008
   0.16666667  0.50000000  0.00000000       0.017
   0.33333333  0.50000000  0.00000000       0.017
   0.50000000  0.50000000  0.00000000       0.008
   0.00000000  0.00000000  0.20000000       0.017
   0.16666667  0.00000000  0.20000000       0.017
   0.33333333  0.00000000  0.20000000       0.017
   0.50000000  0.00000000  0.20000000       0.017
  -0.33333333  0.00000000  0.20000000       0.017
  -0.16666667  0.00000000  0.20000000       0.017
   0.00000000  0.25000000  0.20000000       0.033
   0.16666667  0.25000000  0.20000000       0.033
   0.33333333  0.25000000  0.20000000       0.033
   0.50000000  0.25000000  0.20000000       0.033
  -0.33333333  0.25000000  0.20000000       0.033
  -0.16666667  0.25000000  0.20000000       0.033
   0.00000000  0.50000000  0.20000000       0.017
   0.16666667  0.50000000  0.20000000       0.017
   0.33333333  0.50000000  0.20000000       0.017
   0.50000000  0.50000000  0.20000000       0.017
  -0.33333333  0.50000000  0.20000000       0.017
  -0.16666667  0.50000000  0.20000000       0.017
   0.00000000  0.00000000  0.40000000       0.017
   0.16666667  0.00000000  0.40000000       0.017
   0.33333333  0.00000000  0.40000000       0.017
   0.50000000  0.00000000  0.40000000       0.017
  -0.33333333  0.00000000  0.40000000       0.017
  -0.16666667  0.00000000  0.40000000       0.017
   0.00000000  0.25000000  0.40000000       0.033
   0.16666667  0.25000000  0.40000000       0.033
   0.33333333  0.25000000  0.40000000       0.033
   0.50000000  0.25000000  0.40000000       0.033
  -0.33333333  0.25000000  0.40000000       0.033
  -0.16666667  0.25000000  0.40000000       0.033
   0.00000000  0.50000000  0.40000000       0.017
   0.16666667  0.50000000  0.40000000       0.017
   0.33333333  0.50000000  0.40000000       0.017
   0.50000000  0.50000000  0.40000000       0.017
  -0.33333333  0.50000000  0.40000000       0.017
  -0.16666667  0.50000000  0.40000000       0.017

 position of ions in fractional coordinates (direct lattice) 
   0.14369176  0.00304899  0.99831871
   0.85630824  0.99695101  0.00168129
   0.85630824  0.50304899  0.50168141
   0.14369176  0.49695101  0.49831859
   0.51922215  0.89854210  0.19190132
   0.48077785  0.10145790  0.80809868
   0.48077783  0.39854207  0.30809877
   0.51922217  0.60145793  0.69190123
   0.18077250  0.10545618  0.82114077
   0.33299344  0.89205633  0.20235536
   0.81922750  0.89454382  0.17885923
   0.66700656  0.10794367  0.79764464
   0.81922756  0.60545618  0.67885930
   0.18077244  0.39454382  0.32114070
   0.66700661  0.39205629  0.29764479
   0.33299339  0.60794371  0.70235521

 position of ions in cartesian coordinates  (Angst):
  -1.59862081  0.01833967  4.88466362
   4.56014081  5.99666033  0.00822638
   3.37590051  3.02583970  2.45467197
  -0.41438051  2.98916030  2.43821803
   2.31293959  5.40473072  0.93895207
   0.64858041  0.61026928  3.95393793
   1.83282006  2.39723053  1.50749338
   1.12869994  3.61776947  3.38539662
  -0.98133805  0.63431893  4.01775147
   1.29558040  5.36571883  0.99010253
   3.94285805  5.38068107  0.87513853
   1.66593960  0.64928117  3.90278747
   2.75861824  3.64181890  3.32158390
   0.20290176  2.37318110  1.57130611
   2.85017950  2.35821859  1.45634322
   0.11134050  3.65678142  3.43654678



--------------------------------------------------------------------------------------------------------


 k-point   1 :   0.0000 0.0000 0.0000  plane waves:   11235
 k-point   2 :   0.1667 0.0000 0.0000  plane waves:   11231
 k-point   3 :   0.3333 0.0000 0.0000  plane waves:   11253
 k-point   4 :   0.5000 0.0000 0.0000  plane waves:   11230
 k-point   5 :   0.0000 0.2500 0.0000  plane waves:   11269
 k-point   6 :   0.1667 0.2500 0.0000  plane waves:   11264
 k-point   7 :   0.3333 0.2500 0.0000  plane waves:   11247
 k-point   8 :   0.5000 0.2500 0.0000  plane waves:   11246
 k-point   9 :   0.0000 0.5000 0.0000  plane waves:   11232
 k-point  10 :   0.1667 0.5000 0.0000  plane waves:   11238
 k-point  11 :   0.3333 0.5000 0.0000  plane waves:   11252
 k-point  12 :   0.5000 0.5000 0.0000  plane waves:   11256
 k-point  13 :   0.0000 0.0000 0.2000  plane waves:   11280
 k-point  14 :   0.1667 0.0000 0.2000  plane waves:   11253
 k-point  15 :   0.3333 0.0000 0.2000  plane waves:   11254
 k-point  16 :   0.5000 0.0000 0.2000  plane waves:   11276
 k-point  17 :  -0.3333 0.0000 0.2000  plane waves:   11272
 k-point  18 :  -0.1667 0.0000 0.2000  plane waves:   11295
 k-point  19 :   0.0000 0.2500 0.2000  plane waves:   11270
 k-point  20 :   0.1667 0.2500 0.2000  plane waves:   11273
 k-point  21 :   0.3333 0.2500 0.2000  plane waves:   11279
 k-point  22 :   0.5000 0.2500 0.2000  plane waves:   11254
 k-point  23 :  -0.3333 0.2500 0.2000  plane waves:   11256
 k-point  24 :  -0.1667 0.2500 0.2000  plane waves:   11267
 k-point  25 :   0.0000 0.5000 0.2000  plane waves:   11264
 k-point  26 :   0.1667 0.5000 0.2000  plane waves:   11256
 k-point  27 :   0.3333 0.5000 0.2000  plane waves:   11266
 k-point  28 :   0.5000 0.5000 0.2000  plane waves:   11262
 k-point  29 :  -0.3333 0.5000 0.2000  plane waves:   11262
 k-point  30 :  -0.1667 0.5000 0.2000  plane waves:   11242
 k-point  31 :   0.0000 0.0000 0.4000  plane waves:   11268
 k-point  32 :   0.1667 0.0000 0.4000  plane waves:   11286
 k-point  33 :   0.3333 0.0000 0.4000  plane waves:   11270
 k-point  34 :   0.5000 0.0000 0.4000  plane waves:   11292
 k-point  35 :  -0.3333 0.0000 0.4000  plane waves:   11289
 k-point  36 :  -0.1667 0.0000 0.4000  plane waves:   11295
 k-point  37 :   0.0000 0.2500 0.4000  plane waves:   11272
 k-point  38 :   0.1667 0.2500 0.4000  plane waves:   11277
 k-point  39 :   0.3333 0.2500 0.4000  plane waves:   11263
 k-point  40 :   0.5000 0.2500 0.4000  plane waves:   11271
 k-point  41 :  -0.3333 0.2500 0.4000  plane waves:   11261
 k-point  42 :  -0.1667 0.2500 0.4000  plane waves:   11262
 k-point  43 :   0.0000 0.5000 0.4000  plane waves:   11262
 k-point  44 :   0.1667 0.5000 0.4000  plane waves:   11250
 k-point  45 :   0.3333 0.5000 0.4000  plane waves:   11272
 k-point  46 :   0.5000 0.5000 0.4000  plane waves:   11250
 k-point  47 :  -0.3333 0.5000 0.4000  plane waves:   11254
 k-point  48 :  -0.1667 0.5000 0.4000  plane waves:   11250

 maximum and minimum number of plane-waves per node :       366      338

 maximum number of plane-waves:     11295
 maximum index in each direction: 
   IXMAX=   14   IYMAX=   15   IZMAX=   14
   IXMIN=  -14   IYMIN=  -16   IZMIN=  -14


 parallel 3D FFT for wavefunctions:
    minimum data exchange during FFTs selected (reduces bandwidth)
 parallel 3D FFT for charge:
    minimum data exchange during FFTs selected (reduces bandwidth)


 total amount of memory used by VASP MPI-rank0    44695. kBytes
=======================================================================

   base      :      30000. kBytes
   nonl-proj :       3409. kBytes
   fftplans  :        741. kBytes
   grid      :       1218. kBytes
   one-center:          3. kBytes
   wavefun   :       9324. kBytes

     INWAV:  cpu time      0.0013: real time      0.0014
 Broyden mixing: mesh for mixing (old mesh)
   NGX = 27   NGY = 31   NGZ = 29
  (NGX  =112   NGY  =128   NGZ  =112)
  gives a total of  24273 points

 initial charge density was supplied:
 charge density of overlapping atoms calculated
 number of electron      68.0000000 magnetization 
 keeping initial charge density in first step


--------------------------------------------------------------------------------------------------------


 Maximum index for augmentation-charges            0 (set IRDMAX)


--------------------------------------------------------------------------------------------------------


 First call to EWALD:  gamma=   0.329
 Maximum number of real-space cells 3x 3x 3
 Maximum number of reciprocal cells 3x 3x 3

    FEWALD:  cpu time      0.0043: real time      0.0046


--------------------------------------- Ionic step        1  -------------------------------------------




--------------------------------------- Iteration      1(   1)  ---------------------------------------


vdW kernel read from vdw_kernel.bindat
  0.0000  0.2424  0.5071  0.7962  1.1119  1.4567  1.8333  2.2446  2.6937  3.1842
  3.7199  4.3049  4.9438  5.6415  6.4036  7.2358  8.1446  9.1372 10.2212 11.4050
 12.6979 14.1099 15.6519 17.3360 19.1751 21.1837 23.3773 25.7729 28.3892 31.2465
 34.3669 37.7748 41.4965 45.5611 50.0000

    POTLOK:  cpu time      1.1882: real time      1.2114
    SETDIJ:  cpu time      0.0699: real time      0.0706
    TRIAL :  cpu time      1.4531: real time      1.4608
    CORREC:  cpu time      0.0015: real time      0.0015
    --------------------------------------------
      LOOP:  cpu time      2.7161: real time      2.8175

 eigenvalue-minimisations  :  4224
 total energy-change (2. order) : 0.7412482E+03  (-0.5418335E+04)
 number of electron      68.0000000 magnetization 
 augmentation part       68.0000000 magnetization 

 Free energy of the ion-electron system (eV)
  ---------------------------------------------------
  alpha Z        PSCENC =        81.91423797
  Ewald energy   TEWEN  =     -2364.59881513
  -Hartree energ DENC   =     -1465.29363950
  -exchange      EXHF   =         0.00000000
  -V(xc)+E(xc)   XCENC  =       243.39209247
  PAW double counting   =      3245.06981985    -3230.56028521
  entropy T*S    EENTRO =        -0.00021771
  eigenvalues    EBANDS =       102.06111088
  atomic energy  EATOM  =      4129.26391641
  ---------------------------------------------------
  free energy    TOTEN  =       741.24822003 eV

  energy without entropy =      741.24843774  energy(sigma->0) =      741.24832888


--------------------------------------------------------------------------------------------------------




--------------------------------------- Iteration      1(   2)  ---------------------------------------


    TRIAL :  cpu time      1.8309: real time      1.8315
    CORREC:  cpu time      0.0003: real time      0.0003
    --------------------------------------------
      LOOP:  cpu time      1.8468: real time      1.8607

 eigenvalue-minimisations  :  5892
 total energy-change (2. order) :-0.7346947E+03  (-0.7129726E+03)
 number of electron      68.0000000 magnetization 
 augmentation part       68.0000000 magnetization 

 Free energy of the ion-electron system (eV)
  ---------------------------------------------------
  alpha Z        PSCENC =        81.91423797
  Ewald energy   TEWEN  =     -2364.59881513
  -Hartree energ DENC   =     -1465.29363950
  -exchange      EXHF   =         0.00000000
  -V(xc)+E(xc)   XCENC  =       243.39209247
  PAW double counting   =      3245.06981985    -3230.56028521
  entropy T*S    EENTRO =        -0.00000000
  eigenvalues    EBANDS =      -632.63381257
  atomic energy  EATOM  =      4129.26391641
  ---------------------------------------------------
  free energy    TOTEN  =         6.55351429 eV

  energy without entropy =        6.55351429  energy(sigma->0) =        6.55351429


--------------------------------------------------------------------------------------------------------




--------------------------------------- Iteration      1(   3)  ---------------------------------------


    TRIAL :  cpu time      1.4895: real time      1.4898
    CORREC:  cpu time      0.0003: real time      0.0003
    --------------------------------------------
      LOOP:  cpu time      1.5030: real time      1.5199

 eigenvalue-minimisations  :  4784
 total energy-change (2. order) :-0.9744442E+02  (-0.9652742E+02)
 number of electron      68.0000000 magnetization 
 augmentation part       68.0000000 magnetization 

 Free energy of the ion-electron system (eV)
  ---------------------------------------------------
  alpha Z        PSCENC =        81.91423797
  Ewald energy   TEWEN  =     -2364.59881513
  -Hartree energ DENC   =     -1465.29363950
  -exchange      EXHF   =         0.00000000
  -V(xc)+E(xc)   XCENC  =       243.39209247
  PAW double counting   =      3245.06981985    -3230.56028521
  entropy T*S    EENTRO =        -0.00000000
  eigenvalues    EBANDS =      -730.07823613
  atomic energy  EATOM  =      4129.26391641
  ---------------------------------------------------
  free energy    TOTEN  =       -90.89090927 eV

  energy without entropy =      -90.89090927  energy(sigma->0) =      -90.89090927


--------------------------------------------------------------------------------------------------------




--------------------------------------- Iteration      1(   4)  ---------------------------------------


    TRIAL :  cpu time      1.7198: real time      1.7205
    CORREC:  cpu time      0.0003: real time      0.0003
    --------------------------------------------
      LOOP:  cpu time      1.7330: real time      1.7501

 eigenvalue-minimisations  :  5736
 total energy-change (2. order) :-0.3047307E+01  (-0.3035091E+01)
 number of electron      68.0000000 magnetization 
 augmentation part       68.0000000 magnetization 

 Free energy of the ion-electron system (eV)
  ---------------------------------------------------
  alpha Z        PSCENC =        81.91423797
  Ewald energy   TEWEN  =     -2364.59881513
  -Hartree energ DENC   =     -1465.29363950
  -exchange      EXHF   =         0.00000000
  -V(xc)+E(xc)   XCENC  =       243.39209247
  PAW double counting   =      3245.06981985    -3230.56028521
  entropy T*S    EENTRO =        -0.00000000
  eigenvalues    EBANDS =      -733.12554301
  atomic energy  EATOM  =      4129.26391641
  ---------------------------------------------------
  free energy    TOTEN  =       -93.93821615 eV

  energy without entropy =      -93.93821615  energy(sigma->0) =      -93.93821615


--------------------------------------------------------------------------------------------------------




--------------------------------------- Iteration      1(   5)  ---------------------------------------


    TRIAL :  cpu time      1.5804: real time      1.5809
    CORREC:  cpu time      0.0003: real time      0.0003
    CHARGE:  cpu time      0.0976: real time      0.0982
    --------------------------------------------
      LOOP:  cpu time      1.6902: real time      1.7085

 eigenvalue-minimisations  :  5192
 total energy-change (2. order) :-0.7550545E-01  (-0.7545415E-01)
 number of electron      68.0000001 magnetization 
 augmentation part        0.6256093 magnetization 

 Free energy of the ion-electron system (eV)
  ---------------------------------------------------
  alpha Z        PSCENC =        81.91423797
  Ewald energy   TEWEN  =     -2364.59881513
  -Hartree energ DENC   =     -1465.29363950
  -exchange      EXHF   =         0.00000000
  -V(xc)+E(xc)   XCENC  =       243.39209247
  PAW double counting   =      3245.06981985    -3230.56028521
  entropy T*S    EENTRO =        -0.00000000
  eigenvalues    EBANDS =      -733.20104845
  atomic energy  EATOM  =      4129.26391641
  ---------------------------------------------------
  free energy    TOTEN  =       -94.01372160 eV

  energy without entropy =      -94.01372160  energy(sigma->0) =      -94.01372160


--------------------------------------------------------------------------------------------------------




--------------------------------------- Iteration      1(   6)  ---------------------------------------


    POTLOK:  cpu time      0.5900: real time      0.5900
    SETDIJ:  cpu time      0.0644: real time      0.0644
    TRIAL :  cpu time      0.8847: real time      0.8859
    CORREC:  cpu time      1.1902: real time      1.1905
    CHARGE:  cpu time      0.0853: real time      0.0853
    --------------------------------------------
      LOOP:  cpu time      2.8295: real time      2.8439

 eigenvalue-minimisations  :     0
 total energy-change (2. order) : 0.1809342E+02  (-0.9585755E+01)
 number of electron      68.0000001 magnetization 
 augmentation part        0.4325380 magnetization 

 Free energy of the ion-electron system (eV)
  ---------------------------------------------------
  alpha Z        PSCENC =        81.91423797
  Ewald energy   TEWEN  =     -2364.59881513
  -Hartree energ DENC   =     -1765.93460524
  -exchange      EXHF   =         0.00000000
  -V(xc)+E(xc)   XCENC  =       263.46620333
  PAW double counting   =     30010.39583752   -30001.26663798
  entropy T*S    EENTRO =        -0.00000000
  eigenvalues    EBANDS =      -429.16043848
  atomic energy  EATOM  =      4129.26391641
  ---------------------------------------------------
  free energy    TOTEN  =       -75.92030160 eV

  energy without entropy =      -75.92030160  energy(sigma->0) =      -75.92030160


--------------------------------------------------------------------------------------------------------




--------------------------------------- Iteration      1(   7)  ---------------------------------------


    POTLOK:  cpu time      0.5901: real time      0.5903
    SETDIJ:  cpu time      0.0644: real time      0.0644
    TRIAL :  cpu time      0.8479: real time      0.8482
    CORREC:  cpu time      1.1754: real time      1.1757
    CHARGE:  cpu time      0.0854: real time      0.0854
    --------------------------------------------
      LOOP:  cpu time      2.7762: real time      2.7944

 eigenvalue-minimisations  :     0
 total energy-change (2. order) :-0.9611418E+01  (-0.1046603E+01)
 number of electron      68.0000001 magnetization 
 augmentation part        0.3647152 magnetization 

 Free energy of the ion-electron system (eV)
  ---------------------------------------------------
  alpha Z        PSCENC =        81.91423797
  Ewald energy   TEWEN  =     -2364.59881513
  -Hartree energ DENC   =     -1601.47276975
  -exchange      EXHF   =         0.00000000
  -V(xc)+E(xc)   XCENC  =       252.81875914
  PAW double counting   =     37949.04645662   -37937.33011415
  entropy T*S    EENTRO =        -0.00000000
  eigenvalues    EBANDS =      -595.17339072
  atomic energy  EATOM  =      4129.26391641
  ---------------------------------------------------
  free energy    TOTEN  =       -85.53171962 eV

  energy without entropy =      -85.53171962  energy(sigma->0) =      -85.53171962


--------------------------------------------------------------------------------------------------------




--------------------------------------- Iteration      1(   8)  ---------------------------------------


    POTLOK:  cpu time      0.5895: real time      0.5897
    SETDIJ:  cpu time      0.0643: real time      0.0643
    TRIAL :  cpu time      0.8514: real time      0.8516
    CORREC:  cpu time      1.1761: real time      1.1763
    CHARGE:  cpu time      0.0849: real time      0.0849
    --------------------------------------------
      LOOP:  cpu time      2.7788: real time      2.7960

 eigenvalue-minimisations  :     0
 total energy-change (2. order) :-0.1047272E+01  (-0.2819762E+00)
 number of electron      68.0000001 magnetization 
 augmentation part        0.3711247 magnetization 

 Free energy of the ion-electron system (eV)
  ---------------------------------------------------
  alpha Z        PSCENC =        81.91423797
  Ewald energy   TEWEN  =     -2364.59881513
  -Hartree energ DENC   =     -1605.52248109
  -exchange      EXHF   =         0.00000000
  -V(xc)+E(xc)   XCENC  =       252.81864201
  PAW double counting   =     38117.26973076   -38105.17094630
  entropy T*S    EENTRO =        -0.00000000
  eigenvalues    EBANDS =      -592.55327631
  atomic energy  EATOM  =      4129.26391641
  ---------------------------------------------------
  free energy    TOTEN  =       -86.57899169 eV

  energy without entropy =      -86.57899169  energy(sigma->0) =      -86.57899169


--------------------------------------------------------------------------------------------------------




--------------------------------------- Iteration      1(   9)  ---------------------------------------


    POTLOK:  cpu time      0.5891: real time      0.5893
    SETDIJ:  cpu time      0.0654: real time      0.0654
    TRIAL :  cpu time      0.8500: real time      0.8503
    CORREC:  cpu time      1.1837: real time      1.1839
    CHARGE:  cpu time      0.0927: real time      0.0927
    --------------------------------------------
      LOOP:  cpu time      2.7940: real time      2.8114

 eigenvalue-minimisations  :     0
 total energy-change (2. order) :-0.2819915E+00  (-0.8806388E-01)
 number of electron      68.0000001 magnetization 
 augmentation part        0.3785057 magnetization 

 Free energy of the ion-electron system (eV)
  ---------------------------------------------------
  alpha Z        PSCENC =        81.91423797
  Ewald energy   TEWEN  =     -2364.59881513
  -Hartree energ DENC   =     -1606.48270796
  -exchange      EXHF   =         0.00000000
  -V(xc)+E(xc)   XCENC  =       252.83695070
  PAW double counting   =     38445.42148576   -38433.33212566
  entropy T*S    EENTRO =        -0.00000000
  eigenvalues    EBANDS =      -591.88392532
  atomic energy  EATOM  =      4129.26391641
  ---------------------------------------------------
  free energy    TOTEN  =       -86.86098323 eV

  energy without entropy =      -86.86098323  energy(sigma->0) =      -86.86098323


--------------------------------------------------------------------------------------------------------




--------------------------------------- Iteration      1(  10)  ---------------------------------------


    POTLOK:  cpu time      0.6124: real time      0.6125
    SETDIJ:  cpu time      0.0641: real time      0.0643
    TRIAL :  cpu time      0.8499: real time      0.8499
    CORREC:  cpu time      1.1772: real time      1.1777
    CHARGE:  cpu time      0.0851: real time      0.0851
    --------------------------------------------
      LOOP:  cpu time      2.8019: real time      2.8209

 eigenvalue-minimisations  :     0
 total energy-change (2. order) :-0.8793667E-01  (-0.2494985E-01)
 number of electron      68.0000001 magnetization 
 augmentation part        0.3813541 magnetization 

 Free energy of the ion-electron system (eV)
  ---------------------------------------------------
  alpha Z        PSCENC =        81.91423797
  Ewald energy   TEWEN  =     -2364.59881513
  -Hartree energ DENC   =     -1602.06472769
  -exchange      EXHF   =         0.00000000
  -V(xc)+E(xc)   XCENC  =       252.56215767
  PAW double counting   =     38170.16573383   -38158.09169346
  entropy T*S    EENTRO =        -0.00000000
  eigenvalues    EBANDS =      -596.09972950
  atomic energy  EATOM  =      4129.26391641
  ---------------------------------------------------
  free energy    TOTEN  =       -86.94891990 eV

  energy without entropy =      -86.94891990  energy(sigma->0) =      -86.94891990


--------------------------------------------------------------------------------------------------------




--------------------------------------- Iteration      1(  11)  ---------------------------------------


    POTLOK:  cpu time      0.6147: real time      0.6147
    SETDIJ:  cpu time      0.0643: real time      0.0643
    TRIAL :  cpu time      0.8490: real time      0.8493
    CORREC:  cpu time      1.1743: real time      1.1746
    CHARGE:  cpu time      0.0845: real time      0.0845
    --------------------------------------------
      LOOP:  cpu time      2.7982: real time      2.8183

 eigenvalue-minimisations  :     0
 total energy-change (2. order) :-0.2494976E-01  (-0.6892394E-02)
 number of electron      68.0000001 magnetization 
 augmentation part        0.3815466 magnetization 

 Free energy of the ion-electron system (eV)
  ---------------------------------------------------
  alpha Z        PSCENC =        81.91423797
  Ewald energy   TEWEN  =     -2364.59881513
  -Hartree energ DENC   =     -1602.26786408
  -exchange      EXHF   =         0.00000000
  -V(xc)+E(xc)   XCENC  =       252.56485702
  PAW double counting   =     37894.57382779   -37882.52620876
  entropy T*S    EENTRO =        -0.00000000
  eigenvalues    EBANDS =      -595.89782088
  atomic energy  EATOM  =      4129.26391641
  ---------------------------------------------------
  free energy    TOTEN  =       -86.97386966 eV

  energy without entropy =      -86.97386966  energy(sigma->0) =      -86.97386966


--------------------------------------------------------------------------------------------------------




--------------------------------------- Iteration      1(  12)  ---------------------------------------


    POTLOK:  cpu time      0.5892: real time      0.5892
    SETDIJ:  cpu time      0.0644: real time      0.0644
    TRIAL :  cpu time      0.8472: real time      0.8474
    CORREC:  cpu time      1.1760: real time      1.1763
    CHARGE:  cpu time      0.0851: real time      0.0851
    --------------------------------------------
      LOOP:  cpu time      2.7910: real time      2.7919

 eigenvalue-minimisations  :     0
 total energy-change (2. order) :-0.6891589E-02  (-0.1839157E-02)
 number of electron      68.0000001 magnetization 
 augmentation part        0.3807816 magnetization 

 Free energy of the ion-electron system (eV)
  ---------------------------------------------------
  alpha Z        PSCENC =        81.91423797
  Ewald energy   TEWEN  =     -2364.59881513
  -Hartree energ DENC   =     -1601.83537005
  -exchange      EXHF   =         0.00000000
  -V(xc)+E(xc)   XCENC  =       252.53466871
  PAW double counting   =     38029.34876171   -38017.29840415
  entropy T*S    EENTRO =        -0.00000000
  eigenvalues    EBANDS =      -596.30975672
  atomic energy  EATOM  =      4129.26391641
  ---------------------------------------------------
  free energy    TOTEN  =       -86.98076125 eV

  energy without entropy =      -86.98076125  energy(sigma->0) =      -86.98076125


--------------------------------------------------------------------------------------------------------




--------------------------------------- Iteration      1(  13)  ---------------------------------------


    POTLOK:  cpu time      0.5894: real time      0.5897
    SETDIJ:  cpu time      0.0645: real time      0.0645
    TRIAL :  cpu time      0.8485: real time      0.8487
    CORREC:  cpu time      1.1739: real time      1.1742
    CHARGE:  cpu time      0.0849: real time      0.0849
    --------------------------------------------
      LOOP:  cpu time      2.7727: real time      2.7912

 eigenvalue-minimisations  :     0
 total energy-change (2. order) :-0.1837920E-02  (-0.4887583E-03)
 number of electron      68.0000001 magnetization 
 augmentation part        0.3806235 magnetization 

 Free energy of the ion-electron system (eV)
  ---------------------------------------------------
  alpha Z        PSCENC =        81.91423797
  Ewald energy   TEWEN  =     -2364.59881513
  -Hartree energ DENC   =     -1601.46900027
  -exchange      EXHF   =         0.00000000
  -V(xc)+E(xc)   XCENC  =       252.51525832
  PAW double counting   =     38131.99664012   -38119.93965776
  entropy T*S    EENTRO =        -0.00000000
  eigenvalues    EBANDS =      -596.66517882
  atomic energy  EATOM  =      4129.26391641
  ---------------------------------------------------
  free energy    TOTEN  =       -86.98259917 eV

  energy without entropy =      -86.98259917  energy(sigma->0) =      -86.98259917


--------------------------------------------------------------------------------------------------------




--------------------------------------- Iteration      1(  14)  ---------------------------------------


    POTLOK:  cpu time      0.5891: real time      0.5893
    SETDIJ:  cpu time      0.0644: real time      0.0644
    TRIAL :  cpu time      0.8471: real time      0.8474
    CORREC:  cpu time      1.1737: real time      1.1740
    CHARGE:  cpu time      0.0851: real time      0.0851
    --------------------------------------------
      LOOP:  cpu time      2.7722: real time      2.7901

 eigenvalue-minimisations  :     0
 total energy-change (2. order) :-0.4881538E-03  (-0.1543366E-03)
 number of electron      68.0000001 magnetization 
 augmentation part        0.3806639 magnetization 

 Free energy of the ion-electron system (eV)
  ---------------------------------------------------
  alpha Z        PSCENC =        81.91423797
  Ewald energy   TEWEN  =     -2364.59881513
  -Hartree energ DENC   =     -1601.49313973
  -exchange      EXHF   =         0.00000000
  -V(xc)+E(xc)   XCENC  =       252.51666172
  PAW double counting   =     38115.26833146   -38103.21154871
  entropy T*S    EENTRO =        -0.00000000
  eigenvalues    EBANDS =      -596.64273131
  atomic energy  EATOM  =      4129.26391641
  ---------------------------------------------------
  free energy    TOTEN  =       -86.98308732 eV

  energy without entropy =      -86.98308732  energy(sigma->0) =      -86.98308732


--------------------------------------------------------------------------------------------------------




--------------------------------------- Iteration      1(  15)  ---------------------------------------


    POTLOK:  cpu time      0.5895: real time      0.5895
    SETDIJ:  cpu time      0.0642: real time      0.0644
    TRIAL :  cpu time      0.8471: real time      0.8471
    CORREC:  cpu time      1.1791: real time      1.1798
    CHARGE:  cpu time      0.0938: real time      0.0938
    --------------------------------------------
      LOOP:  cpu time      2.8045: real time      2.8057

 eigenvalue-minimisations  :     0
 total energy-change (2. order) :-0.1547662E-03  (-0.5858007E-04)
 number of electron      68.0000001 magnetization 
 augmentation part        0.3806726 magnetization 

 Free energy of the ion-electron system (eV)
  ---------------------------------------------------
  alpha Z        PSCENC =        81.91423797
  Ewald energy   TEWEN  =     -2364.59881513
  -Hartree energ DENC   =     -1601.47476390
  -exchange      EXHF   =         0.00000000
  -V(xc)+E(xc)   XCENC  =       252.51444183
  PAW double counting   =     38078.54482669   -38066.48863690
  entropy T*S    EENTRO =        -0.00000000
  eigenvalues    EBANDS =      -596.65844906
  atomic energy  EATOM  =      4129.26391641
  ---------------------------------------------------
  free energy    TOTEN  =       -86.98324209 eV

  energy without entropy =      -86.98324209  energy(sigma->0) =      -86.98324209


--------------------------------------------------------------------------------------------------------




--------------------------------------- Iteration      1(  16)  ---------------------------------------


    POTLOK:  cpu time      0.7140: real time      0.7140
    SETDIJ:  cpu time      0.0644: real time      0.0644
    TRIAL :  cpu time      0.9067: real time      0.9070
    CORREC:  cpu time      1.2088: real time      1.2092
    CHARGE:  cpu time      0.0854: real time      0.0854
    --------------------------------------------
      LOOP:  cpu time      2.9929: real time      3.0083

 eigenvalue-minimisations  :     0
 total energy-change (2. order) :-0.5871458E-04  (-0.2471099E-04)
 number of electron      68.0000001 magnetization 
 augmentation part        0.3805742 magnetization 

 Free energy of the ion-electron system (eV)
  ---------------------------------------------------
  alpha Z        PSCENC =        81.91423797
  Ewald energy   TEWEN  =     -2364.59881513
  -Hartree energ DENC   =     -1601.50347958
  -exchange      EXHF   =         0.00000000
  -V(xc)+E(xc)   XCENC  =       252.51608072
  PAW double counting   =     38062.68289978   -38050.62714767
  entropy T*S    EENTRO =        -0.00000000
  eigenvalues    EBANDS =      -596.63099329
  atomic energy  EATOM  =      4129.26391641
  ---------------------------------------------------
  free energy    TOTEN  =       -86.98330080 eV

  energy without entropy =      -86.98330080  energy(sigma->0) =      -86.98330080


--------------------------------------------------------------------------------------------------------




--------------------------------------- Iteration      1(  17)  ---------------------------------------


    POTLOK:  cpu time      0.5896: real time      0.5897
    SETDIJ:  cpu time      0.0643: real time      0.0643
    TRIAL :  cpu time      0.8478: real time      0.8480
    CORREC:  cpu time      1.1757: real time      1.1759
    CHARGE:  cpu time      0.0849: real time      0.0849
    --------------------------------------------
      LOOP:  cpu time      2.7743: real time      2.7929

 eigenvalue-minimisations  :     0
 total energy-change (2. order) :-0.2449214E-04  (-0.8831884E-05)
 number of electron      68.0000001 magnetization 
 augmentation part        0.3804794 magnetization 

 Free energy of the ion-electron system (eV)
  ---------------------------------------------------
  alpha Z        PSCENC =        81.91423797
  Ewald energy   TEWEN  =     -2364.59881513
  -Hartree energ DENC   =     -1601.51821696
  -exchange      EXHF   =         0.00000000
  -V(xc)+E(xc)   XCENC  =       252.51697142
  PAW double counting   =     38070.20689622   -38058.15060667
  entropy T*S    EENTRO =        -0.00000000
  eigenvalues    EBANDS =      -596.61770856
  atomic energy  EATOM  =      4129.26391641
  ---------------------------------------------------
  free energy    TOTEN  =       -86.98332530 eV

  energy without entropy =      -86.98332530  energy(sigma->0) =      -86.98332530


--------------------------------------------------------------------------------------------------------




--------------------------------------- Iteration      1(  18)  ---------------------------------------


    POTLOK:  cpu time      0.5896: real time      0.5898
    SETDIJ:  cpu time      0.0644: real time      0.0644
    TRIAL :  cpu time      0.8476: real time      0.8478
    CORREC:  cpu time      1.1754: real time      1.1756
    CHARGE:  cpu time      0.0844: real time      0.0844
    --------------------------------------------
      LOOP:  cpu time      2.7915: real time      2.7923

 eigenvalue-minimisations  :     0
 total energy-change (2. order) :-0.8662792E-05  (-0.2596906E-05)
 number of electron      68.0000001 magnetization 
 augmentation part        0.3804712 magnetization 

 Free energy of the ion-electron system (eV)
  ---------------------------------------------------
  alpha Z        PSCENC =        81.91423797
  Ewald energy   TEWEN  =     -2364.59881513
  -Hartree energ DENC   =     -1601.51985243
  -exchange      EXHF   =         0.00000000
  -V(xc)+E(xc)   XCENC  =       252.51689207
  PAW double counting   =     38082.45178459   -38070.39480220
  entropy T*S    EENTRO =        -0.00000000
  eigenvalues    EBANDS =      -596.61669523
  atomic energy  EATOM  =      4129.26391641
  ---------------------------------------------------
  free energy    TOTEN  =       -86.98333396 eV

  energy without entropy =      -86.98333396  energy(sigma->0) =      -86.98333396


--------------------------------------------------------------------------------------------------------




--------------------------------------- Iteration      1(  19)  ---------------------------------------


    POTLOK:  cpu time      0.5896: real time      0.5898
    SETDIJ:  cpu time      0.0644: real time      0.0644
    TRIAL :  cpu time      0.8470: real time      0.8472
    CORREC:  cpu time      1.1739: real time      1.1742
    CHARGE:  cpu time      0.0867: real time      0.0867
    --------------------------------------------
      LOOP:  cpu time      2.7763: real time      2.7932

 eigenvalue-minimisations  :     0
 total energy-change (2. order) :-0.2544053E-05  (-0.7127476E-06)
 number of electron      68.0000001 magnetization 
 augmentation part        0.3804654 magnetization 

 Free energy of the ion-electron system (eV)
  ---------------------------------------------------
  alpha Z        PSCENC =        81.91423797
  Ewald energy   TEWEN  =     -2364.59881513
  -Hartree energ DENC   =     -1601.53399511
  -exchange      EXHF   =         0.00000000
  -V(xc)+E(xc)   XCENC  =       252.51779227
  PAW double counting   =     38087.11670924   -38075.05973856
  entropy T*S    EENTRO =        -0.00000000
  eigenvalues    EBANDS =      -596.60344359
  atomic energy  EATOM  =      4129.26391641
  ---------------------------------------------------
  free energy    TOTEN  =       -86.98333650 eV

  energy without entropy =      -86.98333650  energy(sigma->0) =      -86.98333650


--------------------------------------------------------------------------------------------------------




--------------------------------------- Iteration      1(  20)  ---------------------------------------


    POTLOK:  cpu time      0.5902: real time      0.5905
    SETDIJ:  cpu time      0.0644: real time      0.0644
    TRIAL :  cpu time      0.8474: real time      0.8476
    CORREC:  cpu time      1.1751: real time      1.1753
    CHARGE:  cpu time      0.0847: real time      0.0847
    --------------------------------------------
      LOOP:  cpu time      2.7756: real time      2.7912

 eigenvalue-minimisations  :     0
 total energy-change (2. order) :-0.7176423E-06  (-0.2159002E-06)
 number of electron      68.0000001 magnetization 
 augmentation part        0.3804710 magnetization 

 Free energy of the ion-electron system (eV)
  ---------------------------------------------------
  alpha Z        PSCENC =        81.91423797
  Ewald energy   TEWEN  =     -2364.59881513
  -Hartree energ DENC   =     -1601.52735665
  -exchange      EXHF   =         0.00000000
  -V(xc)+E(xc)   XCENC  =       252.51737764
  PAW double counting   =     38087.09611344   -38075.03907758
  entropy T*S    EENTRO =        -0.00000000
  eigenvalues    EBANDS =      -596.60973331
  atomic energy  EATOM  =      4129.26391641
  ---------------------------------------------------
  free energy    TOTEN  =       -86.98333722 eV

  energy without entropy =      -86.98333722  energy(sigma->0) =      -86.98333722


--------------------------------------------------------------------------------------------------------




--------------------------------------- Iteration      1(  21)  ---------------------------------------


    POTLOK:  cpu time      0.5900: real time      0.5900
    SETDIJ:  cpu time      0.0642: real time      0.0644
    TRIAL :  cpu time      0.8490: real time      0.8490
    CORREC:  cpu time      1.1992: real time      1.1997
    CHARGE:  cpu time      0.0844: real time      0.0844
    --------------------------------------------
      LOOP:  cpu time      2.8011: real time      2.8166

 eigenvalue-minimisations  :     0
 total energy-change (2. order) :-0.2208399E-06  (-0.7388066E-07)
 number of electron      68.0000001 magnetization 
 augmentation part        0.3804718 magnetization 

 Free energy of the ion-electron system (eV)
  ---------------------------------------------------
  alpha Z        PSCENC =        81.91423797
  Ewald energy   TEWEN  =     -2364.59881513
  -Hartree energ DENC   =     -1601.52816753
  -exchange      EXHF   =         0.00000000
  -V(xc)+E(xc)   XCENC  =       252.51742282
  PAW double counting   =     38085.79391231   -38073.73693080
  entropy T*S    EENTRO =        -0.00000000
  eigenvalues    EBANDS =      -596.60891348
  atomic energy  EATOM  =      4129.26391641
  ---------------------------------------------------
  free energy    TOTEN  =       -86.98333744 eV

  energy without entropy =      -86.98333744  energy(sigma->0) =      -86.98333744


--------------------------------------------------------------------------------------------------------




--------------------------------------- Iteration      1(  22)  ---------------------------------------


    POTLOK:  cpu time      0.5899: real time      0.5899
    SETDIJ:  cpu time      0.0643: real time      0.0643
    TRIAL :  cpu time      0.8838: real time      0.8841
    CORREC:  cpu time      1.1747: real time      1.1749
    EDDIAG:  cpu time      0.4610: real time      0.4618
    CHARGE:  cpu time      0.0836: real time      0.0836
    --------------------------------------------
      LOOP:  cpu time      3.2705: real time      3.2893

 eigenvalue-minimisations  :     0
 total energy-change (2. order) :-0.7588824E-07  (-0.2960029E-07)
 number of electron      68.0000001 magnetization 
 augmentation part        0.3804714 magnetization 

 Free energy of the ion-electron system (eV)
  ---------------------------------------------------
  alpha Z        PSCENC =        81.91423797
  Ewald energy   TEWEN  =     -2364.59881513
  -Hartree energ DENC   =     -1601.52714535
  -exchange      EXHF   =         0.00000000
  -V(xc)+E(xc)   XCENC  =       252.51735973
  PAW double counting   =     38084.92207468   -38072.86509715
  entropy T*S    EENTRO =        -0.00000000
  eigenvalues    EBANDS =      -596.60986867
  atomic energy  EATOM  =      4129.26391641
  ---------------------------------------------------
  free energy    TOTEN  =       -86.98333752 eV

  energy without entropy =      -86.98333752  energy(sigma->0) =      -86.98333752


--------------------------------------------------------------------------------------------------------


  average scaling for gradient   0.7294


 average (electrostatic) potential at core
  the test charge radii are     0.5770  0.4325  0.5955
  (the norm of the test charge is              1.0000)
       1 -84.4270       2 -84.4270       3 -84.4270       4 -84.4270       5 -42.1276
       6 -42.1276       7 -42.1276       8 -42.1276       9-114.0535      10-114.9832
      11-114.0535      12-114.9832      13-114.0535      14-114.0536      15-114.9832
      16-114.9832



 E-fermi :  -0.3464     XC(G=0):  -8.9463     alpha+bet : -7.5594

 Fermi energy:        -0.3464200151

 k-point     1 :       0.0000    0.0000    0.0000
  band No.  band energies     occupation 
      1     -22.5361      2.00000
      2     -22.3190      2.00000
      3     -21.4822      2.00000
      4     -21.4598      2.00000
      5     -20.1040      2.00000
      6     -20.0842      2.00000
      7     -19.3719      2.00000
[...]
     23      -4.5658      2.00000
     24      -4.4589      2.00000
     25      -3.0474      2.00000
     26      -2.9332      2.00000
     27      -2.3253      2.00000
     28      -2.0008      2.00000
     29      -1.9642      2.00000
     30      -1.8698      2.00000
     31      -1.8256      2.00000
     32      -1.7553      2.00000
     33      -0.6456      2.00000
     34      -0.6306      2.00000
     35       3.2313      0.00000
     36       3.3398      0.00000
     37       6.5361      0.00000
     38       6.5776      0.00000
     39       7.6109      0.00000
     40       8.5235      0.00000
     41       9.4113      0.00000
     42       9.7775      0.00000
     43      10.6329      0.00000
     44      10.9027      0.00000

 k-point    42 :      -0.1667    0.2500    0.4000
  band No.  band energies     occupation 
      1     -22.4081      2.00000
      2     -22.3287      2.00000
      3     -21.5612      2.00000
      4     -21.5280      2.00000
      5     -20.0754      2.00000
      6     -20.0700      2.00000
      7     -19.4089      2.00000
      8     -19.4071      2.00000
      9     -11.9670      2.00000
     10     -11.9560      2.00000
     11      -9.3850      2.00000
     12      -9.3682      2.00000
     13      -7.2749      2.00000
     14      -7.2002      2.00000
     15      -6.7169      2.00000
     16      -6.6419      2.00000
     17      -6.1097      2.00000
     18      -5.8934      2.00000
     19      -5.7103      2.00000
     20      -5.3740      2.00000
     21      -4.6378      2.00000
     22      -4.5511      2.00000
     23      -4.3627      2.00000
     24      -4.2547      2.00000
     25      -3.3788      2.00000
     26      -3.2206      2.00000
     27      -2.3386      2.00000
     28      -2.0292      2.00000
     29      -1.9583      2.00000
     30      -1.9109      2.00000
     31      -1.8350      2.00000
     32      -1.7657      2.00000
     33      -0.7921      2.00000
     34      -0.7342      2.00000
     35       3.0315      0.00000
     36       3.1376      0.00000
     37       6.7104      0.00000
     38       6.7602      0.00000
     39       7.5964      0.00000
     40       8.6418      0.00000
     41       9.2722      0.00000
     42       9.3018      0.00000
     43      10.3670      0.00000
     44      10.6618      0.00000

 k-point    43 :       0.0000    0.5000    0.4000
  band No.  band energies     occupation 
      1     -22.4107      2.00000
      2     -22.4107      2.00000
      3     -21.4880      2.00000
      4     -21.4880      2.00000
      5     -20.1185      2.00000
      6     -20.1185      2.00000
      7     -19.3442      2.00000
      8     -19.3442      2.00000
      9     -12.1250      2.00000
     10     -12.1250      2.00000
     11      -9.4183      2.00000
     12      -9.4183      2.00000
     13      -6.9220      2.00000
     14      -6.9220      2.00000
     15      -6.8000      2.00000
     16      -6.8000      2.00000
     17      -5.9845      2.00000
     18      -5.9845      2.00000
     19      -5.5826      2.00000
     20      -5.5825      2.00000
     21      -4.5025      2.00000
     22      -4.5025      2.00000
     23      -3.9025      2.00000
     24      -3.9024      2.00000
     25      -3.6197      2.00000
     26      -3.6197      2.00000
     27      -2.1914      2.00000
     28      -2.1914      2.00000
     29      -2.0249      2.00000
     30      -2.0249      2.00000
     31      -1.8069      2.00000
     32      -1.8069      2.00000
     33      -0.7443      2.00000
     34      -0.7443      2.00000
     35       2.9480      0.00000
     36       2.9480      0.00000
     37       6.8184      0.00000
     38       6.8184      0.00000
     39       8.1987      0.00000
     40       8.1996      0.00000
     41       9.1781      0.00000
     42       9.1898      0.00000
     43      10.1374      0.00000
     44      10.2436      0.00000

 k-point    44 :       0.1667    0.5000    0.4000
  band No.  band energies     occupation 
      1     -22.3612      2.00000
      2     -22.3612      2.00000
      3     -21.5522      2.00000
      4     -21.5521      2.00000
      5     -20.0816      2.00000
      6     -20.0816      2.00000
      7     -19.4004      2.00000
      8     -19.4004      2.00000
      9     -11.9580      2.00000
     10     -11.9580      2.00000
     11      -9.3848      2.00000
     12      -9.3848      2.00000
     13      -7.2101      2.00000
     14      -7.2101      2.00000
     15      -6.6769      2.00000
     16      -6.6769      2.00000
     17      -5.9233      2.00000
     18      -5.9233      2.00000
     19      -5.7120      2.00000
     20      -5.7120      2.00000
     21      -4.5879      2.00000
     22      -4.5879      2.00000
     23      -4.2755      2.00000
     24      -4.2755      2.00000
     25      -3.2466      2.00000
     26      -3.2466      2.00000
     27      -2.1098      2.00000
     28      -2.1098      2.00000
     29      -1.9723      2.00000
     30      -1.9723      2.00000
     31      -1.8370      2.00000
     32      -1.8370      2.00000
     33      -0.7560      2.00000
     34      -0.7560      2.00000
     35       3.0200      0.00000
     36       3.0200      0.00000
     37       6.7526      0.00000
     38       6.7526      0.00000
     39       8.4930      0.00000
     40       8.4934      0.00000
     41       9.0736      0.00000
     42       9.0760      0.00000
     43       9.8431      0.00000
     44       9.8701      0.00000

 k-point    45 :       0.3333    0.5000    0.4000
  band No.  band energies     occupation 
      1     -22.2386      2.00000
      2     -22.2386      2.00000
      3     -21.7040      2.00000
      4     -21.7040      2.00000
      5     -19.9648      2.00000
      6     -19.9647      2.00000
      7     -19.5539      2.00000
      8     -19.5539      2.00000
      9     -11.5594      2.00000
     10     -11.5594      2.00000
     11      -9.4137      2.00000
     12      -9.4137      2.00000
     13      -7.5657      2.00000
     14      -7.5657      2.00000
     15      -6.5457      2.00000
     16      -6.5457      2.00000
     17      -6.0573      2.00000
     18      -6.0573      2.00000
     19      -5.7219      2.00000
     20      -5.7219      2.00000
     21      -4.8663      2.00000
     22      -4.8663      2.00000
     23      -4.5096      2.00000
     24      -4.5096      2.00000
     25      -2.9535      2.00000
     26      -2.9535      2.00000
     27      -2.0334      2.00000
     28      -2.0334      2.00000
     29      -2.0121      2.00000
     30      -2.0121      2.00000
     31      -1.8299      2.00000
     32      -1.8298      2.00000
     33      -0.6388      2.00000
     34      -0.6388      2.00000
     35       3.2310      0.00000
     36       3.2310      0.00000
     37       6.5759      0.00000
     38       6.5759      0.00000
     39       8.5991      0.00000
     40       8.5991      0.00000
     41       9.0908      0.00000
     42       9.0920      0.00000
     43       9.9963      0.00000
     44      10.0013      0.00000

 k-point    46 :       0.5000    0.5000    0.4000
  band No.  band energies     occupation 
      1     -22.1473      2.00000
      2     -22.1473      2.00000
      3     -21.8101      2.00000
      4     -21.8101      2.00000
      5     -19.8147      2.00000
      6     -19.8147      2.00000
      7     -19.7214      2.00000
      8     -19.7214      2.00000
      9     -11.3014      2.00000
     10     -11.3014      2.00000
     11      -9.5279      2.00000
     12      -9.5279      2.00000
     13      -7.6364      2.00000
     14      -7.6364      2.00000
     15      -6.4861      2.00000
     16      -6.4861      2.00000
     17      -6.3014      2.00000
     18      -6.3014      2.00000
     19      -5.5600      2.00000
     20      -5.5600      2.00000
     21      -5.0023      2.00000
     22      -5.0022      2.00000
     23      -4.6204      2.00000
     24      -4.6204      2.00000
     25      -2.8491      2.00000
     26      -2.8490      2.00000
     27      -2.1110      2.00000
     28      -2.1110      2.00000
     29      -1.9740      2.00000
     30      -1.9740      2.00000
     31      -1.8505      2.00000
     32      -1.8505      2.00000
     33      -0.5170      2.00000
     34      -0.5170      2.00000
     35       3.3760      0.00000
     36       3.3760      0.00000
     37       6.4579      0.00000
     38       6.4579      0.00000
     39       8.3327      0.00000
     40       8.3327      0.00000
     41       9.2883      0.00000
     42       9.2950      0.00000
     43      10.5639      0.00000
     44      10.7806      0.00000

 k-point    47 :      -0.3333    0.5000    0.4000
  band No.  band energies     occupation 
      1     -22.2491      2.00000
      2     -22.2491      2.00000
      3     -21.6930      2.00000
      4     -21.6930      2.00000
      5     -19.9507      2.00000
      6     -19.9507      2.00000
      7     -19.5678      2.00000
      8     -19.5678      2.00000
      9     -11.5640      2.00000
     10     -11.5640      2.00000
     11      -9.4052      2.00000
     12      -9.4052      2.00000
     13      -7.5732      2.00000
     14      -7.5732      2.00000
     15      -6.4626      2.00000
     16      -6.4626      2.00000
     17      -6.2640      2.00000
     18      -6.2640      2.00000
     19      -5.5414      2.00000
     20      -5.5414      2.00000
     21      -4.8832      2.00000
     22      -4.8832      2.00000
     23      -4.5436      2.00000
     24      -4.5436      2.00000
     25      -2.9709      2.00000
     26      -2.9709      2.00000
     27      -2.1709      2.00000
     28      -2.1709      2.00000
     29      -1.9241      2.00000
     30      -1.9241      2.00000
     31      -1.7822      2.00000
     32      -1.7822      2.00000
     33      -0.6448      2.00000
     34      -0.6448      2.00000
     35       3.2942      0.00000
     36       3.2943      0.00000
     37       6.5335      0.00000
     38       6.5335      0.00000
     39       8.3212      0.00000
     40       8.3214      0.00000
     41       9.1946      0.00000
     42       9.1955      0.00000
     43      10.7821      0.00000
     44      10.8910      0.00000

 k-point    48 :      -0.1667    0.5000    0.4000
  band No.  band energies     occupation 
      1     -22.3682      2.00000
      2     -22.3682      2.00000
      3     -21.5445      2.00000
      4     -21.5444      2.00000
      5     -20.0736      2.00000
      6     -20.0736      2.00000
      7     -19.4083      2.00000
      8     -19.4082      2.00000
      9     -11.9611      2.00000
     10     -11.9611      2.00000
     11      -9.3771      2.00000
     12      -9.3770      2.00000
     13      -7.2704      2.00000
     14      -7.2704      2.00000
     15      -6.5762      2.00000
     16      -6.5762      2.00000
     17      -6.0539      2.00000
     18      -6.0539      2.00000
     19      -5.5847      2.00000
     20      -5.5847      2.00000
     21      -4.6349      2.00000
     22      -4.6349      2.00000
     23      -4.2641      2.00000
     24      -4.2641      2.00000
     25      -3.2654      2.00000
     26      -3.2653      2.00000
     27      -2.2109      2.00000
     28      -2.2109      2.00000
     29      -1.9279      2.00000
     30      -1.9279      2.00000
     31      -1.7844      2.00000
     32      -1.7844      2.00000
     33      -0.7633      2.00000
     34      -0.7633      2.00000
     35       3.0786      0.00000
     36       3.0786      0.00000
     37       6.7157      0.00000
     38       6.7157      0.00000
     39       8.2745      0.00000
     40       8.2751      0.00000
     41       9.1334      0.00000
     42       9.1355      0.00000
     43      10.3181      0.00000
     44      10.3524      0.00000


--------------------------------------------------------------------------------------------------------


 soft charge-density along one line, spin component           1
         0         1         2         3         4         5         6         7         8         9
 total charge-density along one line

 pseudopotential strength for first ion, spin component:           1
 12.627  21.249  -0.003   0.004   0.009  -0.005   0.008   0.016
 21.249  35.755  -0.005   0.008   0.015  -0.008   0.014   0.026
 -0.003  -0.005  -3.177  -0.004   0.001  -5.692  -0.007   0.002
  0.004   0.008  -0.004  -3.174  -0.001  -0.007  -5.686  -0.002
  0.009   0.015   0.001  -0.001  -3.168   0.002  -0.002  -5.676
 -0.005  -0.008  -5.692  -0.007   0.002 -10.175  -0.013   0.003
  0.008   0.014  -0.007  -5.686  -0.002  -0.013 -10.166  -0.003
  0.016   0.026   0.002  -0.002  -5.676   0.003  -0.003 -10.147
 total augmentation occupancy for first ion, spin component:           1
  8.070  -3.028   0.489  -0.571   1.768  -0.217   0.253  -0.814
 -3.028   1.262  -0.213   0.243  -0.905   0.096  -0.112   0.392
  0.489  -0.213   4.791  -3.041   0.512  -1.583   1.294  -0.215
 -0.571   0.243  -3.041   7.087  -0.607   1.294  -2.561   0.258
  1.768  -0.905   0.512  -0.607   6.259  -0.215   0.258  -2.077
 -0.217   0.096  -1.583   1.294  -0.215   0.554  -0.543   0.092
  0.253  -0.112   1.294  -2.561   0.258  -0.543   0.964  -0.112
 -0.814   0.392  -0.215   0.258  -2.077   0.092  -0.112   0.725


------------------------ aborting loop because EDIFF is reached ----------------------------------------


    FORLOC:  cpu time      0.0032: real time      0.0032
    FORNL :  cpu time      0.2792: real time      0.2792
    FORCOR:  cpu time      0.6543: real time      0.6546
    OFIELD:  cpu time      0.0027: real time      0.0028

 VOLUME and BASIS-vectors are now :
 -----------------------------------------------------------------------------
  energy-cutoff  :     1000.00
  volume of cell :      156.87
      direct lattice vectors                 reciprocal lattice vectors
     5.330000000  0.000000000  0.000000000     0.187617261 -0.000000000  0.090819072
     0.000000000  6.015000000  0.000000000     0.000000000  0.166251039 -0.000000000
    -2.368480000  0.000000000  4.892890000     0.000000000  0.000000000  0.204378190

  length of vectors
     5.330000000  6.015000000  5.435997614     0.208442655  0.166251039  0.204378190


 FORCES acting on ions:
    Electron-Ion                     Ewald-Force                    Non-Local-Force
 -----------------------------------------------------------------------------------------------
   0.553E+02 0.128E+02 -.111E+02   -.601E+02 -.109E+02 0.803E+01   0.482E+01 -.205E+01 0.317E+01
   -.553E+02 -.128E+02 0.111E+02   0.601E+02 0.109E+02 -.803E+01   -.482E+01 0.205E+01 -.317E+01
   -.553E+02 0.128E+02 0.111E+02   0.601E+02 -.109E+02 -.803E+01   -.482E+01 -.205E+01 -.317E+01
   0.553E+02 -.128E+02 -.111E+02   -.601E+02 0.109E+02 0.803E+01   0.482E+01 0.205E+01 0.317E+01
   -.517E+02 0.338E+01 -.104E+02   0.584E+02 -.329E+01 0.103E+02   -.678E+01 -.841E-01 0.642E-01
   0.517E+02 -.338E+01 0.104E+02   -.584E+02 0.329E+01 -.103E+02   0.678E+01 0.841E-01 -.642E-01
   0.517E+02 0.338E+01 0.104E+02   -.584E+02 -.329E+01 -.103E+02   0.678E+01 -.841E-01 -.642E-01
   -.517E+02 -.338E+01 -.104E+02   0.584E+02 0.329E+01 0.103E+02   -.678E+01 0.841E-01 0.642E-01
   -.790E+02 -.929E+02 0.154E+03   0.970E+02 0.119E+03 -.192E+03   -.181E+02 -.261E+02 0.376E+02
   -.308E+02 0.909E+02 -.151E+03   0.145E+02 -.116E+03 0.189E+03   0.164E+02 0.252E+02 -.373E+02
   0.790E+02 0.929E+02 -.154E+03   -.970E+02 -.119E+03 0.192E+03   0.181E+02 0.261E+02 -.376E+02
   0.308E+02 -.909E+02 0.151E+03   -.145E+02 0.116E+03 -.189E+03   -.164E+02 -.252E+02 0.373E+02
   0.790E+02 -.929E+02 -.154E+03   -.970E+02 0.119E+03 0.192E+03   0.181E+02 -.261E+02 -.376E+02
   -.790E+02 0.929E+02 0.154E+03   0.970E+02 -.119E+03 -.192E+03   -.181E+02 0.261E+02 0.376E+02
   0.308E+02 0.909E+02 0.151E+03   -.145E+02 -.116E+03 -.189E+03   -.164E+02 0.252E+02 0.373E+02
   -.308E+02 -.909E+02 -.151E+03   0.145E+02 0.116E+03 0.189E+03   0.164E+02 -.252E+02 -.373E+02
 -----------------------------------------------------------------------------------------------
   -.251E-02 -.459E-02 0.561E-02   -.533E-13 0.142E-13 0.568E-13   -.355E-14 0.000E+00 0.142E-13


 POSITION                                       TOTAL-FORCE (eV/Angst)
 -----------------------------------------------------------------------------------
     -1.59862      0.01834      4.88466        -0.031844     -0.002245     -0.005700
      4.56014      5.99666      0.00823         0.031844      0.002245      0.005700
      3.37590      3.02584      2.45467         0.031844     -0.002245      0.005700
     -0.41438      2.98916      2.43822        -0.031844      0.002245     -0.005700
      2.31294      5.40473      0.93895        -0.042723      0.006810      0.001756
      0.64858      0.61027      3.95394         0.042723     -0.006810     -0.001756
      1.83282      2.39723      1.50749         0.042723      0.006810     -0.001756
      1.12870      3.61777      3.38540        -0.042723     -0.006810      0.001756
     -0.98134      0.63432      4.01775         0.034758      0.064099     -0.111870
      1.29558      5.36572      0.99010         0.060799     -0.074360      0.127332
      3.94286      5.38068      0.87514        -0.034758     -0.064099      0.111870
      1.66594      0.64928      3.90279        -0.060799      0.074360     -0.127332
      2.75862      3.64182      3.32158        -0.034758      0.064099      0.111870
      0.20290      2.37318      1.57131         0.034758     -0.064099     -0.111870
      2.85018      2.35822      1.45634        -0.060799     -0.074360     -0.127332
      0.11134      3.65678      3.43655         0.060799      0.074360      0.127332
 -----------------------------------------------------------------------------------
    total drift:                               -0.002505     -0.004592      0.005608


--------------------------------------------------------------------------------------------------------



  FREE ENERGIE OF THE ION-ELECTRON SYSTEM (eV)
  ---------------------------------------------------
  free  energy   TOTEN  =       -86.98333752 eV

  energy  without entropy=      -86.98333752  energy(sigma->0) =      -86.98333752



--------------------------------------------------------------------------------------------------------


    POTLOK:  cpu time      0.6571: real time      0.6573


--------------------------------------------------------------------------------------------------------


 stress matrix after NEB project (eV)
      0.00000      0.00000      0.00000
      0.00000      0.00000      0.00000
      0.00000      0.00000      0.00000
  FORCES: max atom, RMS     0.159497    0.107468
  FORCE total and by dimension    0.429871    0.127332
  Stress total and by dimension    0.000000    0.000000
     LOOP+:  cpu time     61.5976: real time     62.0186
    4ORBIT:  cpu time      0.0000: real time      0.0000

 total amount of memory used by VASP MPI-rank0    44695. kBytes
=======================================================================

   base      :      30000. kBytes
   nonl-proj :       3409. kBytes
   fftplans  :        741. kBytes
   grid      :       1218. kBytes
   one-center:          3. kBytes
   wavefun   :       9324. kBytes

  
  
 General timing and accounting informations for this job:
 ========================================================
  
                  Total CPU time used (sec):       69.172
                            User time (sec):       67.037
                          System time (sec):        2.135
                         Elapsed time (sec):       69.752
  
                   Maximum memory used (kb):      208840.
                   Average memory used (kb):          N/A
  
                          Minor page faults:       108929
                          Major page faults:          549
                 Voluntary context switches:         3098
