 vasp.6.4.1 05Apr23 (build Jun  6 2023 14:36:51) complex                         
 executed on        HPECrayEX_GCC date 2024.08.21  08:42:05
 running  128 mpi-ranks, with    1 threads/rank, on    1 nodes
 distrk:  each k-point on  128 cores,    1 groups
 distr:  one band on NCORE=  32 cores,    4 groups


--------------------------------------------------------------------------------------------------------


 INCAR:
   ALGO = Conjugate
   NPAR = 4
   ISMEAR = 0
   SIGMA = 0.01
   PREC = Accurate
   EDIFF = 1E-7
   ENCUT = 1000
   ISIF = 0
   GGA = RE
   LUSE_VDW = .TRUE.
   AGGAC = 0.0000
   LASPH = .TRUE.
   LWAVE = .FALSE.
   LCHARGE = .FALSE.

 POTCAR:    PAW_PBE C_h 06Feb2004                 
 POTCAR:    PAW_PBE H_h 06Feb2004                 
 POTCAR:    PAW_PBE O_h 06Feb2004                 
 -----------------------------------------------------------------------------
|                                                                             |
|               ----> ADVICE to this user running VASP <----                  |
|                                                                             |
|     You have switched on vdW-DFT.                                           |
|     This routine was written and supplied by Jiri Klimes. We recommend      |
|     that you carefully read and cite the following publications:            |
|       J. Klimes, D.R. Bowler, A. Michelides                                 |
|          J. Phys.: Cond Matt. 22 022201 (2010)                              |
|       J. Klimes, D.R. Bowler, A. Michelides                                 |
|          Phys. Rev. B. 83, 195131 (2011)                                    |
|     and references therein.                                                 |
|                                                                             |
 -----------------------------------------------------------------------------

 POTCAR:    PAW_PBE C_h 06Feb2004                 
   VRHFIN =C: s2p2                                                                                  
   LEXCH  = PE                                                                                      
   EATOM  =   147.1560 eV,   10.8157 Ry                                                             
                                                                                                    
   TITEL  = PAW_PBE C_h 06Feb2004                                                                   
   LULTRA =        F    use ultrasoft PP ?                                                          
   IUNSCR =        1    unscreen: 0-lin 1-nonlin 2-no                                               
   RPACOR =    0.800    partial core radius                                                         
   POMASS =   12.011; ZVAL   =    4.000    mass and valenz                                          
   RCORE  =    1.100    outmost cutoff radius                                                       
   RWIGS  =    1.630; RWIGS  =    0.863    wigner-seitz radius (au A)                               
   ENMAX  =  700.000; ENMIN  =  500.000 eV                                                          
   ICORE  =        2    local potential                                                             
   LCOR   =        T    correct aug charges                                                         
   LPAW   =        T    paw PP                                                                      
   EAUG   =  946.768                                                                                
   DEXC   =    0.000                                                                                
   RMAX   =    1.128    core radius for proj-oper                                                   
   RAUG   =    1.300    factor for augmentation sphere                                              
   RDEP   =    1.162    radius for radial grids                                                     
   RDEPT  =    1.088    core radius for aug-charge                                                  
                                                                                                    
   Atomic configuration                                                                             
    4 entries                                                                                       
     n  l   j            E        occ.                                                              
     1  0  0.50      -273.3789   2.0000                                                             
     2  0  0.50       -13.7508   2.0000                                                             
     2  1  0.50        -5.2854   2.0000                                                             
     3  2  1.50        -5.4423   0.0000                                                             
   Description                                                                                      
     l       E           TYP  RCUT    TYP  RCUT                                                     
     0    -13.7508458     23  1.100                                                                 
     0     -8.2022199     23  1.100                                                                 
     1     -5.2854383     23  1.100                                                                 
     1      1.1560700     23  1.100                                                                 
     2     -5.4423304      7  1.100                                                                 
  local pseudopotential read in
  partial core-charges read in
  partial kinetic energy density read in
  atomic valenz-charges read in
  non local Contribution for L=           0  read in
    real space projection operators read in
  non local Contribution for L=           0  read in
    real space projection operators read in
  non local Contribution for L=           1  read in
    real space projection operators read in
  non local Contribution for L=           1  read in
    real space projection operators read in
    PAW grid and wavefunctions read in

   number of l-projection  operators is LMAX  =           4
   number of lm-projection operators is LMMAX =           8

 POTCAR:    PAW_PBE H_h 06Feb2004                 
   VRHFIN =H: ultrasoft test                                                                        
   LEXCH  = PE                                                                                      
   EATOM  =    12.4884 eV,    0.9179 Ry                                                             
                                                                                                    
   TITEL  = PAW_PBE H_h 06Feb2004                                                                   
   LULTRA =        F    use ultrasoft PP ?                                                          
   IUNSCR =        0    unscreen: 0-lin 1-nonlin 2-no                                               
   RPACOR =    0.000    partial core radius                                                         
   POMASS =    1.000; ZVAL   =    1.000    mass and valenz                                          
   RCORE  =    0.800    outmost cutoff radius                                                       
   RWIGS  =    0.700; RWIGS  =    0.370    wigner-seitz radius (au A)                               
   ENMAX  =  700.000; ENMIN  =  350.000 eV                                                          
   RCLOC  =    0.701    cutoff for local pot                                                        
   LCOR   =        T    correct aug charges                                                         
   LPAW   =        T    paw PP                                                                      
   EAUG   = 1000.000                                                                                
   RMAX   =    0.819    core radius for proj-oper                                                   
   RAUG   =    1.000    factor for augmentation sphere                                              
   RDEP   =    0.817    radius for radial grids                                                     
   RDEPT  =    0.817    core radius for aug-charge                                                  
                                                                                                    
   Atomic configuration                                                                             
    2 entries                                                                                       
     n  l   j            E        occ.                                                              
     1  0  0.50        -6.4927   1.0000                                                             
     2  1  0.50        -3.4015   0.0000                                                             
   Description                                                                                      
     l       E           TYP  RCUT    TYP  RCUT                                                     
     0     -6.4927493     23  0.800                                                                 
     0      6.8029130     23  0.800                                                                 
     1     -6.8029130     23  0.800                                                                 
  local pseudopotential read in
  atomic valenz-charges read in
  non local Contribution for L=           0  read in
    real space projection operators read in
  non local Contribution for L=           0  read in
    real space projection operators read in
  non local Contribution for L=           1  read in
    real space projection operators read in
    PAW grid and wavefunctions read in

   number of l-projection  operators is LMAX  =           3
   number of lm-projection operators is LMMAX =           5

 POTCAR:    PAW_PBE O_h 06Feb2004                 
   VRHFIN =O: s2p4                                                                                  
   LEXCH  = PE                                                                                      
   EATOM  =   432.3788 eV,   31.7789 Ry                                                             
                                                                                                    
   TITEL  = PAW_PBE O_h 06Feb2004                                                                   
   LULTRA =        F    use ultrasoft PP ?                                                          
   IUNSCR =        1    unscreen: 0-lin 1-nonlin 2-no                                               
   RPACOR =    0.800    partial core radius                                                         
   POMASS =   16.000; ZVAL   =    6.000    mass and valenz                                          
   RCORE  =    1.100    outmost cutoff radius                                                       
   RWIGS  =    1.400; RWIGS  =    0.741    wigner-seitz radius (au A)                               
   ENMAX  =  700.000; ENMIN  =  500.000 eV                                                          
   ICORE  =        2    local potential                                                             
   LCOR   =        T    correct aug charges                                                         
   LPAW   =        T    paw PP                                                                      
   EAUG   =  888.804                                                                                
   DEXC   =    0.000                                                                                
   RMAX   =    1.128    core radius for proj-oper                                                   
   RAUG   =    1.300    factor for augmentation sphere                                              
   RDEP   =    1.125    radius for radial grids                                                     
   RDEPT  =    1.088    core radius for aug-charge                                                  
                                                                                                    
   Atomic configuration                                                                             
    4 entries                                                                                       
     n  l   j            E        occ.                                                              
     1  0  0.50      -514.6923   2.0000                                                             
     2  0  0.50       -23.9615   2.0000                                                             
     2  1  0.50        -9.0305   4.0000                                                             
     3  2  1.50        -9.5241   0.0000                                                             
   Description                                                                                      
     l       E           TYP  RCUT    TYP  RCUT                                                     
     0    -23.9615319     23  1.100                                                                 
     0    -25.3221145     23  1.100                                                                 
     1     -9.0304911     23  1.100                                                                 
     1     -5.4802209     23  1.100                                                                 
     2     -9.5240782      7  1.100                                                                 
  local pseudopotential read in
  partial core-charges read in
  partial kinetic energy density read in
  atomic valenz-charges read in
  non local Contribution for L=           0  read in
    real space projection operators read in
  non local Contribution for L=           0  read in
    real space projection operators read in
  non local Contribution for L=           1  read in
    real space projection operators read in
  non local Contribution for L=           1  read in
    real space projection operators read in
    PAW grid and wavefunctions read in

   number of l-projection  operators is LMAX  =           4
   number of lm-projection operators is LMMAX =           8

 -----------------------------------------------------------------------------
|                                                                             |
|               ----> ADVICE to this user running VASP <----                  |
|                                                                             |
|     You enforced a specific xc type in the INCAR file but a different       |
|     type was found in the POTCAR file.                                      |
|     I HOPE YOU KNOW WHAT YOU ARE DOING!                                     |
|                                                                             |
 -----------------------------------------------------------------------------

  PAW_PBE C_h 06Feb2004                 :
 energy of atom  1       EATOM= -147.1560
 kinetic energy error for atom=    0.0031 (will be added to EATOM!!)
  PAW_PBE H_h 06Feb2004                 :
 energy of atom  2       EATOM=  -12.4884
 kinetic energy error for atom=    0.0006 (will be added to EATOM!!)
  PAW_PBE O_h 06Feb2004                 :
 energy of atom  3       EATOM= -432.3788
 kinetic energy error for atom=    0.0171 (will be added to EATOM!!)


 POSCAR:  C  H  O
  positions in cartesian coordinates
  No initial velocities read in
 exchange correlation table for  LEXCH =       40
   RHO(1)=    0.500       N(1)  =     2000
   RHO(2)=  100.500       N(2)  =     4000

 VTST: version 4.1, (05/19/21)

 CHAIN: initializing optimizer
 
 OPT: Using VASP Dynamics algorithm
 CHAIN: Read ICHAIN            0

 POSCAR:  C  H  O
  positions in cartesian coordinates
  No initial velocities read in



--------------------------------------------------------------------------------------------------------


 ion  position               nearest neighbor table
   1  0.144  0.003  0.998-   9 1.23  10 1.31   2 1.54
   2  0.856  0.997  0.002-  11 1.23  12 1.31   1 1.54
   3  0.856  0.503  0.502-  13 1.23  15 1.31   4 1.54
   4  0.144  0.497  0.498-  14 1.23  16 1.31   3 1.54
   5  0.519  0.899  0.192-  10 1.02
   6  0.481  0.101  0.808-  12 1.02
   7  0.481  0.399  0.308-  15 1.02
   8  0.519  0.601  0.692-  16 1.02
   9  0.181  0.105  0.821-   1 1.23
  10  0.333  0.892  0.202-   5 1.02   1 1.31
  11  0.819  0.895  0.179-   2 1.23
  12  0.667  0.108  0.798-   6 1.02   2 1.31
  13  0.819  0.605  0.679-   3 1.23
  14  0.181  0.395  0.321-   4 1.23
  15  0.667  0.392  0.298-   7 1.02   3 1.31
  16  0.333  0.608  0.702-   8 1.02   4 1.31

  LATTYP: Found a simple monoclinic cell.
 ALAT       =     5.3300000000
 B/A-ratio  =     1.1285178236
 C/A-ratio  =     1.0198869820
 COS(beta)  =    -0.4357029138
  
  Lattice vectors:
  
 A1 = (   5.3300000000,   0.0000000000,   0.0000000000)
 A2 = (   0.0000000000,   6.0150000000,   0.0000000000)
 A3 = (  -2.3684800000,   0.0000000000,   4.8928900000)


Analysis of symmetry for initial positions (statically):
=====================================================================
 Subroutine PRICEL returns:
 Original cell was already a primitive cell.
 

 Routine SETGRP: Setting up the symmetry group for a 
 simple monoclinic supercell.


 Subroutine GETGRP returns: Found  4 space group operations
 (whereof  2 operations were pure point group operations)
 out of a pool of  4 trial point group operations.


The static configuration has the point symmetry S_2 .
 The point group associated with its full space group is C_2h.


Analysis of symmetry for dynamics (positions and initial velocities):
=====================================================================
 Subroutine PRICEL returns:
 Original cell was already a primitive cell.
 

 Routine SETGRP: Setting up the symmetry group for a 
 simple monoclinic supercell.


 Subroutine GETGRP returns: Found  4 space group operations
 (whereof  2 operations were pure point group operations)
 out of a pool of  4 trial point group operations.


The dynamic configuration has the point symmetry S_2 .
 The point group associated with its full space group is C_2h.


 Subroutine INISYM returns: Found  4 space group operations
 (whereof  2 operations are pure point group operations),
 and found     1 'primitive' translations


----------------------------------------------------------------------------------------

                                     Primitive cell                                     

  volume of cell :     156.8658

  direct lattice vectors                    reciprocal lattice vectors
     5.330000000  0.000000000  0.000000000     0.187617261 -0.000000000  0.090819072
     0.000000000  6.015000000  0.000000000     0.000000000  0.166251039 -0.000000000
    -2.368480000  0.000000000  4.892890000     0.000000000  0.000000000  0.204378190

  length of vectors
     5.330000000  6.015000000  5.435997614     0.208442655  0.166251039  0.204378190

  position of ions in fractional coordinates (direct lattice)
     0.143691759  0.003048989  0.998318707
     0.856308241  0.996951011  0.001681293
     0.856308238  0.503048993  0.501681414
     0.143691762  0.496951006  0.498318586
     0.519222146  0.898542098  0.191901324
     0.480777854  0.101457902  0.808098676
     0.480777830  0.398542067  0.308098767
     0.519222170  0.601457933  0.691901233
     0.180772503  0.105456181  0.821140772
     0.332993439  0.892056331  0.202355363
     0.819227497  0.894543819  0.178859228
     0.667006561  0.107943669  0.797644637
     0.819227565  0.605456176  0.678859303
     0.180772436  0.394543824  0.321140697
     0.667006610  0.392056290  0.297644791
     0.332993390  0.607943710  0.702355209

  ion indices of the primitive-cell ions
   primitive index   ion index
                 1           1
                 2           2
                 3           3
                 4           4
                 5           5
                 6           6
                 7           7
                 8           8
                 9           9
                10          10
                11          11
                12          12
                13          13
                14          14
                15          15
                16          16

----------------------------------------------------------------------------------------



 KPOINTS: auto                                    

Automatic generation of k-mesh.
 Grid dimensions read from file:
 generate k-points for:    6    4    5

 Generating k-lattice:

  Cartesian coordinates                     Fractional coordinates (reciprocal lattice)
     0.031269543 -0.000000000  0.015136512     0.166666667  0.000000000 -0.000000000
     0.000000000  0.041562760 -0.000000000     0.000000000  0.250000000  0.000000000
     0.000000000  0.000000000  0.040875638     0.000000000  0.000000000  0.200000000

  Length of vectors
     0.034740442  0.041562760  0.040875638

  Shift w.r.t. Gamma in fractional coordinates (k-lattice)
     0.000000000  0.000000000  0.000000000

 
 Subroutine IBZKPT returns following result:
 ===========================================
 
 Found     48 irreducible k-points:
 
 Following reciprocal coordinates:
            Coordinates               Weight
  0.000000  0.000000  0.000000      1.000000
  0.166667  0.000000  0.000000      2.000000
  0.333333  0.000000  0.000000      2.000000
  0.500000  0.000000  0.000000      1.000000
  0.000000  0.250000  0.000000      2.000000
  0.166667  0.250000  0.000000      4.000000
  0.333333  0.250000  0.000000      4.000000
  0.500000  0.250000  0.000000      2.000000
  0.000000  0.500000  0.000000      1.000000
  0.166667  0.500000  0.000000      2.000000
  0.333333  0.500000  0.000000      2.000000
  0.500000  0.500000  0.000000      1.000000
  0.000000  0.000000  0.200000      2.000000
  0.166667  0.000000  0.200000      2.000000
  0.333333  0.000000  0.200000      2.000000
  0.500000  0.000000  0.200000      2.000000
 -0.333333  0.000000  0.200000      2.000000
 -0.166667  0.000000  0.200000      2.000000
  0.000000  0.250000  0.200000      4.000000
  0.166667  0.250000  0.200000      4.000000
  0.333333  0.250000  0.200000      4.000000
  0.500000  0.250000  0.200000      4.000000
 -0.333333  0.250000  0.200000      4.000000
 -0.166667  0.250000  0.200000      4.000000
  0.000000  0.500000  0.200000      2.000000
  0.166667  0.500000  0.200000      2.000000
  0.333333  0.500000  0.200000      2.000000
  0.500000  0.500000  0.200000      2.000000
 -0.333333  0.500000  0.200000      2.000000
 -0.166667  0.500000  0.200000      2.000000
  0.000000  0.000000  0.400000      2.000000
  0.166667  0.000000  0.400000      2.000000
  0.333333  0.000000  0.400000      2.000000
  0.500000  0.000000  0.400000      2.000000
 -0.333333  0.000000  0.400000      2.000000
 -0.166667  0.000000  0.400000      2.000000
  0.000000  0.250000  0.400000      4.000000
  0.166667  0.250000  0.400000      4.000000
  0.333333  0.250000  0.400000      4.000000
  0.500000  0.250000  0.400000      4.000000
 -0.333333  0.250000  0.400000      4.000000
 -0.166667  0.250000  0.400000      4.000000
  0.000000  0.500000  0.400000      2.000000
  0.166667  0.500000  0.400000      2.000000
  0.333333  0.500000  0.400000      2.000000
  0.500000  0.500000  0.400000      2.000000
 -0.333333  0.500000  0.400000      2.000000
 -0.166667  0.500000  0.400000      2.000000
 
 Following cartesian coordinates:
            Coordinates               Weight
  0.000000  0.000000  0.000000      1.000000
  0.031270  0.000000  0.015137      2.000000
  0.062539  0.000000  0.030273      2.000000
  0.093809  0.000000  0.045410      1.000000
  0.000000  0.041563  0.000000      2.000000
  0.031270  0.041563  0.015137      4.000000
  0.062539  0.041563  0.030273      4.000000
  0.093809  0.041563  0.045410      2.000000
  0.000000  0.083126  0.000000      1.000000
  0.031270  0.083126  0.015137      2.000000
  0.062539  0.083126  0.030273      2.000000
  0.093809  0.083126  0.045410      1.000000
  0.000000  0.000000  0.040876      2.000000
  0.031270  0.000000  0.056012      2.000000
  0.062539  0.000000  0.071149      2.000000
  0.093809  0.000000  0.086285      2.000000
 -0.062539  0.000000  0.010603      2.000000
 -0.031270  0.000000  0.025739      2.000000
  0.000000  0.041563  0.040876      4.000000
  0.031270  0.041563  0.056012      4.000000
  0.062539  0.041563  0.071149      4.000000
  0.093809  0.041563  0.086285      4.000000
 -0.062539  0.041563  0.010603      4.000000
 -0.031270  0.041563  0.025739      4.000000
  0.000000  0.083126  0.040876      2.000000
  0.031270  0.083126  0.056012      2.000000
  0.062539  0.083126  0.071149      2.000000
  0.093809  0.083126  0.086285      2.000000
 -0.062539  0.083126  0.010603      2.000000
 -0.031270  0.083126  0.025739      2.000000
  0.000000  0.000000  0.081751      2.000000
  0.031270  0.000000  0.096888      2.000000
  0.062539  0.000000  0.112024      2.000000
  0.093809  0.000000  0.127161      2.000000
 -0.062539  0.000000  0.051478      2.000000
 -0.031270  0.000000  0.066615      2.000000
  0.000000  0.041563  0.081751      4.000000
  0.031270  0.041563  0.096888      4.000000
  0.062539  0.041563  0.112024      4.000000
  0.093809  0.041563  0.127161      4.000000
 -0.062539  0.041563  0.051478      4.000000
 -0.031270  0.041563  0.066615      4.000000
  0.000000  0.083126  0.081751      2.000000
  0.031270  0.083126  0.096888      2.000000
  0.062539  0.083126  0.112024      2.000000
  0.093809  0.083126  0.127161      2.000000
 -0.062539  0.083126  0.051478      2.000000
 -0.031270  0.083126  0.066615      2.000000
 


--------------------------------------------------------------------------------------------------------




 Dimension of arrays:
   k-points           NKPTS =     48   k-points in BZ     NKDIM =     48   number of bands    NBANDS=     44
   number of dos      NEDOS =    301   number of ions     NIONS =     16
   non local maximal  LDIM  =      4   non local SUM 2l+1 LMDIM =      8
   total plane-waves  NPLWV = 200704
   max r-space proj   IRMAX =      1   max aug-charges    IRDMAX=   9530
   dimension x,y,z NGX =    56 NGY =   64 NGZ =   56
   dimension x,y,z NGXF=   112 NGYF=  128 NGZF=  112
   support grid    NGXF=   112 NGYF=  128 NGZF=  112
   ions per type =               4   4   8
   NGX,Y,Z   is equivalent  to a cutoff of  17.47, 17.69, 17.13 a.u.
   NGXF,Y,Z  is equivalent  to a cutoff of  34.93, 35.38, 34.25 a.u.

 SYSTEM =  unknown system                          
 POSCAR =   C  H  O                                

 Startparameter for this run:
   NWRITE =      2    write-flag & timer
   PREC   = accura    normal or accurate (medium, high low for compatibility)
   ISTART =      0    job   : 0-new  1-cont  2-samecut
   ICHARG =      2    charge: 1-file 2-atom 10-const
   ISPIN  =      1    spin polarized calculation?
   LNONCOLLINEAR =      F non collinear calculations
   LSORBIT =      F    spin-orbit coupling
   INIWAV =      1    electr: 0-lowe 1-rand  2-diag
   LASPH  =      T    aspherical Exc in radial PAW
 Electronic Relaxation 1
   ENCUT  = 1000.0 eV  73.50 Ry    8.57 a.u.  13.74 15.51 14.02*2*pi/ulx,y,z
   ENINI  = 1000.0     initial cutoff
   ENAUG  = 1000.0 eV  augmentation charge cutoff
   NELM   =     60;   NELMIN=  2; NELMDL= -5     # of ELM steps 
   EDIFF  = 0.1E-06   stopping-criterion for ELM
   LREAL  =      F    real-space projection
   NLSPLINE    = F    spline interpolate recip. space projectors
   LCOMPAT=      F    compatible to vasp.4.4
   GGA_COMPAT  = T    GGA compatible to vasp.4.4-vasp.4.6
   LMAXPAW     = -100 max onsite density
   LMAXMIX     =    2 max onsite mixed and CHGCAR
   VOSKOWN=      0    Vosko Wilk Nusair interpolation
   ROPT   =    0.00000   0.00000   0.00000
 Ionic relaxation
   EDIFFG = 0.1E-05   stopping-criterion for IOM
   NSW    =      0    number of steps for IOM
   NBLOCK =      1;   KBLOCK =      1    inner block; outer block 
   IBRION =     -1    ionic relax: 0-MD 1-quasi-New 2-CG
   NFREE  =      0    steps in history (QN), initial steepest desc. (CG)
   ISIF   =      0    stress and relaxation
   IWAVPR =     10    prediction:  0-non 1-charg 2-wave 3-comb
   ISYM   =      2    0-nonsym 1-usesym 2-fastsym
   LCORR  =      T    Harris-Foulkes like correction to forces

   POTIM  = 0.5000    time-step for ionic-motion
   TEIN   =    0.0    initial temperature
   TEBEG  =    0.0;   TEEND  =   0.0 temperature during run
   SMASS  =  -3.00    Nose mass-parameter (am)
   estimated Nose-frequenzy (Omega)   =  0.10E-29 period in steps = 0.13E+47 mass=  -0.649E-27a.u.
   SCALEE = 1.0000    scale energy and forces
   NPACO  =    256;   APACO  = 10.0  distance and # of slots for P.C.
   PSTRESS=    0.0 pullay stress

  Mass of Ions in am
   POMASS =  12.01  1.00 16.00
  Ionic Valenz
   ZVAL   =   4.00  1.00  6.00
  Atomic Wigner-Seitz radii
   RWIGS  =  -1.00 -1.00 -1.00
  virtual crystal weights 
   VCA    =   1.00  1.00  1.00
   NELECT =      68.0000    total number of electrons
   NUPDOWN=      -1.0000    fix difference up-down

 DOS related values:
   EMIN   =  10.00;   EMAX   =-10.00  energy-range for DOS
   EFERMI =   0.00;   METHOD = LEGACY      
   ISMEAR =     0;   SIGMA  =   0.01  broadening in eV -4-tet -1-fermi 0-gaus

 Electronic relaxation 2 (details)
   IALGO  =     58    algorithm
   LDIAG  =      T    sub-space diagonalisation (order eigenvalues)
   LSUBROT=      F    optimize rotation matrix (better conditioning)
   TURBO    =      0    0=normal 1=particle mesh
   IRESTART =      0    0=no restart 2=restart with 2 vectors
   NREBOOT  =      0    no. of reboots
   NMIN     =      0    reboot dimension
   EREF     =   0.00    reference energy to select bands
   IMIX   =      4    mixing-type and parameters
     AMIX     =   0.40;   BMIX     =  1.00
     AMIX_MAG =   1.60;   BMIX_MAG =  1.00
     AMIN     =   0.10
     WC   =   100.;   INIMIX=   1;  MIXPRE=   1;  MAXMIX= -45

 Intra band minimization:
   WEIMIN = 0.0000     energy-eigenvalue tresh-hold
   EBREAK =  0.57E-09  absolut break condition
   DEPER  =   0.30     relativ break condition  

   TIME   =   0.40     timestep for ELM

  volume/ion in A,a.u.               =       9.80        66.16
  Fermi-wavevector in a.u.,A,eV,Ry     =   1.238992  2.341355 20.886307  1.535100
  Thomas-Fermi vector in A             =   2.373494

 Write flags
   LWAVE        =      F    write WAVECAR
   LDOWNSAMPLE  =      F    k-point downsampling of WAVECAR
   LCHARG       =      T    write CHGCAR
   LVTOT        =      F    write LOCPOT, total local potential
   LVHAR        =      F    write LOCPOT, Hartree potential only
   LELF         =      F    write electronic localiz. function (ELF)
   LORBIT       =      0    0 simple, 1 ext, 2 COOP (PROOUT), +10 PAW based schemes


 Dipole corrections
   LMONO  =      F    monopole corrections only (constant potential shift)
   LDIPOL =      F    correct potential (dipole corrections)
   IDIPOL =      0    1-x, 2-y, 3-z, 4-all directions 
   EPSILON=  1.0000000 bulk dielectric constant

 Exchange correlation treatment:
   GGA     =    RE    GGA type
   LEXCH   =    40    internal setting for exchange type
   LIBXC   =     F    Libxc                    
   VOSKOWN =     0    Vosko Wilk Nusair interpolation
   LHFCALC =     F    Hartree Fock is set to
   LHFONE  =     F    Hartree Fock one center treatment
   AEXX    =    0.0000 exact exchange contribution

 vdW DFT:
   LUSE_VDW   =     T    switch on vdW DFT
   IVDW_NL    =     1    kernel type
   LSPIN_VDW  =     F    use spin-polarized vdW DFT
   Zab_VDW    =-.8491    correlation parameter
   PARAM1     =0.1234
   PARAM2     =1.0000
   PARAM3     =0.0000
   -- rVV10 --
   BPARAM     = 6.3000
   CPARAM     = 0.0093

 Linear response parameters
   LEPSILON=     F    determine dielectric tensor
   LRPA    =     F    only Hartree local field effects (RPA)
   LNABLA  =     F    use nabla operator in PAW spheres
   LVEL    =     F    velocity operator in full k-point grid
   CSHIFT  =0.1000    complex shift for real part using Kramers Kronig
   OMEGAMAX=  -1.0    maximum frequency
   DEG_THRESHOLD= 0.2000000E-02 threshold for treating states as degnerate
   RTIME   =   -0.100 relaxation time in fs
  (WPLASMAI=    0.000 imaginary part of plasma frequency in eV, 0.658/RTIME)
   DFIELD  = 0.0000000 0.0000000 0.0000000 field for delta impulse in time

  Optional k-point grid parameters
   LKPOINTS_OPT  =     F    use optional k-point grid
   KPOINTS_OPT_MODE=     1    mode for optional k-point grid

 Orbital magnetization related:
   ORBITALMAG=     F  switch on orbital magnetization
   LCHIMAG   =     F  perturbation theory with respect to B field
   DQ        =  0.001000  dq finite difference perturbation B field
   LLRAUG    =     F  two centre corrections for induced B field
   LBONE     =     F  B-component reconstruction in AE one-centre
   LVGVCALC  =     T  calculate vGv susceptibility
   LVGVAPPL  =     F  apply vGv susceptibility instead of pGv for G=0

 Random number generation:
   RANDOM_GENERATOR = DEFAULT
   PCG_SEED         = not used


--------------------------------------------------------------------------------------------------------


 Static calculation
 charge density and potential will be updated during run
 non-spin polarized calculation
 Conjugate gradient for all bands (Freysoldt, et al. PRB 79, 241103 (2009))
 preconditioned conjugated gradient                                        
 perform sub-space diagonalisation
    before iterative eigenvector-optimisation
 modified Broyden-mixing scheme, WC =      100.0
 initial mixing is a Kerker type mixing with AMIX =  0.4000 and BMIX =      1.0000
 Hartree-type preconditioning will be used
 using additional bands           10
 reciprocal scheme for non local part
 use partial core corrections
 no Harris-corrections to forces 
 use gradient corrections 
 use of overlap-Matrix (Vanderbilt PP)
 Gauss-broadening in eV      SIGMA  =   0.01


--------------------------------------------------------------------------------------------------------


  energy-cutoff  :     1000.00
  volume of cell :      156.87
      direct lattice vectors                 reciprocal lattice vectors
     5.330000000  0.000000000  0.000000000     0.187617261 -0.000000000  0.090819072
     0.000000000  6.015000000  0.000000000     0.000000000  0.166251039 -0.000000000
    -2.368480000  0.000000000  4.892890000     0.000000000  0.000000000  0.204378190

  length of vectors
     5.330000000  6.015000000  5.435997614     0.208442655  0.166251039  0.204378190



 k-points in units of 2pi/SCALE and weight: auto                                    
   0.00000000  0.00000000  0.00000000       0.008
   0.03126954  0.00000000  0.01513651       0.017
   0.06253909  0.00000000  0.03027302       0.017
   0.09380863  0.00000000  0.04540954       0.008
   0.00000000  0.04156276  0.00000000       0.017
   0.03126954  0.04156276  0.01513651       0.033
   0.06253909  0.04156276  0.03027302       0.033
   0.09380863  0.04156276  0.04540954       0.017
   0.00000000  0.08312552  0.00000000       0.008
   0.03126954  0.08312552  0.01513651       0.017
   0.06253909  0.08312552  0.03027302       0.017
   0.09380863  0.08312552  0.04540954       0.008
   0.00000000  0.00000000  0.04087564       0.017
   0.03126954  0.00000000  0.05601215       0.017
   0.06253909  0.00000000  0.07114866       0.017
   0.09380863  0.00000000  0.08628517       0.017
  -0.06253909  0.00000000  0.01060261       0.017
  -0.03126954  0.00000000  0.02573913       0.017
   0.00000000  0.04156276  0.04087564       0.033
   0.03126954  0.04156276  0.05601215       0.033
   0.06253909  0.04156276  0.07114866       0.033
   0.09380863  0.04156276  0.08628517       0.033
  -0.06253909  0.04156276  0.01060261       0.033
  -0.03126954  0.04156276  0.02573913       0.033
   0.00000000  0.08312552  0.04087564       0.017
   0.03126954  0.08312552  0.05601215       0.017
   0.06253909  0.08312552  0.07114866       0.017
   0.09380863  0.08312552  0.08628517       0.017
  -0.06253909  0.08312552  0.01060261       0.017
  -0.03126954  0.08312552  0.02573913       0.017
   0.00000000  0.00000000  0.08175128       0.017
   0.03126954  0.00000000  0.09688779       0.017
   0.06253909  0.00000000  0.11202430       0.017
   0.09380863  0.00000000  0.12716081       0.017
  -0.06253909  0.00000000  0.05147825       0.017
  -0.03126954  0.00000000  0.06661476       0.017
   0.00000000  0.04156276  0.08175128       0.033
   0.03126954  0.04156276  0.09688779       0.033
   0.06253909  0.04156276  0.11202430       0.033
   0.09380863  0.04156276  0.12716081       0.033
  -0.06253909  0.04156276  0.05147825       0.033
  -0.03126954  0.04156276  0.06661476       0.033
   0.00000000  0.08312552  0.08175128       0.017
   0.03126954  0.08312552  0.09688779       0.017
   0.06253909  0.08312552  0.11202430       0.017
   0.09380863  0.08312552  0.12716081       0.017
  -0.06253909  0.08312552  0.05147825       0.017
  -0.03126954  0.08312552  0.06661476       0.017

 k-points in reciprocal lattice and weights: auto                                    
   0.00000000  0.00000000  0.00000000       0.008
   0.16666667  0.00000000  0.00000000       0.017
   0.33333333  0.00000000  0.00000000       0.017
   0.50000000  0.00000000  0.00000000       0.008
   0.00000000  0.25000000  0.00000000       0.017
   0.16666667  0.25000000  0.00000000       0.033
   0.33333333  0.25000000  0.00000000       0.033
   0.50000000  0.25000000  0.00000000       0.017
   0.00000000  0.50000000  0.00000000       0.008
   0.16666667  0.50000000  0.00000000       0.017
   0.33333333  0.50000000  0.00000000       0.017
   0.50000000  0.50000000  0.00000000       0.008
   0.00000000  0.00000000  0.20000000       0.017
   0.16666667  0.00000000  0.20000000       0.017
   0.33333333  0.00000000  0.20000000       0.017
   0.50000000  0.00000000  0.20000000       0.017
  -0.33333333  0.00000000  0.20000000       0.017
  -0.16666667  0.00000000  0.20000000       0.017
   0.00000000  0.25000000  0.20000000       0.033
   0.16666667  0.25000000  0.20000000       0.033
   0.33333333  0.25000000  0.20000000       0.033
   0.50000000  0.25000000  0.20000000       0.033
  -0.33333333  0.25000000  0.20000000       0.033
  -0.16666667  0.25000000  0.20000000       0.033
   0.00000000  0.50000000  0.20000000       0.017
   0.16666667  0.50000000  0.20000000       0.017
   0.33333333  0.50000000  0.20000000       0.017
   0.50000000  0.50000000  0.20000000       0.017
  -0.33333333  0.50000000  0.20000000       0.017
  -0.16666667  0.50000000  0.20000000       0.017
   0.00000000  0.00000000  0.40000000       0.017
   0.16666667  0.00000000  0.40000000       0.017
   0.33333333  0.00000000  0.40000000       0.017
   0.50000000  0.00000000  0.40000000       0.017
  -0.33333333  0.00000000  0.40000000       0.017
  -0.16666667  0.00000000  0.40000000       0.017
   0.00000000  0.25000000  0.40000000       0.033
   0.16666667  0.25000000  0.40000000       0.033
   0.33333333  0.25000000  0.40000000       0.033
   0.50000000  0.25000000  0.40000000       0.033
  -0.33333333  0.25000000  0.40000000       0.033
  -0.16666667  0.25000000  0.40000000       0.033
   0.00000000  0.50000000  0.40000000       0.017
   0.16666667  0.50000000  0.40000000       0.017
   0.33333333  0.50000000  0.40000000       0.017
   0.50000000  0.50000000  0.40000000       0.017
  -0.33333333  0.50000000  0.40000000       0.017
  -0.16666667  0.50000000  0.40000000       0.017

 position of ions in fractional coordinates (direct lattice) 
   0.14369176  0.00304899  0.99831871
   0.85630824  0.99695101  0.00168129
   0.85630824  0.50304899  0.50168141
   0.14369176  0.49695101  0.49831859
   0.51922215  0.89854210  0.19190132
   0.48077785  0.10145790  0.80809868
   0.48077783  0.39854207  0.30809877
   0.51922217  0.60145793  0.69190123
   0.18077250  0.10545618  0.82114077
   0.33299344  0.89205633  0.20235536
   0.81922750  0.89454382  0.17885923
   0.66700656  0.10794367  0.79764464
   0.81922756  0.60545618  0.67885930
   0.18077244  0.39454382  0.32114070
   0.66700661  0.39205629  0.29764479
   0.33299339  0.60794371  0.70235521

 position of ions in cartesian coordinates  (Angst):
  -1.59862081  0.01833967  4.88466362
   4.56014081  5.99666033  0.00822638
   3.37590051  3.02583970  2.45467197
  -0.41438051  2.98916030  2.43821803
   2.31293959  5.40473072  0.93895207
   0.64858041  0.61026928  3.95393793
   1.83282006  2.39723053  1.50749338
   1.12869994  3.61776947  3.38539662
  -0.98133805  0.63431893  4.01775147
   1.29558040  5.36571883  0.99010253
   3.94285805  5.38068107  0.87513853
   1.66593960  0.64928117  3.90278747
   2.75861824  3.64181890  3.32158390
   0.20290176  2.37318110  1.57130611
   2.85017950  2.35821859  1.45634322
   0.11134050  3.65678142  3.43654678



--------------------------------------------------------------------------------------------------------


 k-point   1 :   0.0000 0.0000 0.0000  plane waves:   11235
 k-point   2 :   0.1667 0.0000 0.0000  plane waves:   11231
 k-point   3 :   0.3333 0.0000 0.0000  plane waves:   11253
 k-point   4 :   0.5000 0.0000 0.0000  plane waves:   11230
 k-point   5 :   0.0000 0.2500 0.0000  plane waves:   11269
 k-point   6 :   0.1667 0.2500 0.0000  plane waves:   11264
 k-point   7 :   0.3333 0.2500 0.0000  plane waves:   11247
 k-point   8 :   0.5000 0.2500 0.0000  plane waves:   11246
 k-point   9 :   0.0000 0.5000 0.0000  plane waves:   11232
 k-point  10 :   0.1667 0.5000 0.0000  plane waves:   11238
 k-point  11 :   0.3333 0.5000 0.0000  plane waves:   11252
 k-point  12 :   0.5000 0.5000 0.0000  plane waves:   11256
 k-point  13 :   0.0000 0.0000 0.2000  plane waves:   11280
 k-point  14 :   0.1667 0.0000 0.2000  plane waves:   11253
 k-point  15 :   0.3333 0.0000 0.2000  plane waves:   11254
 k-point  16 :   0.5000 0.0000 0.2000  plane waves:   11276
 k-point  17 :  -0.3333 0.0000 0.2000  plane waves:   11272
 k-point  18 :  -0.1667 0.0000 0.2000  plane waves:   11295
 k-point  19 :   0.0000 0.2500 0.2000  plane waves:   11270
 k-point  20 :   0.1667 0.2500 0.2000  plane waves:   11273
 k-point  21 :   0.3333 0.2500 0.2000  plane waves:   11279
 k-point  22 :   0.5000 0.2500 0.2000  plane waves:   11254
 k-point  23 :  -0.3333 0.2500 0.2000  plane waves:   11256
 k-point  24 :  -0.1667 0.2500 0.2000  plane waves:   11267
 k-point  25 :   0.0000 0.5000 0.2000  plane waves:   11264
 k-point  26 :   0.1667 0.5000 0.2000  plane waves:   11256
 k-point  27 :   0.3333 0.5000 0.2000  plane waves:   11266
 k-point  28 :   0.5000 0.5000 0.2000  plane waves:   11262
 k-point  29 :  -0.3333 0.5000 0.2000  plane waves:   11262
 k-point  30 :  -0.1667 0.5000 0.2000  plane waves:   11242
 k-point  31 :   0.0000 0.0000 0.4000  plane waves:   11268
 k-point  32 :   0.1667 0.0000 0.4000  plane waves:   11286
 k-point  33 :   0.3333 0.0000 0.4000  plane waves:   11270
 k-point  34 :   0.5000 0.0000 0.4000  plane waves:   11292
 k-point  35 :  -0.3333 0.0000 0.4000  plane waves:   11289
 k-point  36 :  -0.1667 0.0000 0.4000  plane waves:   11295
 k-point  37 :   0.0000 0.2500 0.4000  plane waves:   11272
 k-point  38 :   0.1667 0.2500 0.4000  plane waves:   11277
 k-point  39 :   0.3333 0.2500 0.4000  plane waves:   11263
 k-point  40 :   0.5000 0.2500 0.4000  plane waves:   11271
 k-point  41 :  -0.3333 0.2500 0.4000  plane waves:   11261
 k-point  42 :  -0.1667 0.2500 0.4000  plane waves:   11262
 k-point  43 :   0.0000 0.5000 0.4000  plane waves:   11262
 k-point  44 :   0.1667 0.5000 0.4000  plane waves:   11250
 k-point  45 :   0.3333 0.5000 0.4000  plane waves:   11272
 k-point  46 :   0.5000 0.5000 0.4000  plane waves:   11250
 k-point  47 :  -0.3333 0.5000 0.4000  plane waves:   11254
 k-point  48 :  -0.1667 0.5000 0.4000  plane waves:   11250

 maximum and minimum number of plane-waves per node :       366      338

 maximum number of plane-waves:     11295
 maximum index in each direction: 
   IXMAX=   14   IYMAX=   15   IZMAX=   14
   IXMIN=  -14   IYMIN=  -16   IZMIN=  -14


 parallel 3D FFT for wavefunctions:
    minimum data exchange during FFTs selected (reduces bandwidth)
 parallel 3D FFT for charge:
    minimum data exchange during FFTs selected (reduces bandwidth)


 total amount of memory used by VASP MPI-rank0    44695. kBytes
=======================================================================

   base      :      30000. kBytes
   nonl-proj :       3409. kBytes
   fftplans  :        741. kBytes
   grid      :       1218. kBytes
   one-center:          3. kBytes
   wavefun   :       9324. kBytes

     INWAV:  cpu time      0.0017: real time      0.0019
 Broyden mixing: mesh for mixing (old mesh)
   NGX = 27   NGY = 31   NGZ = 29
  (NGX  =112   NGY  =128   NGZ  =112)
  gives a total of  24273 points

 initial charge density was supplied:
 charge density of overlapping atoms calculated
 number of electron      68.0000000 magnetization 
 keeping initial charge density in first step


--------------------------------------------------------------------------------------------------------


 Maximum index for augmentation-charges            0 (set IRDMAX)


--------------------------------------------------------------------------------------------------------


 First call to EWALD:  gamma=   0.329
 Maximum number of real-space cells 3x 3x 3
 Maximum number of reciprocal cells 3x 3x 3

    FEWALD:  cpu time      0.0020: real time      0.0020


--------------------------------------- Ionic step        1  -------------------------------------------




--------------------------------------- Iteration      1(   1)  ---------------------------------------


vdW kernel read from vdw_kernel.bindat
  0.0000  0.2424  0.5071  0.7962  1.1119  1.4567  1.8333  2.2446  2.6937  3.1842
  3.7199  4.3049  4.9438  5.6415  6.4036  7.2358  8.1446  9.1372 10.2212 11.4050
 12.6979 14.1099 15.6519 17.3360 19.1751 21.1837 23.3773 25.7729 28.3892 31.2465
 34.3669 37.7748 41.4965 45.5611 50.0000

    POTLOK:  cpu time      1.1824: real time      1.1853
    SETDIJ:  cpu time      0.0689: real time      0.0690
    TRIAL :  cpu time      1.4603: real time      1.4672
    CORREC:  cpu time      0.0052: real time      0.0052
    --------------------------------------------
      LOOP:  cpu time      2.7201: real time      2.7978

 eigenvalue-minimisations  :  4224
 total energy-change (2. order) : 0.7502140E+03  (-0.5424926E+04)
 number of electron      68.0000000 magnetization 
 augmentation part       68.0000000 magnetization 

 Free energy of the ion-electron system (eV)
  ---------------------------------------------------
  alpha Z        PSCENC =        81.91423797
  Ewald energy   TEWEN  =     -2364.59881513
  -Hartree energ DENC   =     -1465.29363950
  -exchange      EXHF   =         0.00000000
  -V(xc)+E(xc)   XCENC  =       239.99837957
  PAW double counting   =      3248.17806028    -3233.35212689
  entropy T*S    EENTRO =        -0.00017391
  eigenvalues    EBANDS =       102.76310977
  atomic energy  EATOM  =      4140.60493646
  ---------------------------------------------------
  free energy    TOTEN  =       750.21396861 eV

  energy without entropy =      750.21414252  energy(sigma->0) =      750.21405556


--------------------------------------------------------------------------------------------------------




--------------------------------------- Iteration      1(   2)  ---------------------------------------


    TRIAL :  cpu time      1.8428: real time      1.8432
    CORREC:  cpu time      0.0003: real time      0.0003
    --------------------------------------------
      LOOP:  cpu time      1.8559: real time      1.8768

 eigenvalue-minimisations  :  5896
 total energy-change (2. order) :-0.7404461E+03  (-0.7188133E+03)
 number of electron      68.0000000 magnetization 
 augmentation part       68.0000000 magnetization 

 Free energy of the ion-electron system (eV)
  ---------------------------------------------------
  alpha Z        PSCENC =        81.91423797
  Ewald energy   TEWEN  =     -2364.59881513
  -Hartree energ DENC   =     -1465.29363950
  -exchange      EXHF   =         0.00000000
  -V(xc)+E(xc)   XCENC  =       239.99837957
  PAW double counting   =      3248.17806028    -3233.35212689
  entropy T*S    EENTRO =        -0.00000000
  eigenvalues    EBANDS =      -637.68319455
  atomic energy  EATOM  =      4140.60493646
  ---------------------------------------------------
  free energy    TOTEN  =         9.76783820 eV

  energy without entropy =        9.76783820  energy(sigma->0) =        9.76783820


--------------------------------------------------------------------------------------------------------




--------------------------------------- Iteration      1(   3)  ---------------------------------------


    TRIAL :  cpu time      1.4857: real time      1.4862
    CORREC:  cpu time      0.0003: real time      0.0003
    --------------------------------------------
      LOOP:  cpu time      1.4967: real time      1.5147

 eigenvalue-minimisations  :  4776
 total energy-change (2. order) :-0.9798724E+02  (-0.9706491E+02)
 number of electron      68.0000000 magnetization 
 augmentation part       68.0000000 magnetization 

 Free energy of the ion-electron system (eV)
  ---------------------------------------------------
  alpha Z        PSCENC =        81.91423797
  Ewald energy   TEWEN  =     -2364.59881513
  -Hartree energ DENC   =     -1465.29363950
  -exchange      EXHF   =         0.00000000
  -V(xc)+E(xc)   XCENC  =       239.99837957
  PAW double counting   =      3248.17806028    -3233.35212689
  entropy T*S    EENTRO =        -0.00000000
  eigenvalues    EBANDS =      -735.67043235
  atomic energy  EATOM  =      4140.60493646
  ---------------------------------------------------
  free energy    TOTEN  =       -88.21939960 eV

  energy without entropy =      -88.21939960  energy(sigma->0) =      -88.21939960


--------------------------------------------------------------------------------------------------------




--------------------------------------- Iteration      1(   4)  ---------------------------------------


    TRIAL :  cpu time      1.7208: real time      1.7214
    CORREC:  cpu time      0.0003: real time      0.0003
    --------------------------------------------
      LOOP:  cpu time      1.7365: real time      1.7505

 eigenvalue-minimisations  :  5736
 total energy-change (2. order) :-0.3064616E+01  (-0.3052274E+01)
 number of electron      68.0000000 magnetization 
 augmentation part       68.0000000 magnetization 

 Free energy of the ion-electron system (eV)
  ---------------------------------------------------
  alpha Z        PSCENC =        81.91423797
  Ewald energy   TEWEN  =     -2364.59881513
  -Hartree energ DENC   =     -1465.29363950
  -exchange      EXHF   =         0.00000000
  -V(xc)+E(xc)   XCENC  =       239.99837957
  PAW double counting   =      3248.17806028    -3233.35212689
  entropy T*S    EENTRO =        -0.00000000
  eigenvalues    EBANDS =      -738.73504831
  atomic energy  EATOM  =      4140.60493646
  ---------------------------------------------------
  free energy    TOTEN  =       -91.28401556 eV

  energy without entropy =      -91.28401556  energy(sigma->0) =      -91.28401556


--------------------------------------------------------------------------------------------------------




--------------------------------------- Iteration      1(   5)  ---------------------------------------


    TRIAL :  cpu time      1.5765: real time      1.5769
    CORREC:  cpu time      0.0004: real time      0.0004
    CHARGE:  cpu time      0.0972: real time      0.0977
    --------------------------------------------
      LOOP:  cpu time      1.6854: real time      1.7026

 eigenvalue-minimisations  :  5168
 total energy-change (2. order) :-0.7542191E-01  (-0.7537070E-01)
 number of electron      68.0000001 magnetization 
 augmentation part        0.6258306 magnetization 

 Free energy of the ion-electron system (eV)
  ---------------------------------------------------
  alpha Z        PSCENC =        81.91423797
  Ewald energy   TEWEN  =     -2364.59881513
  -Hartree energ DENC   =     -1465.29363950
  -exchange      EXHF   =         0.00000000
  -V(xc)+E(xc)   XCENC  =       239.99837957
  PAW double counting   =      3248.17806028    -3233.35212689
  entropy T*S    EENTRO =        -0.00000000
  eigenvalues    EBANDS =      -738.81047022
  atomic energy  EATOM  =      4140.60493646
  ---------------------------------------------------
  free energy    TOTEN  =       -91.35943747 eV

  energy without entropy =      -91.35943747  energy(sigma->0) =      -91.35943747


--------------------------------------------------------------------------------------------------------




--------------------------------------- Iteration      1(   6)  ---------------------------------------


    POTLOK:  cpu time      0.5897: real time      0.5900
    SETDIJ:  cpu time      0.0636: real time      0.0636
    TRIAL :  cpu time      0.8889: real time      0.8909
    CORREC:  cpu time      1.1855: real time      1.1863
    CHARGE:  cpu time      0.0842: real time      0.0842
    --------------------------------------------
      LOOP:  cpu time      2.8257: real time      2.8444

 eigenvalue-minimisations  :     0
 total energy-change (2. order) : 0.1920624E+02  (-0.1024900E+02)
 number of electron      68.0000001 magnetization 
 augmentation part        0.4256170 magnetization 

 Free energy of the ion-electron system (eV)
  ---------------------------------------------------
  alpha Z        PSCENC =        81.91423797
  Ewald energy   TEWEN  =     -2364.59881513
  -Hartree energ DENC   =     -1777.53207798
  -exchange      EXHF   =         0.00000000
  -V(xc)+E(xc)   XCENC  =       260.69782998
  PAW double counting   =     30296.78878327   -30287.34766211
  entropy T*S    EENTRO =        -0.00000000
  eigenvalues    EBANDS =      -422.68042880
  atomic energy  EATOM  =      4140.60493646
  ---------------------------------------------------
  free energy    TOTEN  =       -72.15319635 eV

  energy without entropy =      -72.15319635  energy(sigma->0) =      -72.15319635


--------------------------------------------------------------------------------------------------------




--------------------------------------- Iteration      1(   7)  ---------------------------------------


    POTLOK:  cpu time      0.5894: real time      0.5896
    SETDIJ:  cpu time      0.0647: real time      0.0647
    TRIAL :  cpu time      0.8508: real time      0.8510
    CORREC:  cpu time      1.1740: real time      1.1743
    CHARGE:  cpu time      0.0838: real time      0.0838
    --------------------------------------------
      LOOP:  cpu time      2.7913: real time      2.7922

 eigenvalue-minimisations  :     0
 total energy-change (2. order) :-0.1027871E+02  (-0.1124817E+01)
 number of electron      68.0000001 magnetization 
 augmentation part        0.3562205 magnetization 

 Free energy of the ion-electron system (eV)
  ---------------------------------------------------
  alpha Z        PSCENC =        81.91423797
  Ewald energy   TEWEN  =     -2364.59881513
  -Hartree energ DENC   =     -1607.04082779
  -exchange      EXHF   =         0.00000000
  -V(xc)+E(xc)   XCENC  =       249.73342876
  PAW double counting   =     38446.33145841   -38434.32569836
  entropy T*S    EENTRO =        -0.00000000
  eigenvalues    EBANDS =      -595.05062514
  atomic energy  EATOM  =      4140.60493646
  ---------------------------------------------------
  free energy    TOTEN  =       -82.43190484 eV

  energy without entropy =      -82.43190484  energy(sigma->0) =      -82.43190484


--------------------------------------------------------------------------------------------------------




--------------------------------------- Iteration      1(   8)  ---------------------------------------


    POTLOK:  cpu time      0.5888: real time      0.5891
    SETDIJ:  cpu time      0.0635: real time      0.0635
    TRIAL :  cpu time      0.8529: real time      0.8530
    CORREC:  cpu time      1.1727: real time      1.1733
    CHARGE:  cpu time      0.0832: real time      0.0832
    --------------------------------------------
      LOOP:  cpu time      2.7737: real time      2.7911

 eigenvalue-minimisations  :     0
 total energy-change (2. order) :-0.1125586E+01  (-0.3006252E+00)
 number of electron      68.0000001 magnetization 
 augmentation part        0.3626275 magnetization 

 Free energy of the ion-electron system (eV)
  ---------------------------------------------------
  alpha Z        PSCENC =        81.91423797
  Ewald energy   TEWEN  =     -2364.59881513
  -Hartree energ DENC   =     -1611.25727663
  -exchange      EXHF   =         0.00000000
  -V(xc)+E(xc)   XCENC  =       249.78037352
  PAW double counting   =     38956.89397383   -38944.50124886
  entropy T*S    EENTRO =        -0.00000000
  eigenvalues    EBANDS =      -592.39367243
  atomic energy  EATOM  =      4140.60493646
  ---------------------------------------------------
  free energy    TOTEN  =       -83.55749128 eV

  energy without entropy =      -83.55749128  energy(sigma->0) =      -83.55749128


--------------------------------------------------------------------------------------------------------




--------------------------------------- Iteration      1(   9)  ---------------------------------------


    POTLOK:  cpu time      0.5890: real time      0.5890
    SETDIJ:  cpu time      0.0636: real time      0.0636
    TRIAL :  cpu time      0.8515: real time      0.8517
    CORREC:  cpu time      1.1752: real time      1.1756
    CHARGE:  cpu time      0.0837: real time      0.0839
    --------------------------------------------
      LOOP:  cpu time      2.7773: real time      2.7935

 eigenvalue-minimisations  :     0
 total energy-change (2. order) :-0.3006589E+00  (-0.9441696E-01)
 number of electron      68.0000001 magnetization 
 augmentation part        0.3701091 magnetization 

 Free energy of the ion-electron system (eV)
  ---------------------------------------------------
  alpha Z        PSCENC =        81.91423797
  Ewald energy   TEWEN  =     -2364.59881513
  -Hartree energ DENC   =     -1612.26323454
  -exchange      EXHF   =         0.00000000
  -V(xc)+E(xc)   XCENC  =       249.80972184
  PAW double counting   =     39454.56716226   -39442.18220940
  entropy T*S    EENTRO =        -0.00000000
  eigenvalues    EBANDS =      -591.70994963
  atomic energy  EATOM  =      4140.60493646
  ---------------------------------------------------
  free energy    TOTEN  =       -83.85815018 eV

  energy without entropy =      -83.85815018  energy(sigma->0) =      -83.85815018


--------------------------------------------------------------------------------------------------------




--------------------------------------- Iteration      1(  10)  ---------------------------------------


    POTLOK:  cpu time      0.6656: real time      0.6657
    SETDIJ:  cpu time      0.0636: real time      0.0636
    TRIAL :  cpu time      0.8526: real time      0.8530
    CORREC:  cpu time      1.1739: real time      1.1742
    CHARGE:  cpu time      0.0956: real time      0.0956
    --------------------------------------------
      LOOP:  cpu time      2.8636: real time      2.8809

 eigenvalue-minimisations  :     0
 total energy-change (2. order) :-0.9428504E-01  (-0.2683331E-01)
 number of electron      68.0000001 magnetization 
 augmentation part        0.3733101 magnetization 

 Free energy of the ion-electron system (eV)
  ---------------------------------------------------
  alpha Z        PSCENC =        81.91423797
  Ewald energy   TEWEN  =     -2364.59881513
  -Hartree energ DENC   =     -1607.86671004
  -exchange      EXHF   =         0.00000000
  -V(xc)+E(xc)   XCENC  =       249.52948598
  PAW double counting   =     39206.46763186   -39194.09934515
  entropy T*S    EENTRO =        -0.00000000
  eigenvalues    EBANDS =      -595.90385717
  atomic energy  EATOM  =      4140.60493646
  ---------------------------------------------------
  free energy    TOTEN  =       -83.95243522 eV

  energy without entropy =      -83.95243522  energy(sigma->0) =      -83.95243522


--------------------------------------------------------------------------------------------------------




--------------------------------------- Iteration      1(  11)  ---------------------------------------


    POTLOK:  cpu time      0.5901: real time      0.5904
    SETDIJ:  cpu time      0.0637: real time      0.0637
    TRIAL :  cpu time      0.8505: real time      0.8508
    CORREC:  cpu time      1.1725: real time      1.1728
    CHARGE:  cpu time      0.0835: real time      0.0835
    --------------------------------------------
      LOOP:  cpu time      2.7753: real time      2.7903

 eigenvalue-minimisations  :     0
 total energy-change (2. order) :-0.2683449E-01  (-0.7482019E-02)
 number of electron      68.0000001 magnetization 
 augmentation part        0.3736749 magnetization 

 Free energy of the ion-electron system (eV)
  ---------------------------------------------------
  alpha Z        PSCENC =        81.91423797
  Ewald energy   TEWEN  =     -2364.59881513
  -Hartree energ DENC   =     -1608.12321191
  -exchange      EXHF   =         0.00000000
  -V(xc)+E(xc)   XCENC  =       249.53167110
  PAW double counting   =     38911.24057942   -38898.90073635
  entropy T*S    EENTRO =        -0.00000000
  eigenvalues    EBANDS =      -595.64793125
  atomic energy  EATOM  =      4140.60493646
  ---------------------------------------------------
  free energy    TOTEN  =       -83.97926971 eV

  energy without entropy =      -83.97926971  energy(sigma->0) =      -83.97926971


--------------------------------------------------------------------------------------------------------




--------------------------------------- Iteration      1(  12)  ---------------------------------------


    POTLOK:  cpu time      0.5899: real time      0.5901
    SETDIJ:  cpu time      0.0635: real time      0.0635
    TRIAL :  cpu time      0.8505: real time      0.8507
    CORREC:  cpu time      1.1738: real time      1.1741
    CHARGE:  cpu time      0.0842: real time      0.0842
    --------------------------------------------
      LOOP:  cpu time      2.7912: real time      2.7923

 eigenvalue-minimisations  :     0
 total energy-change (2. order) :-0.7481711E-02  (-0.2007377E-02)
 number of electron      68.0000001 magnetization 
 augmentation part        0.3728684 magnetization 

 Free energy of the ion-electron system (eV)
  ---------------------------------------------------
  alpha Z        PSCENC =        81.91423797
  Ewald energy   TEWEN  =     -2364.59881513
  -Hartree energ DENC   =     -1607.65311470
  -exchange      EXHF   =         0.00000000
  -V(xc)+E(xc)   XCENC  =       249.49889759
  PAW double counting   =     39040.30155292   -39027.95982478
  entropy T*S    EENTRO =        -0.00000000
  eigenvalues    EBANDS =      -596.09462175
  atomic energy  EATOM  =      4140.60493646
  ---------------------------------------------------
  free energy    TOTEN  =       -83.98675142 eV

  energy without entropy =      -83.98675142  energy(sigma->0) =      -83.98675142


--------------------------------------------------------------------------------------------------------




--------------------------------------- Iteration      1(  13)  ---------------------------------------


    POTLOK:  cpu time      0.5887: real time      0.5889
    SETDIJ:  cpu time      0.0637: real time      0.0637
    TRIAL :  cpu time      0.8549: real time      0.8552
    CORREC:  cpu time      1.1736: real time      1.1739
    CHARGE:  cpu time      0.0837: real time      0.0837
    --------------------------------------------
      LOOP:  cpu time      2.7834: real time      2.7955

 eigenvalue-minimisations  :     0
 total energy-change (2. order) :-0.2005679E-02  (-0.5296189E-03)
 number of electron      68.0000001 magnetization 
 augmentation part        0.3726604 magnetization 

 Free energy of the ion-electron system (eV)
  ---------------------------------------------------
  alpha Z        PSCENC =        81.91423797
  Ewald energy   TEWEN  =     -2364.59881513
  -Hartree energ DENC   =     -1607.26709726
  -exchange      EXHF   =         0.00000000
  -V(xc)+E(xc)   XCENC  =       249.47837038
  PAW double counting   =     39144.86234430   -39132.51359817
  entropy T*S    EENTRO =        -0.00000000
  eigenvalues    EBANDS =      -596.46913565
  atomic energy  EATOM  =      4140.60493646
  ---------------------------------------------------
  free energy    TOTEN  =       -83.98875710 eV

  energy without entropy =      -83.98875710  energy(sigma->0) =      -83.98875710


--------------------------------------------------------------------------------------------------------




--------------------------------------- Iteration      1(  14)  ---------------------------------------


    POTLOK:  cpu time      0.5902: real time      0.5902
    SETDIJ:  cpu time      0.0637: real time      0.0637
    TRIAL :  cpu time      0.8510: real time      0.8512
    CORREC:  cpu time      1.1728: real time      1.1731
    CHARGE:  cpu time      0.0836: real time      0.0839
    --------------------------------------------
      LOOP:  cpu time      2.7750: real time      2.7911

 eigenvalue-minimisations  :     0
 total energy-change (2. order) :-0.5286416E-03  (-0.1663243E-03)
 number of electron      68.0000001 magnetization 
 augmentation part        0.3726831 magnetization 

 Free energy of the ion-electron system (eV)
  ---------------------------------------------------
  alpha Z        PSCENC =        81.91423797
  Ewald energy   TEWEN  =     -2364.59881513
  -Hartree energ DENC   =     -1607.29699981
  -exchange      EXHF   =         0.00000000
  -V(xc)+E(xc)   XCENC  =       249.48008560
  PAW double counting   =     39128.04433721   -39115.69555234
  entropy T*S    EENTRO =        -0.00000000
  eigenvalues    EBANDS =      -596.44151569
  atomic energy  EATOM  =      4140.60493646
  ---------------------------------------------------
  free energy    TOTEN  =       -83.98928574 eV

  energy without entropy =      -83.98928574  energy(sigma->0) =      -83.98928574


--------------------------------------------------------------------------------------------------------




--------------------------------------- Iteration      1(  15)  ---------------------------------------


    POTLOK:  cpu time      0.5886: real time      0.5886
    SETDIJ:  cpu time      0.0637: real time      0.0637
    TRIAL :  cpu time      0.8511: real time      0.8514
    CORREC:  cpu time      1.1743: real time      1.1746
    CHARGE:  cpu time      0.0836: real time      0.0836
    --------------------------------------------
      LOOP:  cpu time      2.7911: real time      2.7919

 eigenvalue-minimisations  :     0
 total energy-change (2. order) :-0.1668297E-03  (-0.6280235E-04)
 number of electron      68.0000001 magnetization 
 augmentation part        0.3727032 magnetization 

 Free energy of the ion-electron system (eV)
  ---------------------------------------------------
  alpha Z        PSCENC =        81.91423797
  Ewald energy   TEWEN  =     -2364.59881513
  -Hartree energ DENC   =     -1607.27484534
  -exchange      EXHF   =         0.00000000
  -V(xc)+E(xc)   XCENC  =       249.47755600
  PAW double counting   =     39088.68511360   -39076.33686826
  entropy T*S    EENTRO =        -0.00000000
  eigenvalues    EBANDS =      -596.46076785
  atomic energy  EATOM  =      4140.60493646
  ---------------------------------------------------
  free energy    TOTEN  =       -83.98945257 eV

  energy without entropy =      -83.98945257  energy(sigma->0) =      -83.98945257


--------------------------------------------------------------------------------------------------------




--------------------------------------- Iteration      1(  16)  ---------------------------------------


    POTLOK:  cpu time      0.5911: real time      0.5914
    SETDIJ:  cpu time      0.0636: real time      0.0636
    TRIAL :  cpu time      0.9360: real time      0.9362
    CORREC:  cpu time      1.1754: real time      1.1756
    CHARGE:  cpu time      0.0843: real time      0.0843
    --------------------------------------------
      LOOP:  cpu time      2.8630: real time      2.8814

 eigenvalue-minimisations  :     0
 total energy-change (2. order) :-0.6301337E-04  (-0.2603628E-04)
 number of electron      68.0000001 magnetization 
 augmentation part        0.3725948 magnetization 

 Free energy of the ion-electron system (eV)
  ---------------------------------------------------
  alpha Z        PSCENC =        81.91423797
  Ewald energy   TEWEN  =     -2364.59881513
  -Hartree energ DENC   =     -1607.30901564
  -exchange      EXHF   =         0.00000000
  -V(xc)+E(xc)   XCENC  =       249.47955842
  PAW double counting   =     39070.67383285   -39058.32613183
  entropy T*S    EENTRO =        -0.00000000
  eigenvalues    EBANDS =      -596.42811868
  atomic energy  EATOM  =      4140.60493646
  ---------------------------------------------------
  free energy    TOTEN  =       -83.98951558 eV

  energy without entropy =      -83.98951558  energy(sigma->0) =      -83.98951558


--------------------------------------------------------------------------------------------------------




--------------------------------------- Iteration      1(  17)  ---------------------------------------


    POTLOK:  cpu time      0.5887: real time      0.5889
    SETDIJ:  cpu time      0.0647: real time      0.0647
    TRIAL :  cpu time      0.8524: real time      0.8526
    CORREC:  cpu time      1.1730: real time      1.1732
    CHARGE:  cpu time      0.0844: real time      0.0844
    --------------------------------------------
      LOOP:  cpu time      2.7766: real time      2.7935

 eigenvalue-minimisations  :     0
 total energy-change (2. order) :-0.2577201E-04  (-0.9208219E-05)
 number of electron      68.0000001 magnetization 
 augmentation part        0.3725024 magnetization 

 Free energy of the ion-electron system (eV)
  ---------------------------------------------------
  alpha Z        PSCENC =        81.91423797
  Ewald energy   TEWEN  =     -2364.59881513
  -Hartree energ DENC   =     -1607.31737808
  -exchange      EXHF   =         0.00000000
  -V(xc)+E(xc)   XCENC  =       249.48003730
  PAW double counting   =     39078.88342277   -39066.53507292
  entropy T*S    EENTRO =        -0.00000000
  eigenvalues    EBANDS =      -596.42090973
  atomic energy  EATOM  =      4140.60493646
  ---------------------------------------------------
  free energy    TOTEN  =       -83.98954135 eV

  energy without entropy =      -83.98954135  energy(sigma->0) =      -83.98954135


--------------------------------------------------------------------------------------------------------




--------------------------------------- Iteration      1(  18)  ---------------------------------------


    POTLOK:  cpu time      0.5891: real time      0.5894
    SETDIJ:  cpu time      0.0637: real time      0.0637
    TRIAL :  cpu time      0.8507: real time      0.8510
    CORREC:  cpu time      1.1740: real time      1.1744
    CHARGE:  cpu time      0.0833: real time      0.0833
    --------------------------------------------
      LOOP:  cpu time      2.7894: real time      2.7904

 eigenvalue-minimisations  :     0
 total energy-change (2. order) :-0.9005584E-05  (-0.2777558E-05)
 number of electron      68.0000001 magnetization 
 augmentation part        0.3724903 magnetization 

 Free energy of the ion-electron system (eV)
  ---------------------------------------------------
  alpha Z        PSCENC =        81.91423797
  Ewald energy   TEWEN  =     -2364.59881513
  -Hartree energ DENC   =     -1607.32350096
  -exchange      EXHF   =         0.00000000
  -V(xc)+E(xc)   XCENC  =       249.48026655
  PAW double counting   =     39091.84374190   -39079.49474540
  entropy T*S    EENTRO =        -0.00000000
  eigenvalues    EBANDS =      -596.41567175
  atomic energy  EATOM  =      4140.60493646
  ---------------------------------------------------
  free energy    TOTEN  =       -83.98955036 eV

  energy without entropy =      -83.98955036  energy(sigma->0) =      -83.98955036


--------------------------------------------------------------------------------------------------------




--------------------------------------- Iteration      1(  19)  ---------------------------------------


    POTLOK:  cpu time      0.5902: real time      0.5903
    SETDIJ:  cpu time      0.0634: real time      0.0636
    TRIAL :  cpu time      0.8543: real time      0.8544
    CORREC:  cpu time      1.1745: real time      1.1751
    CHARGE:  cpu time      0.0837: real time      0.0837
    --------------------------------------------
      LOOP:  cpu time      2.7800: real time      2.7970

 eigenvalue-minimisations  :     0
 total energy-change (2. order) :-0.2712914E-05  (-0.7810997E-06)
 number of electron      68.0000001 magnetization 
 augmentation part        0.3724837 magnetization 

 Free energy of the ion-electron system (eV)
  ---------------------------------------------------
  alpha Z        PSCENC =        81.91423797
  Ewald energy   TEWEN  =     -2364.59881513
  -Hartree energ DENC   =     -1607.33659613
  -exchange      EXHF   =         0.00000000
  -V(xc)+E(xc)   XCENC  =       249.48110569
  PAW double counting   =     39097.18391517   -39084.83488650
  entropy T*S    EENTRO =        -0.00000000
  eigenvalues    EBANDS =      -596.40345059
  atomic energy  EATOM  =      4140.60493646
  ---------------------------------------------------
  free energy    TOTEN  =       -83.98955307 eV

  energy without entropy =      -83.98955307  energy(sigma->0) =      -83.98955307


--------------------------------------------------------------------------------------------------------




--------------------------------------- Iteration      1(  20)  ---------------------------------------


    POTLOK:  cpu time      0.5894: real time      0.5894
    SETDIJ:  cpu time      0.0636: real time      0.0636
    TRIAL :  cpu time      0.8612: real time      0.8615
    CORREC:  cpu time      1.2069: real time      1.2071
    CHARGE:  cpu time      0.0901: real time      0.0901
    --------------------------------------------
      LOOP:  cpu time      2.8235: real time      2.8418

 eigenvalue-minimisations  :     0
 total energy-change (2. order) :-0.7860945E-06  (-0.2333827E-06)
 number of electron      68.0000001 magnetization 
 augmentation part        0.3724902 magnetization 

 Free energy of the ion-electron system (eV)
  ---------------------------------------------------
  alpha Z        PSCENC =        81.91423797
  Ewald energy   TEWEN  =     -2364.59881513
  -Hartree energ DENC   =     -1607.32985658
  -exchange      EXHF   =         0.00000000
  -V(xc)+E(xc)   XCENC  =       249.48068404
  PAW double counting   =     39097.31445304   -39084.96535627
  entropy T*S    EENTRO =        -0.00000000
  eigenvalues    EBANDS =      -596.40983738
  atomic energy  EATOM  =      4140.60493646
  ---------------------------------------------------
  free energy    TOTEN  =       -83.98955386 eV

  energy without entropy =      -83.98955386  energy(sigma->0) =      -83.98955386


--------------------------------------------------------------------------------------------------------




--------------------------------------- Iteration      1(  21)  ---------------------------------------


    POTLOK:  cpu time      0.5964: real time      0.5965
    SETDIJ:  cpu time      0.0652: real time      0.0652
    TRIAL :  cpu time      0.9317: real time      0.9320
    CORREC:  cpu time      1.2132: real time      1.2134
    CHARGE:  cpu time      0.0840: real time      0.0840
    --------------------------------------------
      LOOP:  cpu time      2.9062: real time      2.9193

 eigenvalue-minimisations  :     0
 total energy-change (2. order) :-0.2399320E-06  (-0.7543858E-07)
 number of electron      68.0000001 magnetization 
 augmentation part        0.3724912 magnetization 

 Free energy of the ion-electron system (eV)
  ---------------------------------------------------
  alpha Z        PSCENC =        81.91423797
  Ewald energy   TEWEN  =     -2364.59881513
  -Hartree energ DENC   =     -1607.33101032
  -exchange      EXHF   =         0.00000000
  -V(xc)+E(xc)   XCENC  =       249.48074886
  PAW double counting   =     39095.89998328   -39083.55094883
  entropy T*S    EENTRO =        -0.00000000
  eigenvalues    EBANDS =      -596.40868638
  atomic energy  EATOM  =      4140.60493646
  ---------------------------------------------------
  free energy    TOTEN  =       -83.98955410 eV

  energy without entropy =      -83.98955410  energy(sigma->0) =      -83.98955410


--------------------------------------------------------------------------------------------------------




--------------------------------------- Iteration      1(  22)  ---------------------------------------


    POTLOK:  cpu time      0.5888: real time      0.5891
    SETDIJ:  cpu time      0.0637: real time      0.0637
    TRIAL :  cpu time      0.8623: real time      0.8626
    CORREC:  cpu time      1.1827: real time      1.1830
    EDDIAG:  cpu time      0.4620: real time      0.4629
    CHARGE:  cpu time      0.0841: real time      0.0841
    --------------------------------------------
      LOOP:  cpu time      3.2553: real time      3.2757

 eigenvalue-minimisations  :     0
 total energy-change (2. order) :-0.7925701E-07  (-0.3045961E-07)
 number of electron      68.0000001 magnetization 
 augmentation part        0.3724912 magnetization 

 Free energy of the ion-electron system (eV)
  ---------------------------------------------------
  alpha Z        PSCENC =        81.91423797
  Ewald energy   TEWEN  =     -2364.59881513
  -Hartree energ DENC   =     -1607.32963724
  -exchange      EXHF   =         0.00000000
  -V(xc)+E(xc)   XCENC  =       249.48066446
  PAW double counting   =     39094.97595612   -39082.62692542
  entropy T*S    EENTRO =        -0.00000000
  eigenvalues    EBANDS =      -596.40997139
  atomic energy  EATOM  =      4140.60493646
  ---------------------------------------------------
  free energy    TOTEN  =       -83.98955418 eV

  energy without entropy =      -83.98955418  energy(sigma->0) =      -83.98955418


--------------------------------------------------------------------------------------------------------


  average scaling for gradient   0.7361


 average (electrostatic) potential at core
  the test charge radii are     0.5770  0.4325  0.5955
  (the norm of the test charge is              1.0000)
       1 -84.7420       2 -84.7420       3 -84.7420       4 -84.7420       5 -42.6860
       6 -42.6860       7 -42.6860       8 -42.6860       9-114.1461      10-115.0986
      11-114.1461      12-115.0986      13-114.1462      14-114.1462      15-115.0986
      16-115.0986



 E-fermi :  -0.2660     XC(G=0):  -8.8094     alpha+bet : -7.5594

 Fermi energy:        -0.2659523361

 k-point     1 :       0.0000    0.0000    0.0000
  band No.  band energies     occupation 
      1     -22.5594      2.00000
      2     -22.3456      2.00000
      3     -21.5160      2.00000
      4     -21.4937      2.00000
      5     -20.1347      2.00000
      6     -20.1148      2.00000
      7     -19.4130      2.00000
[...]
     23      -4.5326      2.00000
     24      -4.4292      2.00000
     25      -3.0518      2.00000
     26      -2.9420      2.00000
     27      -2.2990      2.00000
     28      -1.9793      2.00000
     29      -1.9413      2.00000
     30      -1.8512      2.00000
     31      -1.8058      2.00000
     32      -1.7371      2.00000
     33      -0.6344      2.00000
     34      -0.6199      2.00000
     35       3.2683      0.00000
     36       3.3763      0.00000
     37       6.5822      0.00000
     38       6.6209      0.00000
     39       7.7272      0.00000
     40       8.6111      0.00000
     41       9.5143      0.00000
     42       9.8574      0.00000
     43      10.7690      0.00000
     44      11.0364      0.00000

 k-point    42 :      -0.1667    0.2500    0.4000
  band No.  band energies     occupation 
      1     -22.4328      2.00000
      2     -22.3547      2.00000
      3     -21.5939      2.00000
      4     -21.5613      2.00000
      5     -20.1063      2.00000
      6     -20.1011      2.00000
      7     -19.4495      2.00000
      8     -19.4476      2.00000
      9     -11.9727      2.00000
     10     -11.9627      2.00000
     11      -9.3777      2.00000
     12      -9.3613      2.00000
     13      -7.2580      2.00000
     14      -7.1902      2.00000
     15      -6.7003      2.00000
     16      -6.6274      2.00000
     17      -6.0875      2.00000
     18      -5.8611      2.00000
     19      -5.7045      2.00000
     20      -5.3588      2.00000
     21      -4.6228      2.00000
     22      -4.5378      2.00000
     23      -4.3376      2.00000
     24      -4.2311      2.00000
     25      -3.3809      2.00000
     26      -3.2276      2.00000
     27      -2.3109      2.00000
     28      -2.0072      2.00000
     29      -1.9367      2.00000
     30      -1.8927      2.00000
     31      -1.8155      2.00000
     32      -1.7478      2.00000
     33      -0.7787      2.00000
     34      -0.7226      2.00000
     35       3.0728      0.00000
     36       3.1787      0.00000
     37       6.7522      0.00000
     38       6.7992      0.00000
     39       7.7182      0.00000
     40       8.7312      0.00000
     41       9.3693      0.00000
     42       9.3958      0.00000
     43      10.4599      0.00000
     44      10.7631      0.00000

 k-point    43 :       0.0000    0.5000    0.4000
  band No.  band energies     occupation 
      1     -22.4358      2.00000
      2     -22.4357      2.00000
      3     -21.5218      2.00000
      4     -21.5218      2.00000
      5     -20.1487      2.00000
      6     -20.1487      2.00000
      7     -19.3855      2.00000
      8     -19.3855      2.00000
      9     -12.1299      2.00000
     10     -12.1299      2.00000
     11      -9.4086      2.00000
     12      -9.4086      2.00000
     13      -6.9052      2.00000
     14      -6.9052      2.00000
     15      -6.7902      2.00000
     16      -6.7902      2.00000
     17      -5.9478      2.00000
     18      -5.9478      2.00000
     19      -5.5813      2.00000
     20      -5.5813      2.00000
     21      -4.4810      2.00000
     22      -4.4809      2.00000
     23      -3.8967      2.00000
     24      -3.8967      2.00000
     25      -3.6184      2.00000
     26      -3.6183      2.00000
     27      -2.1662      2.00000
     28      -2.1662      2.00000
     29      -2.0038      2.00000
     30      -2.0038      2.00000
     31      -1.7883      2.00000
     32      -1.7883      2.00000
     33      -0.7326      2.00000
     34      -0.7326      2.00000
     35       2.9924      0.00000
     36       2.9924      0.00000
     37       6.8579      0.00000
     38       6.8579      0.00000
     39       8.2968      0.00000
     40       8.2979      0.00000
     41       9.3034      0.00000
     42       9.3186      0.00000
     43      10.2279      0.00000
     44      10.3528      0.00000

 k-point    44 :       0.1667    0.5000    0.4000
  band No.  band energies     occupation 
      1     -22.3866      2.00000
      2     -22.3866      2.00000
      3     -21.5851      2.00000
      4     -21.5851      2.00000
      5     -20.1124      2.00000
      6     -20.1124      2.00000
      7     -19.4411      2.00000
      8     -19.4411      2.00000
      9     -11.9640      2.00000
     10     -11.9640      2.00000
     11      -9.3775      2.00000
     12      -9.3775      2.00000
     13      -7.2016      2.00000
     14      -7.2016      2.00000
     15      -6.6578      2.00000
     16      -6.6578      2.00000
     17      -5.8846      2.00000
     18      -5.8846      2.00000
     19      -5.7110      2.00000
     20      -5.7110      2.00000
     21      -4.5748      2.00000
     22      -4.5748      2.00000
     23      -4.2512      2.00000
     24      -4.2512      2.00000
     25      -3.2514      2.00000
     26      -3.2514      2.00000
     27      -2.0863      2.00000
     28      -2.0863      2.00000
     29      -1.9529      2.00000
     30      -1.9529      2.00000
     31      -1.8172      2.00000
     32      -1.8172      2.00000
     33      -0.7438      2.00000
     34      -0.7438      2.00000
     35       3.0628      0.00000
     36       3.0628      0.00000
     37       6.7938      0.00000
     38       6.7938      0.00000
     39       8.5864      0.00000
     40       8.5876      0.00000
     41       9.1890      0.00000
     42       9.1918      0.00000
     43       9.9544      0.00000
     44       9.9877      0.00000

 k-point    45 :       0.3333    0.5000    0.4000
  band No.  band energies     occupation 
      1     -22.2649      2.00000
      2     -22.2649      2.00000
      3     -21.7352      2.00000
      4     -21.7352      2.00000
      5     -19.9970      2.00000
      6     -19.9970      2.00000
      7     -19.5930      2.00000
      8     -19.5930      2.00000
      9     -11.5688      2.00000
     10     -11.5688      2.00000
     11      -9.4119      2.00000
     12      -9.4119      2.00000
     13      -7.5540      2.00000
     14      -7.5540      2.00000
     15      -6.5273      2.00000
     16      -6.5273      2.00000
     17      -6.0433      2.00000
     18      -6.0433      2.00000
     19      -5.6924      2.00000
     20      -5.6924      2.00000
     21      -4.8540      2.00000
     22      -4.8540      2.00000
     23      -4.4754      2.00000
     24      -4.4754      2.00000
     25      -2.9611      2.00000
     26      -2.9611      2.00000
     27      -2.0113      2.00000
     28      -2.0113      2.00000
     29      -1.9908      2.00000
     30      -1.9908      2.00000
     31      -1.8098      2.00000
     32      -1.8098      2.00000
     33      -0.6277      2.00000
     34      -0.6277      2.00000
     35       3.2691      0.00000
     36       3.2691      0.00000
     37       6.6210      0.00000
     38       6.6210      0.00000
     39       8.6810      0.00000
     40       8.6811      0.00000
     41       9.2066      0.00000
     42       9.2079      0.00000
     43      10.1291      0.00000
     44      10.1351      0.00000

 k-point    46 :       0.5000    0.5000    0.4000
  band No.  band energies     occupation 
      1     -22.1743      2.00000
      2     -22.1743      2.00000
      3     -21.8400      2.00000
      4     -21.8400      2.00000
      5     -19.8463      2.00000
      6     -19.8463      2.00000
      7     -19.7611      2.00000
      8     -19.7610      2.00000
      9     -11.3137      2.00000
     10     -11.3137      2.00000
     11      -9.5275      2.00000
     12      -9.5275      2.00000
     13      -7.6239      2.00000
     14      -7.6239      2.00000
     15      -6.4657      2.00000
     16      -6.4657      2.00000
     17      -6.2868      2.00000
     18      -6.2868      2.00000
     19      -5.5318      2.00000
     20      -5.5318      2.00000
     21      -4.9867      2.00000
     22      -4.9867      2.00000
     23      -4.5853      2.00000
     24      -4.5853      2.00000
     25      -2.8580      2.00000
     26      -2.8580      2.00000
     27      -2.0881      2.00000
     28      -2.0881      2.00000
     29      -1.9515      2.00000
     30      -1.9515      2.00000
     31      -1.8293      2.00000
     32      -1.8293      2.00000
     33      -0.5075      2.00000
     34      -0.5075      2.00000
     35       3.4106      0.00000
     36       3.4106      0.00000
     37       6.5058      0.00000
     38       6.5058      0.00000
     39       8.4177      0.00000
     40       8.4178      0.00000
     41       9.4090      0.00000
     42       9.4165      0.00000
     43      10.6924      0.00000
     44      10.9627      0.00000

 k-point    47 :      -0.3333    0.5000    0.4000
  band No.  band energies     occupation 
      1     -22.2753      2.00000
      2     -22.2753      2.00000
      3     -21.7241      2.00000
      4     -21.7241      2.00000
      5     -19.9832      2.00000
      6     -19.9832      2.00000
      7     -19.6067      2.00000
      8     -19.6067      2.00000
      9     -11.5735      2.00000
     10     -11.5735      2.00000
     11      -9.4034      2.00000
     12      -9.4034      2.00000
     13      -7.5600      2.00000
     14      -7.5600      2.00000
     15      -6.4513      2.00000
     16      -6.4513      2.00000
     17      -6.2396      2.00000
     18      -6.2396      2.00000
     19      -5.5177      2.00000
     20      -5.5177      2.00000
     21      -4.8692      2.00000
     22      -4.8691      2.00000
     23      -4.5101      2.00000
     24      -4.5101      2.00000
     25      -2.9778      2.00000
     26      -2.9778      2.00000
     27      -2.1470      2.00000
     28      -2.1470      2.00000
     29      -1.9035      2.00000
     30      -1.9035      2.00000
     31      -1.7632      2.00000
     32      -1.7632      2.00000
     33      -0.6336      2.00000
     34      -0.6336      2.00000
     35       3.3310      0.00000
     36       3.3310      0.00000
     37       6.5791      0.00000
     38       6.5791      0.00000
     39       8.4258      0.00000
     40       8.4260      0.00000
     41       9.2894      0.00000
     42       9.2914      0.00000
     43      10.9011      0.00000
     44      11.0219      0.00000

 k-point    48 :      -0.1667    0.5000    0.4000
  band No.  band energies     occupation 
      1     -22.3935      2.00000
      2     -22.3935      2.00000
      3     -21.5775      2.00000
      4     -21.5775      2.00000
      5     -20.1045      2.00000
      6     -20.1045      2.00000
      7     -19.4488      2.00000
      8     -19.4488      2.00000
      9     -11.9672      2.00000
     10     -11.9672      2.00000
     11      -9.3700      2.00000
     12      -9.3700      2.00000
     13      -7.2556      2.00000
     14      -7.2556      2.00000
     15      -6.5668      2.00000
     16      -6.5668      2.00000
     17      -6.0237      2.00000
     18      -6.0237      2.00000
     19      -5.5723      2.00000
     20      -5.5723      2.00000
     21      -4.6185      2.00000
     22      -4.6185      2.00000
     23      -4.2417      2.00000
     24      -4.2417      2.00000
     25      -3.2707      2.00000
     26      -3.2707      2.00000
     27      -2.1853      2.00000
     28      -2.1853      2.00000
     29      -1.9092      2.00000
     30      -1.9092      2.00000
     31      -1.7654      2.00000
     32      -1.7654      2.00000
     33      -0.7508      2.00000
     34      -0.7508      2.00000
     35       3.1203      0.00000
     36       3.1203      0.00000
     37       6.7570      0.00000
     38       6.7570      0.00000
     39       8.3878      0.00000
     40       8.3885      0.00000
     41       9.2220      0.00000
     42       9.2246      0.00000
     43      10.4254      0.00000
     44      10.4688      0.00000


--------------------------------------------------------------------------------------------------------


 soft charge-density along one line, spin component           1
         0         1         2         3         4         5         6         7         8         9
 total charge-density along one line

 pseudopotential strength for first ion, spin component:           1
 12.622  21.242  -0.003   0.004   0.008  -0.005   0.008   0.015
 21.242  35.745  -0.005   0.008   0.014  -0.009   0.014   0.025
 -0.003  -0.005  -3.156  -0.006   0.001  -5.655  -0.010   0.002
  0.004   0.008  -0.006  -3.152  -0.001  -0.010  -5.647  -0.002
  0.008   0.014   0.001  -0.001  -3.145   0.002  -0.002  -5.634
 -0.005  -0.009  -5.655  -0.010   0.002 -10.109  -0.018   0.004
  0.008   0.014  -0.010  -5.647  -0.002  -0.018 -10.096  -0.004
  0.015   0.025   0.002  -0.002  -5.634   0.004  -0.004 -10.073
 total augmentation occupancy for first ion, spin component:           1
  8.022  -3.004   0.494  -0.579   1.765  -0.219   0.256  -0.813
 -3.004   1.253  -0.216   0.246  -0.906   0.098  -0.114   0.392
  0.494  -0.216   4.809  -3.059   0.516  -1.592   1.303  -0.217
 -0.579   0.246  -3.059   7.118  -0.612   1.303  -2.576   0.261
  1.765  -0.906   0.516  -0.612   6.300  -0.217   0.260  -2.094
 -0.219   0.098  -1.592   1.303  -0.217   0.558  -0.547   0.093
  0.256  -0.114   1.303  -2.576   0.260  -0.547   0.971  -0.113
 -0.813   0.392  -0.217   0.261  -2.094   0.093  -0.113   0.732


------------------------ aborting loop because EDIFF is reached ----------------------------------------


    FORLOC:  cpu time      0.0049: real time      0.0049
    FORNL :  cpu time      0.2786: real time      0.2787
    FORCOR:  cpu time      0.6553: real time      0.6556
    OFIELD:  cpu time      0.0024: real time      0.0026

 VOLUME and BASIS-vectors are now :
 -----------------------------------------------------------------------------
  energy-cutoff  :     1000.00
  volume of cell :      156.87
      direct lattice vectors                 reciprocal lattice vectors
     5.330000000  0.000000000  0.000000000     0.187617261 -0.000000000  0.090819072
     0.000000000  6.015000000  0.000000000     0.000000000  0.166251039 -0.000000000
    -2.368480000  0.000000000  4.892890000     0.000000000  0.000000000  0.204378190

  length of vectors
     5.330000000  6.015000000  5.435997614     0.208442655  0.166251039  0.204378190


 FORCES acting on ions:
    Electron-Ion                     Ewald-Force                    Non-Local-Force
 -----------------------------------------------------------------------------------------------
   0.552E+02 0.129E+02 -.111E+02   -.601E+02 -.109E+02 0.803E+01   0.485E+01 -.206E+01 0.318E+01
   -.552E+02 -.129E+02 0.111E+02   0.601E+02 0.109E+02 -.803E+01   -.485E+01 0.206E+01 -.318E+01
   -.552E+02 0.129E+02 0.111E+02   0.601E+02 -.109E+02 -.803E+01   -.485E+01 -.206E+01 -.318E+01
   0.552E+02 -.129E+02 -.111E+02   -.601E+02 0.109E+02 0.803E+01   0.485E+01 0.206E+01 0.318E+01
   -.518E+02 0.338E+01 -.104E+02   0.584E+02 -.329E+01 0.103E+02   -.684E+01 -.821E-01 0.616E-01
   0.518E+02 -.338E+01 0.104E+02   -.584E+02 0.329E+01 -.103E+02   0.684E+01 0.821E-01 -.616E-01
   0.518E+02 0.338E+01 0.104E+02   -.584E+02 -.329E+01 -.103E+02   0.684E+01 -.821E-01 -.616E-01
   -.518E+02 -.338E+01 -.104E+02   0.584E+02 0.329E+01 0.103E+02   -.684E+01 0.821E-01 0.616E-01
   -.789E+02 -.928E+02 0.154E+03   0.970E+02 0.119E+03 -.192E+03   -.182E+02 -.262E+02 0.376E+02
   -.309E+02 0.907E+02 -.151E+03   0.145E+02 -.116E+03 0.189E+03   0.168E+02 0.253E+02 -.374E+02
   0.789E+02 0.928E+02 -.154E+03   -.970E+02 -.119E+03 0.192E+03   0.182E+02 0.262E+02 -.376E+02
   0.309E+02 -.907E+02 0.151E+03   -.145E+02 0.116E+03 -.189E+03   -.168E+02 -.253E+02 0.374E+02
   0.789E+02 -.928E+02 -.154E+03   -.970E+02 0.119E+03 0.192E+03   0.182E+02 -.262E+02 -.376E+02
   -.789E+02 0.928E+02 0.154E+03   0.970E+02 -.119E+03 -.192E+03   -.182E+02 0.262E+02 0.376E+02
   0.309E+02 0.907E+02 0.151E+03   -.145E+02 -.116E+03 -.189E+03   -.168E+02 0.253E+02 0.374E+02
   -.309E+02 -.907E+02 -.151E+03   0.145E+02 0.116E+03 0.189E+03   0.168E+02 -.253E+02 -.374E+02
 -----------------------------------------------------------------------------------------------
   -.251E-02 -.460E-02 0.562E-02   -.533E-13 0.142E-13 0.568E-13   0.000E+00 0.000E+00 0.711E-14


 POSITION                                       TOTAL-FORCE (eV/Angst)
 -----------------------------------------------------------------------------------
     -1.59862      0.01834      4.88466        -0.088608      0.031843     -0.063162
      4.56014      5.99666      0.00823         0.088608     -0.031843      0.063162
      3.37590      3.02584      2.45467         0.088608      0.031843      0.063162
     -0.41438      2.98916      2.43822        -0.088608     -0.031843     -0.063162
      2.31294      5.40473      0.93895        -0.194241      0.002026      0.014350
      0.64858      0.61027      3.95394         0.194241     -0.002026     -0.014350
      1.83282      2.39723      1.50749         0.194241      0.002026     -0.014350
      1.12870      3.61777      3.38540        -0.194241     -0.002026      0.014350
     -0.98134      0.63432      4.01775         0.053185      0.118826     -0.208062
      1.29558      5.36572      0.99010         0.243117     -0.168887      0.278889
      3.94286      5.38068      0.87514        -0.053185     -0.118826      0.208062
      1.66594      0.64928      3.90279        -0.243117      0.168887     -0.278889
      2.75862      3.64182      3.32158        -0.053185      0.118826      0.208062
      0.20290      2.37318      1.57131         0.053185     -0.118826     -0.208062
      2.85018      2.35822      1.45634        -0.243117     -0.168887     -0.278889
      0.11134      3.65678      3.43655         0.243117      0.168887      0.278889
 -----------------------------------------------------------------------------------
    total drift:                               -0.002511     -0.004603      0.005622


--------------------------------------------------------------------------------------------------------



  FREE ENERGIE OF THE ION-ELECTRON SYSTEM (eV)
  ---------------------------------------------------
  free  energy   TOTEN  =       -83.98955418 eV

  energy  without entropy=      -83.98955418  energy(sigma->0) =      -83.98955418



--------------------------------------------------------------------------------------------------------


    POTLOK:  cpu time      0.6757: real time      0.6758


--------------------------------------------------------------------------------------------------------


 stress matrix after NEB project (eV)
      0.00000      0.00000      0.00000
      0.00000      0.00000      0.00000
      0.00000      0.00000      0.00000
  FORCES: max atom, RMS     0.406704    0.262888
  FORCE total and by dimension    1.051552    0.278889
  Stress total and by dimension    0.000000    0.000000
     LOOP+:  cpu time     61.6843: real time     62.0703
    4ORBIT:  cpu time      0.0000: real time      0.0000

 total amount of memory used by VASP MPI-rank0    44695. kBytes
=======================================================================

   base      :      30000. kBytes
   nonl-proj :       3409. kBytes
   fftplans  :        741. kBytes
   grid      :       1218. kBytes
   one-center:          3. kBytes
   wavefun   :       9324. kBytes

  
  
 General timing and accounting informations for this job:
 ========================================================
  
                  Total CPU time used (sec):       69.197
                            User time (sec):       67.142
                          System time (sec):        2.055
                         Elapsed time (sec):       69.922
  
                   Maximum memory used (kb):      207304.
                   Average memory used (kb):          N/A
  
                          Minor page faults:       105883
                          Major page faults:          545
                 Voluntary context switches:         2969
