 vasp.6.4.1 05Apr23 (build Jun  6 2023 14:36:51) complex                         
 executed on        HPECrayEX_GCC date 2024.08.20  14:37:20
 running  256 mpi-ranks, with    1 threads/rank, on    2 nodes
 distrk:  each k-point on  128 cores,    2 groups
 distr:  one band on NCORE=  32 cores,    4 groups


--------------------------------------------------------------------------------------------------------


 INCAR:
   ALGO = Conjugate
   KPAR = 2
   NCORE = 32
   ISMEAR = 0
   SIGMA = 0.01
   PREC = Accurate
   EDIFF = 1E-7
   ENCUT = 1000
   ISIF = 0
   GGA = RE
   IVDW = 11
   LWAVE = .FALSE.
   LCHARGE = .FALSE.
   SYMPREC = 1E-7
   LWAVE = .FALSE.
   LCHARGE = .FALSE.

 POTCAR:    PAW_PBE C_h 06Feb2004                 
 POTCAR:    PAW_PBE H_h 06Feb2004                 
 POTCAR:    PAW_PBE O_h 06Feb2004                 
 POTCAR:    PAW_PBE C_h 06Feb2004                 
   VRHFIN =C: s2p2                                                                                  
   LEXCH  = PE                                                                                      
   EATOM  =   147.1560 eV,   10.8157 Ry                                                             
                                                                                                    
   TITEL  = PAW_PBE C_h 06Feb2004                                                                   
   LULTRA =        F    use ultrasoft PP ?                                                          
   IUNSCR =        1    unscreen: 0-lin 1-nonlin 2-no                                               
   RPACOR =    0.800    partial core radius                                                         
   POMASS =   12.011; ZVAL   =    4.000    mass and valenz                                          
   RCORE  =    1.100    outmost cutoff radius                                                       
   RWIGS  =    1.630; RWIGS  =    0.863    wigner-seitz radius (au A)                               
   ENMAX  =  700.000; ENMIN  =  500.000 eV                                                          
   ICORE  =        2    local potential                                                             
   LCOR   =        T    correct aug charges                                                         
   LPAW   =        T    paw PP                                                                      
   EAUG   =  946.768                                                                                
   DEXC   =    0.000                                                                                
   RMAX   =    1.128    core radius for proj-oper                                                   
   RAUG   =    1.300    factor for augmentation sphere                                              
   RDEP   =    1.162    radius for radial grids                                                     
   RDEPT  =    1.088    core radius for aug-charge                                                  
                                                                                                    
   Atomic configuration                                                                             
    4 entries                                                                                       
     n  l   j            E        occ.                                                              
     1  0  0.50      -273.3789   2.0000                                                             
     2  0  0.50       -13.7508   2.0000                                                             
     2  1  0.50        -5.2854   2.0000                                                             
     3  2  1.50        -5.4423   0.0000                                                             
   Description                                                                                      
     l       E           TYP  RCUT    TYP  RCUT                                                     
     0    -13.7508458     23  1.100                                                                 
     0     -8.2022199     23  1.100                                                                 
     1     -5.2854383     23  1.100                                                                 
     1      1.1560700     23  1.100                                                                 
     2     -5.4423304      7  1.100                                                                 
  local pseudopotential read in
  partial core-charges read in
  partial kinetic energy density read in
  atomic valenz-charges read in
  non local Contribution for L=           0  read in
    real space projection operators read in
  non local Contribution for L=           0  read in
    real space projection operators read in
  non local Contribution for L=           1  read in
    real space projection operators read in
  non local Contribution for L=           1  read in
    real space projection operators read in
    PAW grid and wavefunctions read in

   number of l-projection  operators is LMAX  =           4
   number of lm-projection operators is LMMAX =           8

 POTCAR:    PAW_PBE H_h 06Feb2004                 
   VRHFIN =H: ultrasoft test                                                                        
   LEXCH  = PE                                                                                      
   EATOM  =    12.4884 eV,    0.9179 Ry                                                             
                                                                                                    
   TITEL  = PAW_PBE H_h 06Feb2004                                                                   
   LULTRA =        F    use ultrasoft PP ?                                                          
   IUNSCR =        0    unscreen: 0-lin 1-nonlin 2-no                                               
   RPACOR =    0.000    partial core radius                                                         
   POMASS =    1.000; ZVAL   =    1.000    mass and valenz                                          
   RCORE  =    0.800    outmost cutoff radius                                                       
   RWIGS  =    0.700; RWIGS  =    0.370    wigner-seitz radius (au A)                               
   ENMAX  =  700.000; ENMIN  =  350.000 eV                                                          
   RCLOC  =    0.701    cutoff for local pot                                                        
   LCOR   =        T    correct aug charges                                                         
   LPAW   =        T    paw PP                                                                      
   EAUG   = 1000.000                                                                                
   RMAX   =    0.819    core radius for proj-oper                                                   
   RAUG   =    1.000    factor for augmentation sphere                                              
   RDEP   =    0.817    radius for radial grids                                                     
   RDEPT  =    0.817    core radius for aug-charge                                                  
                                                                                                    
   Atomic configuration                                                                             
    2 entries                                                                                       
     n  l   j            E        occ.                                                              
     1  0  0.50        -6.4927   1.0000                                                             
     2  1  0.50        -3.4015   0.0000                                                             
   Description                                                                                      
     l       E           TYP  RCUT    TYP  RCUT                                                     
     0     -6.4927493     23  0.800                                                                 
     0      6.8029130     23  0.800                                                                 
     1     -6.8029130     23  0.800                                                                 
  local pseudopotential read in
  atomic valenz-charges read in
  non local Contribution for L=           0  read in
    real space projection operators read in
  non local Contribution for L=           0  read in
    real space projection operators read in
  non local Contribution for L=           1  read in
    real space projection operators read in
    PAW grid and wavefunctions read in

   number of l-projection  operators is LMAX  =           3
   number of lm-projection operators is LMMAX =           5

 POTCAR:    PAW_PBE O_h 06Feb2004                 
   VRHFIN =O: s2p4                                                                                  
   LEXCH  = PE                                                                                      
   EATOM  =   432.3788 eV,   31.7789 Ry                                                             
                                                                                                    
   TITEL  = PAW_PBE O_h 06Feb2004                                                                   
   LULTRA =        F    use ultrasoft PP ?                                                          
   IUNSCR =        1    unscreen: 0-lin 1-nonlin 2-no                                               
   RPACOR =    0.800    partial core radius                                                         
   POMASS =   16.000; ZVAL   =    6.000    mass and valenz                                          
   RCORE  =    1.100    outmost cutoff radius                                                       
   RWIGS  =    1.400; RWIGS  =    0.741    wigner-seitz radius (au A)                               
   ENMAX  =  700.000; ENMIN  =  500.000 eV                                                          
   ICORE  =        2    local potential                                                             
   LCOR   =        T    correct aug charges                                                         
   LPAW   =        T    paw PP                                                                      
   EAUG   =  888.804                                                                                
   DEXC   =    0.000                                                                                
   RMAX   =    1.128    core radius for proj-oper                                                   
   RAUG   =    1.300    factor for augmentation sphere                                              
   RDEP   =    1.125    radius for radial grids                                                     
   RDEPT  =    1.088    core radius for aug-charge                                                  
                                                                                                    
   Atomic configuration                                                                             
    4 entries                                                                                       
     n  l   j            E        occ.                                                              
     1  0  0.50      -514.6923   2.0000                                                             
     2  0  0.50       -23.9615   2.0000                                                             
     2  1  0.50        -9.0305   4.0000                                                             
     3  2  1.50        -9.5241   0.0000                                                             
   Description                                                                                      
     l       E           TYP  RCUT    TYP  RCUT                                                     
     0    -23.9615319     23  1.100                                                                 
     0    -25.3221145     23  1.100                                                                 
     1     -9.0304911     23  1.100                                                                 
     1     -5.4802209     23  1.100                                                                 
     2     -9.5240782      7  1.100                                                                 
  local pseudopotential read in
  partial core-charges read in
  partial kinetic energy density read in
  atomic valenz-charges read in
  non local Contribution for L=           0  read in
    real space projection operators read in
  non local Contribution for L=           0  read in
    real space projection operators read in
  non local Contribution for L=           1  read in
    real space projection operators read in
  non local Contribution for L=           1  read in
    real space projection operators read in
    PAW grid and wavefunctions read in

   number of l-projection  operators is LMAX  =           4
   number of lm-projection operators is LMMAX =           8

 -----------------------------------------------------------------------------
|                                                                             |
|               ----> ADVICE to this user running VASP <----                  |
|                                                                             |
|     You enforced a specific xc type in the INCAR file but a different       |
|     type was found in the POTCAR file.                                      |
|     I HOPE YOU KNOW WHAT YOU ARE DOING!                                     |
|                                                                             |
 -----------------------------------------------------------------------------

  PAW_PBE C_h 06Feb2004                 :
 energy of atom  1       EATOM= -147.1560
 kinetic energy error for atom=    0.0031 (will be added to EATOM!!)
  PAW_PBE H_h 06Feb2004                 :
 energy of atom  2       EATOM=  -12.4884
 kinetic energy error for atom=    0.0006 (will be added to EATOM!!)
  PAW_PBE O_h 06Feb2004                 :
 energy of atom  3       EATOM= -432.3788
 kinetic energy error for atom=    0.0171 (will be added to EATOM!!)


 POSCAR:  C  H  O
  positions in cartesian coordinates
  No initial velocities read in
 exchange correlation table for  LEXCH =       40
   RHO(1)=    0.500       N(1)  =     2000
   RHO(2)=  100.500       N(2)  =     4000

 VTST: version 4.1, (05/19/21)

 CHAIN: initializing optimizer
 
 OPT: Using VASP Dynamics algorithm
 CHAIN: Read ICHAIN            0

 POSCAR:  C  H  O
  positions in cartesian coordinates
  No initial velocities read in



--------------------------------------------------------------------------------------------------------


 ion  position               nearest neighbor table
   1  0.144  0.003  0.998-   9 1.23  10 1.31   2 1.54
   2  0.856  0.997  0.002-  11 1.23  12 1.31   1 1.54
   3  0.856  0.503  0.502-  13 1.23  15 1.31   4 1.54
   4  0.144  0.497  0.498-  14 1.23  16 1.31   3 1.54
   5  0.519  0.899  0.192-  10 1.02
   6  0.481  0.101  0.808-  12 1.02
   7  0.481  0.399  0.308-  15 1.02
   8  0.519  0.601  0.692-  16 1.02
   9  0.181  0.105  0.821-   1 1.23
  10  0.333  0.892  0.202-   5 1.02   1 1.31
  11  0.819  0.895  0.179-   2 1.23
  12  0.667  0.108  0.798-   6 1.02   2 1.31
  13  0.819  0.605  0.679-   3 1.23
  14  0.181  0.395  0.321-   4 1.23
  15  0.667  0.392  0.298-   7 1.02   3 1.31
  16  0.333  0.608  0.702-   8 1.02   4 1.31

  LATTYP: Found a simple monoclinic cell.
 ALAT       =     5.3300000000
 B/A-ratio  =     1.1285178236
 C/A-ratio  =     1.0198869820
 COS(beta)  =    -0.4357029138
  
  Lattice vectors:
  
 A1 = (   5.3300000000,   0.0000000000,   0.0000000000)
 A2 = (   0.0000000000,   6.0150000000,   0.0000000000)
 A3 = (  -2.3684800000,   0.0000000000,   4.8928900000)


Analysis of symmetry for initial positions (statically):
=====================================================================
 Subroutine PRICEL returns:
 Original cell was already a primitive cell.
 

 Routine SETGRP: Setting up the symmetry group for a 
 simple monoclinic supercell.


 Subroutine GETGRP returns: Found  2 space group operations
 (whereof  2 operations were pure point group operations)
 out of a pool of  4 trial point group operations.


The static configuration has the point symmetry S_2 .


Analysis of symmetry for dynamics (positions and initial velocities):
=====================================================================
 Subroutine PRICEL returns:
 Original cell was already a primitive cell.
 

 Routine SETGRP: Setting up the symmetry group for a 
 simple monoclinic supercell.


 Subroutine GETGRP returns: Found  2 space group operations
 (whereof  2 operations were pure point group operations)
 out of a pool of  4 trial point group operations.


The dynamic configuration has the point symmetry S_2 .


 Subroutine INISYM returns: Found  2 space group operations
 (whereof  2 operations are pure point group operations),
 and found     1 'primitive' translations


----------------------------------------------------------------------------------------

                                     Primitive cell                                     

  volume of cell :     156.8658

  direct lattice vectors                    reciprocal lattice vectors
     5.330000000  0.000000000  0.000000000     0.187617261 -0.000000000  0.090819072
     0.000000000  6.015000000  0.000000000     0.000000000  0.166251039 -0.000000000
    -2.368480000  0.000000000  4.892890000     0.000000000  0.000000000  0.204378190

  length of vectors
     5.330000000  6.015000000  5.435997614     0.208442655  0.166251039  0.204378190

  position of ions in fractional coordinates (direct lattice)
     0.143691759  0.003048989  0.998318707
     0.856308241  0.996951011  0.001681293
     0.856308238  0.503048993  0.501681414
     0.143691762  0.496951006  0.498318586
     0.519222146  0.898542098  0.191901324
     0.480777854  0.101457902  0.808098676
     0.480777830  0.398542067  0.308098767
     0.519222170  0.601457933  0.691901233
     0.180772503  0.105456181  0.821140772
     0.332993439  0.892056331  0.202355363
     0.819227497  0.894543819  0.178859228
     0.667006561  0.107943669  0.797644637
     0.819227565  0.605456176  0.678859303
     0.180772436  0.394543824  0.321140697
     0.667006610  0.392056290  0.297644791
     0.332993390  0.607943710  0.702355209

  ion indices of the primitive-cell ions
   primitive index   ion index
                 1           1
                 2           2
                 3           3
                 4           4
                 5           5
                 6           6
                 7           7
                 8           8
                 9           9
                10          10
                11          11
                12          12
                13          13
                14          14
                15          15
                16          16

----------------------------------------------------------------------------------------



 KPOINTS: auto                                    

Automatic generation of k-mesh.
 Grid dimensions read from file:
 generate k-points for:    6    4    5

 Generating k-lattice:

  Cartesian coordinates                     Fractional coordinates (reciprocal lattice)
     0.031269543 -0.000000000  0.015136512     0.166666667  0.000000000 -0.000000000
     0.000000000  0.041562760 -0.000000000     0.000000000  0.250000000  0.000000000
     0.000000000  0.000000000  0.040875638     0.000000000  0.000000000  0.200000000

  Length of vectors
     0.034740442  0.041562760  0.040875638

  Shift w.r.t. Gamma in fractional coordinates (k-lattice)
     0.000000000  0.000000000  0.000000000

 
 Subroutine IBZKPT returns following result:
 ===========================================
 
 Found     62 irreducible k-points:
 
 Following reciprocal coordinates:
            Coordinates               Weight
  0.000000  0.000000  0.000000      1.000000
  0.166667  0.000000  0.000000      2.000000
  0.333333  0.000000  0.000000      2.000000
  0.500000  0.000000  0.000000      1.000000
  0.000000  0.250000  0.000000      2.000000
  0.166667  0.250000  0.000000      2.000000
 -0.166667  0.250000  0.000000      2.000000
  0.333333  0.250000  0.000000      2.000000
 -0.333333  0.250000  0.000000      2.000000
  0.500000  0.250000  0.000000      2.000000
  0.000000  0.500000  0.000000      1.000000
  0.166667  0.500000  0.000000      2.000000
  0.333333  0.500000  0.000000      2.000000
  0.500000  0.500000  0.000000      1.000000
  0.000000  0.000000  0.200000      2.000000
  0.166667  0.000000  0.200000      2.000000
  0.333333  0.000000  0.200000      2.000000
  0.500000  0.000000  0.200000      2.000000
 -0.333333  0.000000  0.200000      2.000000
 -0.166667  0.000000  0.200000      2.000000
  0.000000  0.250000  0.200000      2.000000
  0.000000  0.250000 -0.200000      2.000000
  0.166667  0.250000  0.200000      2.000000
 -0.166667  0.250000 -0.200000      2.000000
  0.333333  0.250000  0.200000      2.000000
 -0.333333  0.250000 -0.200000      2.000000
  0.500000  0.250000  0.200000      2.000000
  0.500000  0.250000 -0.200000      2.000000
 -0.333333  0.250000  0.200000      2.000000
  0.333333  0.250000 -0.200000      2.000000
 -0.166667  0.250000  0.200000      2.000000
  0.166667  0.250000 -0.200000      2.000000
  0.000000  0.500000  0.200000      2.000000
  0.166667  0.500000  0.200000      2.000000
  0.333333  0.500000  0.200000      2.000000
  0.500000  0.500000  0.200000      2.000000
 -0.333333  0.500000  0.200000      2.000000
 -0.166667  0.500000  0.200000      2.000000
  0.000000  0.000000  0.400000      2.000000
  0.166667  0.000000  0.400000      2.000000
  0.333333  0.000000  0.400000      2.000000
  0.500000  0.000000  0.400000      2.000000
 -0.333333  0.000000  0.400000      2.000000
 -0.166667  0.000000  0.400000      2.000000
  0.000000  0.250000  0.400000      2.000000
  0.000000  0.250000 -0.400000      2.000000
  0.166667  0.250000  0.400000      2.000000
 -0.166667  0.250000 -0.400000      2.000000
  0.333333  0.250000  0.400000      2.000000
 -0.333333  0.250000 -0.400000      2.000000
  0.500000  0.250000  0.400000      2.000000
  0.500000  0.250000 -0.400000      2.000000
 -0.333333  0.250000  0.400000      2.000000
  0.333333  0.250000 -0.400000      2.000000
 -0.166667  0.250000  0.400000      2.000000
  0.166667  0.250000 -0.400000      2.000000
  0.000000  0.500000  0.400000      2.000000
  0.166667  0.500000  0.400000      2.000000
  0.333333  0.500000  0.400000      2.000000
  0.500000  0.500000  0.400000      2.000000
 -0.333333  0.500000  0.400000      2.000000
 -0.166667  0.500000  0.400000      2.000000
 
 Following cartesian coordinates:
            Coordinates               Weight
  0.000000  0.000000  0.000000      1.000000
  0.031270  0.000000  0.015137      2.000000
  0.062539  0.000000  0.030273      2.000000
  0.093809  0.000000  0.045410      1.000000
  0.000000  0.041563  0.000000      2.000000
  0.031270  0.041563  0.015137      2.000000
 -0.031270  0.041563 -0.015137      2.000000
  0.062539  0.041563  0.030273      2.000000
 -0.062539  0.041563 -0.030273      2.000000
  0.093809  0.041563  0.045410      2.000000
  0.000000  0.083126  0.000000      1.000000
  0.031270  0.083126  0.015137      2.000000
  0.062539  0.083126  0.030273      2.000000
  0.093809  0.083126  0.045410      1.000000
  0.000000  0.000000  0.040876      2.000000
  0.031270  0.000000  0.056012      2.000000
  0.062539  0.000000  0.071149      2.000000
  0.093809  0.000000  0.086285      2.000000
 -0.062539  0.000000  0.010603      2.000000
 -0.031270  0.000000  0.025739      2.000000
  0.000000  0.041563  0.040876      2.000000
  0.000000  0.041563 -0.040876      2.000000
  0.031270  0.041563  0.056012      2.000000
 -0.031270  0.041563 -0.056012      2.000000
  0.062539  0.041563  0.071149      2.000000
 -0.062539  0.041563 -0.071149      2.000000
  0.093809  0.041563  0.086285      2.000000
  0.093809  0.041563  0.004534      2.000000
 -0.062539  0.041563  0.010603      2.000000
  0.062539  0.041563 -0.010603      2.000000
 -0.031270  0.041563  0.025739      2.000000
  0.031270  0.041563 -0.025739      2.000000
  0.000000  0.083126  0.040876      2.000000
  0.031270  0.083126  0.056012      2.000000
  0.062539  0.083126  0.071149      2.000000
  0.093809  0.083126  0.086285      2.000000
 -0.062539  0.083126  0.010603      2.000000
 -0.031270  0.083126  0.025739      2.000000
  0.000000  0.000000  0.081751      2.000000
  0.031270  0.000000  0.096888      2.000000
  0.062539  0.000000  0.112024      2.000000
  0.093809  0.000000  0.127161      2.000000
 -0.062539  0.000000  0.051478      2.000000
 -0.031270  0.000000  0.066615      2.000000
  0.000000  0.041563  0.081751      2.000000
  0.000000  0.041563 -0.081751      2.000000
  0.031270  0.041563  0.096888      2.000000
 -0.031270  0.041563 -0.096888      2.000000
  0.062539  0.041563  0.112024      2.000000
 -0.062539  0.041563 -0.112024      2.000000
  0.093809  0.041563  0.127161      2.000000
  0.093809  0.041563 -0.036342      2.000000
 -0.062539  0.041563  0.051478      2.000000
  0.062539  0.041563 -0.051478      2.000000
 -0.031270  0.041563  0.066615      2.000000
  0.031270  0.041563 -0.066615      2.000000
  0.000000  0.083126  0.081751      2.000000
  0.031270  0.083126  0.096888      2.000000
  0.062539  0.083126  0.112024      2.000000
  0.093809  0.083126  0.127161      2.000000
 -0.062539  0.083126  0.051478      2.000000
 -0.031270  0.083126  0.066615      2.000000
 


--------------------------------------------------------------------------------------------------------




 Dimension of arrays:
   k-points           NKPTS =     62   k-points in BZ     NKDIM =     62   number of bands    NBANDS=     44
   number of dos      NEDOS =    301   number of ions     NIONS =     16
   non local maximal  LDIM  =      4   non local SUM 2l+1 LMDIM =      8
   total plane-waves  NPLWV = 200704
   max r-space proj   IRMAX =      1   max aug-charges    IRDMAX=   9530
   dimension x,y,z NGX =    56 NGY =   64 NGZ =   56
   dimension x,y,z NGXF=   112 NGYF=  128 NGZF=  112
   support grid    NGXF=   112 NGYF=  128 NGZF=  112
   ions per type =               4   4   8
   NGX,Y,Z   is equivalent  to a cutoff of  17.47, 17.69, 17.13 a.u.
   NGXF,Y,Z  is equivalent  to a cutoff of  34.93, 35.38, 34.25 a.u.

 SYSTEM =  unknown system                          
 POSCAR =   C  H  O                                

 Startparameter for this run:
   NWRITE =      2    write-flag & timer
   PREC   = accura    normal or accurate (medium, high low for compatibility)
   ISTART =      0    job   : 0-new  1-cont  2-samecut
   ICHARG =      2    charge: 1-file 2-atom 10-const
   ISPIN  =      1    spin polarized calculation?
   LNONCOLLINEAR =      F non collinear calculations
   LSORBIT =      F    spin-orbit coupling
   INIWAV =      1    electr: 0-lowe 1-rand  2-diag
   LASPH  =      F    aspherical Exc in radial PAW
 Electronic Relaxation 1
   ENCUT  = 1000.0 eV  73.50 Ry    8.57 a.u.  13.74 15.51 14.02*2*pi/ulx,y,z
   ENINI  = 1000.0     initial cutoff
   ENAUG  = 1000.0 eV  augmentation charge cutoff
   NELM   =     60;   NELMIN=  2; NELMDL= -5     # of ELM steps 
   EDIFF  = 0.1E-06   stopping-criterion for ELM
   LREAL  =      F    real-space projection
   NLSPLINE    = F    spline interpolate recip. space projectors
   LCOMPAT=      F    compatible to vasp.4.4
   GGA_COMPAT  = T    GGA compatible to vasp.4.4-vasp.4.6
   LMAXPAW     = -100 max onsite density
   LMAXMIX     =    2 max onsite mixed and CHGCAR
   VOSKOWN=      0    Vosko Wilk Nusair interpolation
   ROPT   =    0.00000   0.00000   0.00000
 Ionic relaxation
   EDIFFG = 0.1E-05   stopping-criterion for IOM
   NSW    =      0    number of steps for IOM
   NBLOCK =      1;   KBLOCK =      1    inner block; outer block 
   IBRION =     -1    ionic relax: 0-MD 1-quasi-New 2-CG
   NFREE  =      0    steps in history (QN), initial steepest desc. (CG)
   ISIF   =      0    stress and relaxation
   IWAVPR =     10    prediction:  0-non 1-charg 2-wave 3-comb
   ISYM   =      2    0-nonsym 1-usesym 2-fastsym
   LCORR  =      T    Harris-Foulkes like correction to forces

   POTIM  = 0.5000    time-step for ionic-motion
   TEIN   =    0.0    initial temperature
   TEBEG  =    0.0;   TEEND  =   0.0 temperature during run
   SMASS  =  -3.00    Nose mass-parameter (am)
   estimated Nose-frequenzy (Omega)   =  0.10E-29 period in steps = 0.13E+47 mass=  -0.649E-27a.u.
   SCALEE = 1.0000    scale energy and forces
   NPACO  =    256;   APACO  = 10.0  distance and # of slots for P.C.
   PSTRESS=    0.0 pullay stress

  Mass of Ions in am
   POMASS =  12.01  1.00 16.00
  Ionic Valenz
   ZVAL   =   4.00  1.00  6.00
  Atomic Wigner-Seitz radii
   RWIGS  =  -1.00 -1.00 -1.00
  virtual crystal weights 
   VCA    =   1.00  1.00  1.00
   NELECT =      68.0000    total number of electrons
   NUPDOWN=      -1.0000    fix difference up-down

 DOS related values:
   EMIN   =  10.00;   EMAX   =-10.00  energy-range for DOS
   EFERMI =   0.00;   METHOD = LEGACY      
   ISMEAR =     0;   SIGMA  =   0.01  broadening in eV -4-tet -1-fermi 0-gaus

 Electronic relaxation 2 (details)
   IALGO  =     58    algorithm
   LDIAG  =      T    sub-space diagonalisation (order eigenvalues)
   LSUBROT=      F    optimize rotation matrix (better conditioning)
   TURBO    =      0    0=normal 1=particle mesh
   IRESTART =      0    0=no restart 2=restart with 2 vectors
   NREBOOT  =      0    no. of reboots
   NMIN     =      0    reboot dimension
   EREF     =   0.00    reference energy to select bands
   IMIX   =      4    mixing-type and parameters
     AMIX     =   0.40;   BMIX     =  1.00
     AMIX_MAG =   1.60;   BMIX_MAG =  1.00
     AMIN     =   0.10
     WC   =   100.;   INIMIX=   1;  MIXPRE=   1;  MAXMIX= -45

 Intra band minimization:
   WEIMIN = 0.0000     energy-eigenvalue tresh-hold
   EBREAK =  0.57E-09  absolut break condition
   DEPER  =   0.30     relativ break condition  

   TIME   =   0.40     timestep for ELM

  volume/ion in A,a.u.               =       9.80        66.16
  Fermi-wavevector in a.u.,A,eV,Ry     =   1.238992  2.341355 20.886307  1.535100
  Thomas-Fermi vector in A             =   2.373494

 Write flags
   LWAVE        =      F    write WAVECAR
   LDOWNSAMPLE  =      F    k-point downsampling of WAVECAR
   LCHARG       =      T    write CHGCAR
   LVTOT        =      F    write LOCPOT, total local potential
   LVHAR        =      F    write LOCPOT, Hartree potential only
   LELF         =      F    write electronic localiz. function (ELF)
   LORBIT       =      0    0 simple, 1 ext, 2 COOP (PROOUT), +10 PAW based schemes


 Dipole corrections
   LMONO  =      F    monopole corrections only (constant potential shift)
   LDIPOL =      F    correct potential (dipole corrections)
   IDIPOL =      0    1-x, 2-y, 3-z, 4-all directions 
   EPSILON=  1.0000000 bulk dielectric constant

 Exchange correlation treatment:
   GGA     =    RE    GGA type
   LEXCH   =    40    internal setting for exchange type
   LIBXC   =     F    Libxc                    
   VOSKOWN =     0    Vosko Wilk Nusair interpolation
   LHFCALC =     F    Hartree Fock is set to
   LHFONE  =     F    Hartree Fock one center treatment
   AEXX    =    0.0000 exact exchange contribution

 Linear response parameters
   LEPSILON=     F    determine dielectric tensor
   LRPA    =     F    only Hartree local field effects (RPA)
   LNABLA  =     F    use nabla operator in PAW spheres
   LVEL    =     F    velocity operator in full k-point grid
   CSHIFT  =0.1000    complex shift for real part using Kramers Kronig
   OMEGAMAX=  -1.0    maximum frequency
   DEG_THRESHOLD= 0.2000000E-02 threshold for treating states as degnerate
   RTIME   =   -0.100 relaxation time in fs
  (WPLASMAI=    0.000 imaginary part of plasma frequency in eV, 0.658/RTIME)
   DFIELD  = 0.0000000 0.0000000 0.0000000 field for delta impulse in time

  Optional k-point grid parameters
   LKPOINTS_OPT  =     F    use optional k-point grid
   KPOINTS_OPT_MODE=     1    mode for optional k-point grid

 Orbital magnetization related:
   ORBITALMAG=     F  switch on orbital magnetization
   LCHIMAG   =     F  perturbation theory with respect to B field
   DQ        =  0.001000  dq finite difference perturbation B field
   LLRAUG    =     F  two centre corrections for induced B field
   LBONE     =     F  B-component reconstruction in AE one-centre
   LVGVCALC  =     T  calculate vGv susceptibility
   LVGVAPPL  =     F  apply vGv susceptibility instead of pGv for G=0

 Random number generation:
   RANDOM_GENERATOR = DEFAULT
   PCG_SEED         = not used


--------------------------------------------------------------------------------------------------------


 Static calculation
 charge density and potential will be updated during run
 non-spin polarized calculation
 Conjugate gradient for all bands (Freysoldt, et al. PRB 79, 241103 (2009))
 preconditioned conjugated gradient                                        
 perform sub-space diagonalisation
    before iterative eigenvector-optimisation
 modified Broyden-mixing scheme, WC =      100.0
 initial mixing is a Kerker type mixing with AMIX =  0.4000 and BMIX =      1.0000
 Hartree-type preconditioning will be used
 using additional bands           10
 reciprocal scheme for non local part
 use partial core corrections
 no Harris-corrections to forces 
 use gradient corrections 
 use of overlap-Matrix (Vanderbilt PP)
 Gauss-broadening in eV      SIGMA  =   0.01


--------------------------------------------------------------------------------------------------------


  energy-cutoff  :     1000.00
  volume of cell :      156.87
      direct lattice vectors                 reciprocal lattice vectors
     5.330000000  0.000000000  0.000000000     0.187617261 -0.000000000  0.090819072
     0.000000000  6.015000000  0.000000000     0.000000000  0.166251039 -0.000000000
    -2.368480000  0.000000000  4.892890000     0.000000000  0.000000000  0.204378190

  length of vectors
     5.330000000  6.015000000  5.435997614     0.208442655  0.166251039  0.204378190



 k-points in units of 2pi/SCALE and weight: auto                                    
   0.00000000  0.00000000  0.00000000       0.008
   0.03126954  0.00000000  0.01513651       0.017
   0.06253909  0.00000000  0.03027302       0.017
   0.09380863  0.00000000  0.04540954       0.008
   0.00000000  0.04156276  0.00000000       0.017
   0.03126954  0.04156276  0.01513651       0.017
  -0.03126954  0.04156276 -0.01513651       0.017
   0.06253909  0.04156276  0.03027302       0.017
  -0.06253909  0.04156276 -0.03027302       0.017
   0.09380863  0.04156276  0.04540954       0.017
   0.00000000  0.08312552  0.00000000       0.008
   0.03126954  0.08312552  0.01513651       0.017
   0.06253909  0.08312552  0.03027302       0.017
   0.09380863  0.08312552  0.04540954       0.008
   0.00000000  0.00000000  0.04087564       0.017
   0.03126954  0.00000000  0.05601215       0.017
   0.06253909  0.00000000  0.07114866       0.017
   0.09380863  0.00000000  0.08628517       0.017
  -0.06253909  0.00000000  0.01060261       0.017
  -0.03126954  0.00000000  0.02573913       0.017
   0.00000000  0.04156276  0.04087564       0.017
   0.00000000  0.04156276 -0.04087564       0.017
   0.03126954  0.04156276  0.05601215       0.017
  -0.03126954  0.04156276 -0.05601215       0.017
   0.06253909  0.04156276  0.07114866       0.017
  -0.06253909  0.04156276 -0.07114866       0.017
   0.09380863  0.04156276  0.08628517       0.017
   0.09380863  0.04156276  0.00453390       0.017
  -0.06253909  0.04156276  0.01060261       0.017
   0.06253909  0.04156276 -0.01060261       0.017
  -0.03126954  0.04156276  0.02573913       0.017
   0.03126954  0.04156276 -0.02573913       0.017
   0.00000000  0.08312552  0.04087564       0.017
   0.03126954  0.08312552  0.05601215       0.017
   0.06253909  0.08312552  0.07114866       0.017
   0.09380863  0.08312552  0.08628517       0.017
  -0.06253909  0.08312552  0.01060261       0.017
  -0.03126954  0.08312552  0.02573913       0.017
   0.00000000  0.00000000  0.08175128       0.017
   0.03126954  0.00000000  0.09688779       0.017
   0.06253909  0.00000000  0.11202430       0.017
   0.09380863  0.00000000  0.12716081       0.017
  -0.06253909  0.00000000  0.05147825       0.017
  -0.03126954  0.00000000  0.06661476       0.017
   0.00000000  0.04156276  0.08175128       0.017
   0.00000000  0.04156276 -0.08175128       0.017
   0.03126954  0.04156276  0.09688779       0.017
  -0.03126954  0.04156276 -0.09688779       0.017
   0.06253909  0.04156276  0.11202430       0.017
  -0.06253909  0.04156276 -0.11202430       0.017
   0.09380863  0.04156276  0.12716081       0.017
   0.09380863  0.04156276 -0.03634174       0.017
  -0.06253909  0.04156276  0.05147825       0.017
   0.06253909  0.04156276 -0.05147825       0.017
  -0.03126954  0.04156276  0.06661476       0.017
   0.03126954  0.04156276 -0.06661476       0.017
   0.00000000  0.08312552  0.08175128       0.017
   0.03126954  0.08312552  0.09688779       0.017
   0.06253909  0.08312552  0.11202430       0.017
   0.09380863  0.08312552  0.12716081       0.017
  -0.06253909  0.08312552  0.05147825       0.017
  -0.03126954  0.08312552  0.06661476       0.017

 k-points in reciprocal lattice and weights: auto                                    
   0.00000000  0.00000000  0.00000000       0.008
   0.16666667  0.00000000  0.00000000       0.017
   0.33333333  0.00000000  0.00000000       0.017
   0.50000000  0.00000000  0.00000000       0.008
   0.00000000  0.25000000  0.00000000       0.017
   0.16666667  0.25000000  0.00000000       0.017
  -0.16666667  0.25000000  0.00000000       0.017
   0.33333333  0.25000000  0.00000000       0.017
  -0.33333333  0.25000000  0.00000000       0.017
   0.50000000  0.25000000  0.00000000       0.017
   0.00000000  0.50000000  0.00000000       0.008
   0.16666667  0.50000000  0.00000000       0.017
   0.33333333  0.50000000  0.00000000       0.017
   0.50000000  0.50000000  0.00000000       0.008
   0.00000000  0.00000000  0.20000000       0.017
   0.16666667  0.00000000  0.20000000       0.017
   0.33333333  0.00000000  0.20000000       0.017
   0.50000000  0.00000000  0.20000000       0.017
  -0.33333333  0.00000000  0.20000000       0.017
  -0.16666667  0.00000000  0.20000000       0.017
   0.00000000  0.25000000  0.20000000       0.017
   0.00000000  0.25000000 -0.20000000       0.017
   0.16666667  0.25000000  0.20000000       0.017
  -0.16666667  0.25000000 -0.20000000       0.017
   0.33333333  0.25000000  0.20000000       0.017
  -0.33333333  0.25000000 -0.20000000       0.017
   0.50000000  0.25000000  0.20000000       0.017
   0.50000000  0.25000000 -0.20000000       0.017
  -0.33333333  0.25000000  0.20000000       0.017
   0.33333333  0.25000000 -0.20000000       0.017
  -0.16666667  0.25000000  0.20000000       0.017
   0.16666667  0.25000000 -0.20000000       0.017
   0.00000000  0.50000000  0.20000000       0.017
   0.16666667  0.50000000  0.20000000       0.017
   0.33333333  0.50000000  0.20000000       0.017
   0.50000000  0.50000000  0.20000000       0.017
  -0.33333333  0.50000000  0.20000000       0.017
  -0.16666667  0.50000000  0.20000000       0.017
   0.00000000  0.00000000  0.40000000       0.017
   0.16666667  0.00000000  0.40000000       0.017
   0.33333333  0.00000000  0.40000000       0.017
   0.50000000  0.00000000  0.40000000       0.017
  -0.33333333  0.00000000  0.40000000       0.017
  -0.16666667  0.00000000  0.40000000       0.017
   0.00000000  0.25000000  0.40000000       0.017
   0.00000000  0.25000000 -0.40000000       0.017
   0.16666667  0.25000000  0.40000000       0.017
  -0.16666667  0.25000000 -0.40000000       0.017
   0.33333333  0.25000000  0.40000000       0.017
  -0.33333333  0.25000000 -0.40000000       0.017
   0.50000000  0.25000000  0.40000000       0.017
   0.50000000  0.25000000 -0.40000000       0.017
  -0.33333333  0.25000000  0.40000000       0.017
   0.33333333  0.25000000 -0.40000000       0.017
  -0.16666667  0.25000000  0.40000000       0.017
   0.16666667  0.25000000 -0.40000000       0.017
   0.00000000  0.50000000  0.40000000       0.017
   0.16666667  0.50000000  0.40000000       0.017
   0.33333333  0.50000000  0.40000000       0.017
   0.50000000  0.50000000  0.40000000       0.017
  -0.33333333  0.50000000  0.40000000       0.017
  -0.16666667  0.50000000  0.40000000       0.017

 position of ions in fractional coordinates (direct lattice) 
   0.14369176  0.00304899  0.99831871
   0.85630824  0.99695101  0.00168129
   0.85630824  0.50304899  0.50168141
   0.14369176  0.49695101  0.49831859
   0.51922215  0.89854210  0.19190132
   0.48077785  0.10145790  0.80809868
   0.48077783  0.39854207  0.30809877
   0.51922217  0.60145793  0.69190123
   0.18077250  0.10545618  0.82114077
   0.33299344  0.89205633  0.20235536
   0.81922750  0.89454382  0.17885923
   0.66700656  0.10794367  0.79764464
   0.81922756  0.60545618  0.67885930
   0.18077244  0.39454382  0.32114070
   0.66700661  0.39205629  0.29764479
   0.33299339  0.60794371  0.70235521

 position of ions in cartesian coordinates  (Angst):
  -1.59862081  0.01833967  4.88466362
   4.56014081  5.99666033  0.00822638
   3.37590051  3.02583970  2.45467197
  -0.41438051  2.98916030  2.43821803
   2.31293959  5.40473072  0.93895207
   0.64858041  0.61026928  3.95393793
   1.83282006  2.39723053  1.50749338
   1.12869994  3.61776947  3.38539662
  -0.98133805  0.63431893  4.01775147
   1.29558040  5.36571883  0.99010253
   3.94285805  5.38068107  0.87513853
   1.66593960  0.64928117  3.90278747
   2.75861824  3.64181890  3.32158390
   0.20290176  2.37318110  1.57130611
   2.85017950  2.35821859  1.45634322
   0.11134050  3.65678142  3.43654678



--------------------------------------------------------------------------------------------------------


 k-point   1 :   0.0000 0.0000 0.0000  plane waves:   11235
 k-point   2 :   0.1667 0.0000 0.0000  plane waves:   11231
 k-point   3 :   0.3333 0.0000 0.0000  plane waves:   11253
 k-point   4 :   0.5000 0.0000 0.0000  plane waves:   11230
 k-point   5 :   0.0000 0.2500 0.0000  plane waves:   11269
 k-point   6 :   0.1667 0.2500 0.0000  plane waves:   11264
 k-point   7 :  -0.1667 0.2500 0.0000  plane waves:   11264
 k-point   8 :   0.3333 0.2500 0.0000  plane waves:   11247
 k-point   9 :  -0.3333 0.2500 0.0000  plane waves:   11247
 k-point  10 :   0.5000 0.2500 0.0000  plane waves:   11246
 k-point  11 :   0.0000 0.5000 0.0000  plane waves:   11232
 k-point  12 :   0.1667 0.5000 0.0000  plane waves:   11238
 k-point  13 :   0.3333 0.5000 0.0000  plane waves:   11252
 k-point  14 :   0.5000 0.5000 0.0000  plane waves:   11256
 k-point  15 :   0.0000 0.0000 0.2000  plane waves:   11280
 k-point  16 :   0.1667 0.0000 0.2000  plane waves:   11253
 k-point  17 :   0.3333 0.0000 0.2000  plane waves:   11254
 k-point  18 :   0.5000 0.0000 0.2000  plane waves:   11276
 k-point  19 :  -0.3333 0.0000 0.2000  plane waves:   11272
 k-point  20 :  -0.1667 0.0000 0.2000  plane waves:   11295
 k-point  21 :   0.0000 0.2500 0.2000  plane waves:   11270
 k-point  22 :   0.0000 0.2500-0.2000  plane waves:   11270
 k-point  23 :   0.1667 0.2500 0.2000  plane waves:   11273
 k-point  24 :  -0.1667 0.2500-0.2000  plane waves:   11273
 k-point  25 :   0.3333 0.2500 0.2000  plane waves:   11279
 k-point  26 :  -0.3333 0.2500-0.2000  plane waves:   11279
 k-point  27 :   0.5000 0.2500 0.2000  plane waves:   11254
 k-point  28 :   0.5000 0.2500-0.2000  plane waves:   11254
 k-point  29 :  -0.3333 0.2500 0.2000  plane waves:   11256
 k-point  30 :   0.3333 0.2500-0.2000  plane waves:   11256
 k-point  31 :  -0.1667 0.2500 0.2000  plane waves:   11267
 k-point  32 :   0.1667 0.2500-0.2000  plane waves:   11267
 k-point  33 :   0.0000 0.5000 0.2000  plane waves:   11264
 k-point  34 :   0.1667 0.5000 0.2000  plane waves:   11256
 k-point  35 :   0.3333 0.5000 0.2000  plane waves:   11266
 k-point  36 :   0.5000 0.5000 0.2000  plane waves:   11262
 k-point  37 :  -0.3333 0.5000 0.2000  plane waves:   11262
 k-point  38 :  -0.1667 0.5000 0.2000  plane waves:   11242
 k-point  39 :   0.0000 0.0000 0.4000  plane waves:   11268
 k-point  40 :   0.1667 0.0000 0.4000  plane waves:   11286
 k-point  41 :   0.3333 0.0000 0.4000  plane waves:   11270
 k-point  42 :   0.5000 0.0000 0.4000  plane waves:   11292
 k-point  43 :  -0.3333 0.0000 0.4000  plane waves:   11289
 k-point  44 :  -0.1667 0.0000 0.4000  plane waves:   11295
 k-point  45 :   0.0000 0.2500 0.4000  plane waves:   11272
 k-point  46 :   0.0000 0.2500-0.4000  plane waves:   11272
 k-point  47 :   0.1667 0.2500 0.4000  plane waves:   11277
 k-point  48 :  -0.1667 0.2500-0.4000  plane waves:   11277
 k-point  49 :   0.3333 0.2500 0.4000  plane waves:   11263
 k-point  50 :  -0.3333 0.2500-0.4000  plane waves:   11263
 k-point  51 :   0.5000 0.2500 0.4000  plane waves:   11271
 k-point  52 :   0.5000 0.2500-0.4000  plane waves:   11271
 k-point  53 :  -0.3333 0.2500 0.4000  plane waves:   11261
 k-point  54 :   0.3333 0.2500-0.4000  plane waves:   11261
 k-point  55 :  -0.1667 0.2500 0.4000  plane waves:   11262
 k-point  56 :   0.1667 0.2500-0.4000  plane waves:   11262
 k-point  57 :   0.0000 0.5000 0.4000  plane waves:   11262
 k-point  58 :   0.1667 0.5000 0.4000  plane waves:   11250
 k-point  59 :   0.3333 0.5000 0.4000  plane waves:   11272
 k-point  60 :   0.5000 0.5000 0.4000  plane waves:   11250
 k-point  61 :  -0.3333 0.5000 0.4000  plane waves:   11254
 k-point  62 :  -0.1667 0.5000 0.4000  plane waves:   11250

 maximum and minimum number of plane-waves per node :       371      331

 maximum number of plane-waves:     11295
 maximum index in each direction: 
   IXMAX=   14   IYMAX=   15   IZMAX=   14
   IXMIN=  -14   IYMIN=  -16   IZMIN=  -14


 parallel 3D FFT for wavefunctions:
    minimum data exchange during FFTs selected (reduces bandwidth)
 parallel 3D FFT for charge:
    minimum data exchange during FFTs selected (reduces bandwidth)


 total amount of memory used by VASP MPI-rank0    48565. kBytes
=======================================================================

   base      :      30000. kBytes
   nonl-proj :       4426. kBytes
   fftplans  :        741. kBytes
   grid      :       1218. kBytes
   one-center:          3. kBytes
   wavefun   :      12177. kBytes

     INWAV:  cpu time      0.0001: real time      0.0001
 Broyden mixing: mesh for mixing (old mesh)
   NGX = 27   NGY = 31   NGZ = 29
  (NGX  =112   NGY  =128   NGZ  =112)
  gives a total of  24273 points

 initial charge density was supplied:
 charge density of overlapping atoms calculated
 number of electron      68.0000000 magnetization 
 keeping initial charge density in first step


--------------------------------------------------------------------------------------------------------


 Maximum index for augmentation-charges            0 (set IRDMAX)


--------------------------------------------------------------------------------------------------------


 First call to EWALD:  gamma=   0.329
 Maximum number of real-space cells 3x 3x 3
 Maximum number of reciprocal cells 3x 3x 3

    FEWALD:  cpu time      0.0021: real time      0.0021


--------------------------------------- Ionic step        1  -------------------------------------------




--------------------------------------- Iteration      1(   1)  ---------------------------------------


    POTLOK:  cpu time      0.0280: real time      0.0281
    SETDIJ:  cpu time      0.0116: real time      0.0120
    TRIAL :  cpu time      0.9656: real time      0.9682
    CORREC:  cpu time      0.0015: real time      0.0015
    --------------------------------------------
      LOOP:  cpu time      1.0164: real time      1.0195

 eigenvalue-minimisations  :  5456
 total energy-change (2. order) : 0.7248390E+03  (-0.5426644E+04)
 number of electron      68.0000000 magnetization 
 augmentation part       68.0000000 magnetization 

 Free energy of the ion-electron system (eV)
  ---------------------------------------------------
  alpha Z        PSCENC =        81.91423797
  Ewald energy   TEWEN  =     -2364.59881513
  -Hartree energ DENC   =     -1465.29363950
  -exchange      EXHF   =         0.00000000
  -V(xc)+E(xc)   XCENC  =       245.87227904
  PAW double counting   =      3240.83951645    -3224.48739781
  entropy T*S    EENTRO =        -0.00014845
  eigenvalues    EBANDS =       115.71983238
  atomic energy  EATOM  =      4094.87318458
  ---------------------------------------------------
  free energy    TOTEN  =       724.83904953 eV

  energy without entropy =      724.83919798  energy(sigma->0) =      724.83912376


--------------------------------------------------------------------------------------------------------




--------------------------------------- Iteration      1(   2)  ---------------------------------------


    TRIAL :  cpu time      1.1553: real time      1.1558
    CORREC:  cpu time      0.0004: real time      0.0004
    --------------------------------------------
      LOOP:  cpu time      1.1701: real time      1.1862

 eigenvalue-minimisations  :  7432
 total energy-change (2. order) :-0.7334748E+03  (-0.7102653E+03)
 number of electron      68.0000000 magnetization 
 augmentation part       68.0000000 magnetization 

 Free energy of the ion-electron system (eV)
  ---------------------------------------------------
  alpha Z        PSCENC =        81.91423797
  Ewald energy   TEWEN  =     -2364.59881513
  -Hartree energ DENC   =     -1465.29363950
  -exchange      EXHF   =         0.00000000
  -V(xc)+E(xc)   XCENC  =       245.87227904
  PAW double counting   =      3240.83951645    -3224.48739781
  entropy T*S    EENTRO =        -0.00000000
  eigenvalues    EBANDS =      -617.75511564
  atomic energy  EATOM  =      4094.87318458
  ---------------------------------------------------
  free energy    TOTEN  =        -8.63575004 eV

  energy without entropy =       -8.63575004  energy(sigma->0) =       -8.63575004


--------------------------------------------------------------------------------------------------------




--------------------------------------- Iteration      1(   3)  ---------------------------------------


    TRIAL :  cpu time      0.9862: real time      0.9865
    CORREC:  cpu time      0.0005: real time      0.0005
    --------------------------------------------
      LOOP:  cpu time      0.9999: real time      1.0167

 eigenvalue-minimisations  :  6232
 total energy-change (2. order) :-0.9808890E+02  (-0.9711077E+02)
 number of electron      68.0000000 magnetization 
 augmentation part       68.0000000 magnetization 

 Free energy of the ion-electron system (eV)
  ---------------------------------------------------
  alpha Z        PSCENC =        81.91423797
  Ewald energy   TEWEN  =     -2364.59881513
  -Hartree energ DENC   =     -1465.29363950
  -exchange      EXHF   =         0.00000000
  -V(xc)+E(xc)   XCENC  =       245.87227904
  PAW double counting   =      3240.83951645    -3224.48739781
  entropy T*S    EENTRO =        -0.00000000
  eigenvalues    EBANDS =      -715.84401877
  atomic energy  EATOM  =      4094.87318458
  ---------------------------------------------------
  free energy    TOTEN  =      -106.72465317 eV

  energy without entropy =     -106.72465317  energy(sigma->0) =     -106.72465317


--------------------------------------------------------------------------------------------------------




--------------------------------------- Iteration      1(   4)  ---------------------------------------


    TRIAL :  cpu time      1.1163: real time      1.1166
    CORREC:  cpu time      0.0005: real time      0.0005
    --------------------------------------------
      LOOP:  cpu time      1.1457: real time      1.1462

 eigenvalue-minimisations  :  7272
 total energy-change (2. order) :-0.3083689E+01  (-0.3069477E+01)
 number of electron      68.0000000 magnetization 
 augmentation part       68.0000000 magnetization 

 Free energy of the ion-electron system (eV)
  ---------------------------------------------------
  alpha Z        PSCENC =        81.91423797
  Ewald energy   TEWEN  =     -2364.59881513
  -Hartree energ DENC   =     -1465.29363950
  -exchange      EXHF   =         0.00000000
  -V(xc)+E(xc)   XCENC  =       245.87227904
  PAW double counting   =      3240.83951645    -3224.48739781
  entropy T*S    EENTRO =        -0.00000000
  eigenvalues    EBANDS =      -718.92770730
  atomic energy  EATOM  =      4094.87318458
  ---------------------------------------------------
  free energy    TOTEN  =      -109.80834170 eV

  energy without entropy =     -109.80834170  energy(sigma->0) =     -109.80834170


--------------------------------------------------------------------------------------------------------




--------------------------------------- Iteration      1(   5)  ---------------------------------------


    TRIAL :  cpu time      1.0591: real time      1.0596
    CORREC:  cpu time      0.0004: real time      0.0004
    CHARGE:  cpu time      0.0803: real time      0.0809
    --------------------------------------------
      LOOP:  cpu time      1.1554: real time      1.1701

 eigenvalue-minimisations  :  6792
 total energy-change (2. order) :-0.8094079E-01  (-0.8088716E-01)
 number of electron      68.0000001 magnetization 
 augmentation part        0.5694965 magnetization 

 Free energy of the ion-electron system (eV)
  ---------------------------------------------------
  alpha Z        PSCENC =        81.91423797
  Ewald energy   TEWEN  =     -2364.59881513
  -Hartree energ DENC   =     -1465.29363950
  -exchange      EXHF   =         0.00000000
  -V(xc)+E(xc)   XCENC  =       245.87227904
  PAW double counting   =      3240.83951645    -3224.48739781
  entropy T*S    EENTRO =        -0.00000000
  eigenvalues    EBANDS =      -719.00864808
  atomic energy  EATOM  =      4094.87318458
  ---------------------------------------------------
  free energy    TOTEN  =      -109.88928248 eV

  energy without entropy =     -109.88928248  energy(sigma->0) =     -109.88928248


--------------------------------------------------------------------------------------------------------




--------------------------------------- Iteration      1(   6)  ---------------------------------------


    POTLOK:  cpu time      0.0132: real time      0.0132
    SETDIJ:  cpu time      0.0017: real time      0.0017
    TRIAL :  cpu time      0.6488: real time      0.6502
    CORREC:  cpu time      0.3891: real time      0.3897
    CHARGE:  cpu time      0.0712: real time      0.0712
    --------------------------------------------
      LOOP:  cpu time      1.1374: real time      1.1545

 eigenvalue-minimisations  :     0
 total energy-change (2. order) : 0.1624134E+02  (-0.8447566E+01)
 number of electron      68.0000001 magnetization 
 augmentation part        0.3926678 magnetization 

 Free energy of the ion-electron system (eV)
  ---------------------------------------------------
  alpha Z        PSCENC =        81.91423797
  Ewald energy   TEWEN  =     -2364.59881513
  -Hartree energ DENC   =     -1756.27050017
  -exchange      EXHF   =         0.00000000
  -V(xc)+E(xc)   XCENC  =       264.59251164
  PAW double counting   =     35357.52211438   -35345.54843394
  entropy T*S    EENTRO =        -0.00000000
  eigenvalues    EBANDS =      -426.13224370
  atomic energy  EATOM  =      4094.87318458
  ---------------------------------------------------
  free energy    TOTEN  =       -93.64794438 eV

  energy without entropy =      -93.64794438  energy(sigma->0) =      -93.64794438


--------------------------------------------------------------------------------------------------------




--------------------------------------- Iteration      1(   7)  ---------------------------------------


    POTLOK:  cpu time      0.0130: real time      0.0130
    SETDIJ:  cpu time      0.0013: real time      0.0012
    TRIAL :  cpu time      0.5668: real time      0.5671
    CORREC:  cpu time      0.3793: real time      0.3794
    CHARGE:  cpu time      0.0698: real time      0.0699
    --------------------------------------------
      LOOP:  cpu time      1.0595: real time      1.0599

 eigenvalue-minimisations  :     0
 total energy-change (2. order) :-0.8465029E+01  (-0.9457639E+00)
 number of electron      68.0000001 magnetization 
 augmentation part        0.3298722 magnetization 

 Free energy of the ion-electron system (eV)
  ---------------------------------------------------
  alpha Z        PSCENC =        81.91423797
  Ewald energy   TEWEN  =     -2364.59881513
  -Hartree energ DENC   =     -1603.21597579
  -exchange      EXHF   =         0.00000000
  -V(xc)+E(xc)   XCENC  =       254.96311966
  PAW double counting   =     44434.17499248   -44420.10385337
  entropy T*S    EENTRO =        -0.00000000
  eigenvalues    EBANDS =      -580.11986337
  atomic energy  EATOM  =      4094.87318458
  ---------------------------------------------------
  free energy    TOTEN  =      -102.11297299 eV

  energy without entropy =     -102.11297299  energy(sigma->0) =     -102.11297299


--------------------------------------------------------------------------------------------------------




--------------------------------------- Iteration      1(   8)  ---------------------------------------


    POTLOK:  cpu time      0.0123: real time      0.0123
    SETDIJ:  cpu time      0.0018: real time      0.0018
    TRIAL :  cpu time      0.6038: real time      0.6041
    CORREC:  cpu time      0.3812: real time      0.3812
    CHARGE:  cpu time      0.0706: real time      0.0706
    --------------------------------------------
      LOOP:  cpu time      1.0855: real time      1.1007

 eigenvalue-minimisations  :     0
 total energy-change (2. order) :-0.9457825E+00  (-0.2513783E+00)
 number of electron      68.0000001 magnetization 
 augmentation part        0.3362384 magnetization 

 Free energy of the ion-electron system (eV)
  ---------------------------------------------------
  alpha Z        PSCENC =        81.91423797
  Ewald energy   TEWEN  =     -2364.59881513
  -Hartree energ DENC   =     -1606.69365922
  -exchange      EXHF   =         0.00000000
  -V(xc)+E(xc)   XCENC  =       254.92823127
  PAW double counting   =     44078.50545681   -44064.09200022
  entropy T*S    EENTRO =        -0.00000000
  eigenvalues    EBANDS =      -577.89539150
  atomic energy  EATOM  =      4094.87318458
  ---------------------------------------------------
  free energy    TOTEN  =      -103.05875545 eV

  energy without entropy =     -103.05875545  energy(sigma->0) =     -103.05875545


--------------------------------------------------------------------------------------------------------




--------------------------------------- Iteration      1(   9)  ---------------------------------------


    POTLOK:  cpu time      0.0125: real time      0.0125
    SETDIJ:  cpu time      0.0024: real time      0.0024
    TRIAL :  cpu time      0.5669: real time      0.5673
    CORREC:  cpu time      0.3775: real time      0.3775
    CHARGE:  cpu time      0.0707: real time      0.0707
    --------------------------------------------
      LOOP:  cpu time      1.0469: real time      1.0599

 eigenvalue-minimisations  :     0
 total energy-change (2. order) :-0.2514162E+00  (-0.7790201E-01)
 number of electron      68.0000001 magnetization 
 augmentation part        0.3430250 magnetization 

 Free energy of the ion-electron system (eV)
  ---------------------------------------------------
  alpha Z        PSCENC =        81.91423797
  Ewald energy   TEWEN  =     -2364.59881513
  -Hartree energ DENC   =     -1608.24693721
  -exchange      EXHF   =         0.00000000
  -V(xc)+E(xc)   XCENC  =       254.98258578
  PAW double counting   =     43983.76333990   -43969.36283309
  entropy T*S    EENTRO =        -0.00000000
  eigenvalues    EBANDS =      -576.63493440
  atomic energy  EATOM  =      4094.87318458
  ---------------------------------------------------
  free energy    TOTEN  =      -103.31017160 eV

  energy without entropy =     -103.31017160  energy(sigma->0) =     -103.31017160


--------------------------------------------------------------------------------------------------------




--------------------------------------- Iteration      1(  10)  ---------------------------------------


    POTLOK:  cpu time      0.0124: real time      0.0124
    SETDIJ:  cpu time      0.0017: real time      0.0017
    TRIAL :  cpu time      0.5660: real time      0.5663
    CORREC:  cpu time      0.3788: real time      0.3788
    CHARGE:  cpu time      0.0702: real time      0.0702
    --------------------------------------------
      LOOP:  cpu time      1.0585: real time      1.0589

 eigenvalue-minimisations  :     0
 total energy-change (2. order) :-0.7784014E-01  (-0.2224420E-01)
 number of electron      68.0000001 magnetization 
 augmentation part        0.3448896 magnetization 

 Free energy of the ion-electron system (eV)
  ---------------------------------------------------
  alpha Z        PSCENC =        81.91423797
  Ewald energy   TEWEN  =     -2364.59881513
  -Hartree energ DENC   =     -1604.29200720
  -exchange      EXHF   =         0.00000000
  -V(xc)+E(xc)   XCENC  =       254.75312436
  PAW double counting   =     43470.22025256   -43455.83555895
  entropy T*S    EENTRO =        -0.00000000
  eigenvalues    EBANDS =      -580.42242993
  atomic energy  EATOM  =      4094.87318458
  ---------------------------------------------------
  free energy    TOTEN  =      -103.38801174 eV

  energy without entropy =     -103.38801174  energy(sigma->0) =     -103.38801174


--------------------------------------------------------------------------------------------------------




--------------------------------------- Iteration      1(  11)  ---------------------------------------


    POTLOK:  cpu time      0.0122: real time      0.0122
    SETDIJ:  cpu time      0.0026: real time      0.0026
    TRIAL :  cpu time      0.5668: real time      0.5671
    CORREC:  cpu time      0.3899: real time      0.3899
    CHARGE:  cpu time      0.0715: real time      0.0715
    --------------------------------------------
      LOOP:  cpu time      1.0559: real time      1.0719

 eigenvalue-minimisations  :     0
 total energy-change (2. order) :-0.2224312E-01  (-0.6408125E-02)
 number of electron      68.0000001 magnetization 
 augmentation part        0.3451095 magnetization 

 Free energy of the ion-electron system (eV)
  ---------------------------------------------------
  alpha Z        PSCENC =        81.91423797
  Ewald energy   TEWEN  =     -2364.59881513
  -Hartree energ DENC   =     -1604.18158458
  -exchange      EXHF   =         0.00000000
  -V(xc)+E(xc)   XCENC  =       254.74038352
  PAW double counting   =     43111.68760081   -43097.31895749
  entropy T*S    EENTRO =        -0.00000000
  eigenvalues    EBANDS =      -580.52630453
  atomic energy  EATOM  =      4094.87318458
  ---------------------------------------------------
  free energy    TOTEN  =      -103.41025486 eV

  energy without entropy =     -103.41025486  energy(sigma->0) =     -103.41025486


--------------------------------------------------------------------------------------------------------




--------------------------------------- Iteration      1(  12)  ---------------------------------------


    POTLOK:  cpu time      0.0123: real time      0.0123
    SETDIJ:  cpu time      0.0019: real time      0.0019
    TRIAL :  cpu time      0.5672: real time      0.5675
    CORREC:  cpu time      0.3789: real time      0.3790
    CHARGE:  cpu time      0.0694: real time      0.0696
    --------------------------------------------
      LOOP:  cpu time      1.0436: real time      1.0607

 eigenvalue-minimisations  :     0
 total energy-change (2. order) :-0.6406646E-02  (-0.1776698E-02)
 number of electron      68.0000001 magnetization 
 augmentation part        0.3443910 magnetization 

 Free energy of the ion-electron system (eV)
  ---------------------------------------------------
  alpha Z        PSCENC =        81.91423797
  Ewald energy   TEWEN  =     -2364.59881513
  -Hartree energ DENC   =     -1603.99323039
  -exchange      EXHF   =         0.00000000
  -V(xc)+E(xc)   XCENC  =       254.72528376
  PAW double counting   =     43251.24370030   -43236.87447977
  entropy T*S    EENTRO =        -0.00000000
  eigenvalues    EBANDS =      -580.70654283
  atomic energy  EATOM  =      4094.87318458
  ---------------------------------------------------
  free energy    TOTEN  =      -103.41666151 eV

  energy without entropy =     -103.41666151  energy(sigma->0) =     -103.41666151


--------------------------------------------------------------------------------------------------------




--------------------------------------- Iteration      1(  13)  ---------------------------------------


    POTLOK:  cpu time      0.0126: real time      0.0126
    SETDIJ:  cpu time      0.0021: real time      0.0021
    TRIAL :  cpu time      0.5668: real time      0.5668
    CORREC:  cpu time      0.3785: real time      0.3787
    CHARGE:  cpu time      0.0700: real time      0.0700
    --------------------------------------------
      LOOP:  cpu time      1.0468: real time      1.0600

 eigenvalue-minimisations  :     0
 total energy-change (2. order) :-0.1775763E-02  (-0.4951904E-03)
 number of electron      68.0000001 magnetization 
 augmentation part        0.3442421 magnetization 

 Free energy of the ion-electron system (eV)
  ---------------------------------------------------
  alpha Z        PSCENC =        81.91423797
  Ewald energy   TEWEN  =     -2364.59881513
  -Hartree energ DENC   =     -1603.58869974
  -exchange      EXHF   =         0.00000000
  -V(xc)+E(xc)   XCENC  =       254.70386647
  PAW double counting   =     43401.00494483   -43386.62939742
  entropy T*S    EENTRO =        -0.00000000
  eigenvalues    EBANDS =      -581.09775882
  atomic energy  EATOM  =      4094.87318458
  ---------------------------------------------------
  free energy    TOTEN  =      -103.41843727 eV

  energy without entropy =     -103.41843727  energy(sigma->0) =     -103.41843727


--------------------------------------------------------------------------------------------------------




--------------------------------------- Iteration      1(  14)  ---------------------------------------


    POTLOK:  cpu time      0.0123: real time      0.0123
    SETDIJ:  cpu time      0.0017: real time      0.0017
    TRIAL :  cpu time      0.5675: real time      0.5675
    CORREC:  cpu time      0.3796: real time      0.3799
    CHARGE:  cpu time      0.0695: real time      0.0695
    --------------------------------------------
      LOOP:  cpu time      1.0428: real time      1.0597

 eigenvalue-minimisations  :     0
 total energy-change (2. order) :-0.4945881E-03  (-0.1620109E-03)
 number of electron      68.0000001 magnetization 
 augmentation part        0.3443068 magnetization 

 Free energy of the ion-electron system (eV)
  ---------------------------------------------------
  alpha Z        PSCENC =        81.91423797
  Ewald energy   TEWEN  =     -2364.59881513
  -Hartree energ DENC   =     -1603.58217820
  -exchange      EXHF   =         0.00000000
  -V(xc)+E(xc)   XCENC  =       254.70388372
  PAW double counting   =     43404.63879735   -43390.26313791
  entropy T*S    EENTRO =        -0.00000000
  eigenvalues    EBANDS =      -581.10490423
  atomic energy  EATOM  =      4094.87318458
  ---------------------------------------------------
  free energy    TOTEN  =      -103.41893186 eV

  energy without entropy =     -103.41893186  energy(sigma->0) =     -103.41893186


--------------------------------------------------------------------------------------------------------




--------------------------------------- Iteration      1(  15)  ---------------------------------------


    POTLOK:  cpu time      0.0136: real time      0.0137
    SETDIJ:  cpu time      0.0021: real time      0.0021
    TRIAL :  cpu time      0.5660: real time      0.5661
    CORREC:  cpu time      0.3782: real time      0.3784
    CHARGE:  cpu time      0.0716: real time      0.0716
    --------------------------------------------
      LOOP:  cpu time      1.0627: real time      1.0633

 eigenvalue-minimisations  :     0
 total energy-change (2. order) :-0.1624296E-03  (-0.5950258E-04)
 number of electron      68.0000001 magnetization 
 augmentation part        0.3443091 magnetization 

 Free energy of the ion-electron system (eV)
  ---------------------------------------------------
  alpha Z        PSCENC =        81.91423797
  Ewald energy   TEWEN  =     -2364.59881513
  -Hartree energ DENC   =     -1603.57429394
  -exchange      EXHF   =         0.00000000
  -V(xc)+E(xc)   XCENC  =       254.70256781
  PAW double counting   =     43367.77458140   -43353.39975251
  entropy T*S    EENTRO =        -0.00000000
  eigenvalues    EBANDS =      -581.11080447
  atomic energy  EATOM  =      4094.87318458
  ---------------------------------------------------
  free energy    TOTEN  =      -103.41909429 eV

  energy without entropy =     -103.41909429  energy(sigma->0) =     -103.41909429


--------------------------------------------------------------------------------------------------------




--------------------------------------- Iteration      1(  16)  ---------------------------------------


    POTLOK:  cpu time      0.0129: real time      0.0129
    SETDIJ:  cpu time      0.0010: real time      0.0010
    TRIAL :  cpu time      0.5674: real time      0.5675
    CORREC:  cpu time      0.3781: real time      0.3783
    CHARGE:  cpu time      0.0698: real time      0.0698
    --------------------------------------------
      LOOP:  cpu time      1.0423: real time      1.0594

 eigenvalue-minimisations  :     0
 total energy-change (2. order) :-0.5964707E-04  (-0.2374892E-04)
 number of electron      68.0000001 magnetization 
 augmentation part        0.3442261 magnetization 

 Free energy of the ion-electron system (eV)
  ---------------------------------------------------
  alpha Z        PSCENC =        81.91423797
  Ewald energy   TEWEN  =     -2364.59881513
  -Hartree energ DENC   =     -1603.58652935
  -exchange      EXHF   =         0.00000000
  -V(xc)+E(xc)   XCENC  =       254.70311393
  PAW double counting   =     43350.25709497   -43335.88255326
  entropy T*S    EENTRO =        -0.00000000
  eigenvalues    EBANDS =      -581.09888764
  atomic energy  EATOM  =      4094.87318458
  ---------------------------------------------------
  free energy    TOTEN  =      -103.41915393 eV

  energy without entropy =     -103.41915393  energy(sigma->0) =     -103.41915393


--------------------------------------------------------------------------------------------------------




--------------------------------------- Iteration      1(  17)  ---------------------------------------


    POTLOK:  cpu time      0.0122: real time      0.0122
    SETDIJ:  cpu time      0.0019: real time      0.0019
    TRIAL :  cpu time      0.5693: real time      0.5693
    CORREC:  cpu time      0.3786: real time      0.3789
    CHARGE:  cpu time      0.0696: real time      0.0696
    --------------------------------------------
      LOOP:  cpu time      1.0467: real time      1.0611

 eigenvalue-minimisations  :     0
 total energy-change (2. order) :-0.2347154E-04  (-0.7914223E-05)
 number of electron      68.0000001 magnetization 
 augmentation part        0.3441423 magnetization 

 Free energy of the ion-electron system (eV)
  ---------------------------------------------------
  alpha Z        PSCENC =        81.91423797
  Ewald energy   TEWEN  =     -2364.59881513
  -Hartree energ DENC   =     -1603.60858209
  -exchange      EXHF   =         0.00000000
  -V(xc)+E(xc)   XCENC  =       254.70425204
  PAW double counting   =     43357.35152236   -43342.97656422
  entropy T*S    EENTRO =        -0.00000000
  eigenvalues    EBANDS =      -581.07841291
  atomic energy  EATOM  =      4094.87318458
  ---------------------------------------------------
  free energy    TOTEN  =      -103.41917740 eV

  energy without entropy =     -103.41917740  energy(sigma->0) =     -103.41917740


--------------------------------------------------------------------------------------------------------




--------------------------------------- Iteration      1(  18)  ---------------------------------------


    POTLOK:  cpu time      0.0121: real time      0.0121
    SETDIJ:  cpu time      0.0019: real time      0.0019
    TRIAL :  cpu time      0.5644: real time      0.5645
    CORREC:  cpu time      0.3785: real time      0.3787
    CHARGE:  cpu time      0.0695: real time      0.0695
    --------------------------------------------
      LOOP:  cpu time      1.0557: real time      1.0563

 eigenvalue-minimisations  :     0
 total energy-change (2. order) :-0.7753224E-05  (-0.2408819E-05)
 number of electron      68.0000001 magnetization 
 augmentation part        0.3441288 magnetization 

 Free energy of the ion-electron system (eV)
  ---------------------------------------------------
  alpha Z        PSCENC =        81.91423797
  Ewald energy   TEWEN  =     -2364.59881513
  -Hartree energ DENC   =     -1603.61148324
  -exchange      EXHF   =         0.00000000
  -V(xc)+E(xc)   XCENC  =       254.70424557
  PAW double counting   =     43368.72893119   -43354.35339256
  entropy T*S    EENTRO =        -0.00000000
  eigenvalues    EBANDS =      -581.07609353
  atomic energy  EATOM  =      4094.87318458
  ---------------------------------------------------
  free energy    TOTEN  =      -103.41918516 eV

  energy without entropy =     -103.41918516  energy(sigma->0) =     -103.41918516


--------------------------------------------------------------------------------------------------------




--------------------------------------- Iteration      1(  19)  ---------------------------------------


    POTLOK:  cpu time      0.0124: real time      0.0124
    SETDIJ:  cpu time      0.0022: real time      0.0022
    TRIAL :  cpu time      0.5699: real time      0.5699
    CORREC:  cpu time      0.3792: real time      0.3794
    CHARGE:  cpu time      0.0687: real time      0.0687
    --------------------------------------------
      LOOP:  cpu time      1.0460: real time      1.0623

 eigenvalue-minimisations  :     0
 total energy-change (2. order) :-0.2351473E-05  (-0.7287018E-06)
 number of electron      68.0000001 magnetization 
 augmentation part        0.3441249 magnetization 

 Free energy of the ion-electron system (eV)
  ---------------------------------------------------
  alpha Z        PSCENC =        81.91423797
  Ewald energy   TEWEN  =     -2364.59881513
  -Hartree energ DENC   =     -1603.62226617
  -exchange      EXHF   =         0.00000000
  -V(xc)+E(xc)   XCENC  =       254.70491785
  PAW double counting   =     43372.86984873   -43358.49425393
  entropy T*S    EENTRO =        -0.00000000
  eigenvalues    EBANDS =      -581.06604141
  atomic energy  EATOM  =      4094.87318458
  ---------------------------------------------------
  free energy    TOTEN  =      -103.41918751 eV

  energy without entropy =     -103.41918751  energy(sigma->0) =     -103.41918751


--------------------------------------------------------------------------------------------------------




--------------------------------------- Iteration      1(  20)  ---------------------------------------


    POTLOK:  cpu time      0.0122: real time      0.0122
    SETDIJ:  cpu time      0.0025: real time      0.0025
    TRIAL :  cpu time      0.5645: real time      0.5648
    CORREC:  cpu time      0.3770: real time      0.3770
    CHARGE:  cpu time      0.0698: real time      0.0698
    --------------------------------------------
      LOOP:  cpu time      1.0421: real time      1.0562

 eigenvalue-minimisations  :     0
 total energy-change (2. order) :-0.7215567E-06  (-0.2153018E-06)
 number of electron      68.0000001 magnetization 
 augmentation part        0.3441295 magnetization 

 Free energy of the ion-electron system (eV)
  ---------------------------------------------------
  alpha Z        PSCENC =        81.91423797
  Ewald energy   TEWEN  =     -2364.59881513
  -Hartree energ DENC   =     -1603.61946446
  -exchange      EXHF   =         0.00000000
  -V(xc)+E(xc)   XCENC  =       254.70476078
  PAW double counting   =     43372.49191885   -43358.11629470
  entropy T*S    EENTRO =        -0.00000000
  eigenvalues    EBANDS =      -581.06871612
  atomic energy  EATOM  =      4094.87318458
  ---------------------------------------------------
  free energy    TOTEN  =      -103.41918823 eV

  energy without entropy =     -103.41918823  energy(sigma->0) =     -103.41918823


--------------------------------------------------------------------------------------------------------




--------------------------------------- Iteration      1(  21)  ---------------------------------------


    POTLOK:  cpu time      0.0121: real time      0.0121
    SETDIJ:  cpu time      0.0020: real time      0.0020
    TRIAL :  cpu time      0.5670: real time      0.5673
    CORREC:  cpu time      0.3781: real time      0.3782
    CHARGE:  cpu time      0.0697: real time      0.0697
    --------------------------------------------
      LOOP:  cpu time      1.0586: real time      1.0593

 eigenvalue-minimisations  :     0
 total energy-change (2. order) :-0.2194283E-06  (-0.6823044E-07)
 number of electron      68.0000001 magnetization 
 augmentation part        0.3441312 magnetization 

 Free energy of the ion-electron system (eV)
  ---------------------------------------------------
  alpha Z        PSCENC =        81.91423797
  Ewald energy   TEWEN  =     -2364.59881513
  -Hartree energ DENC   =     -1603.61944074
  -exchange      EXHF   =         0.00000000
  -V(xc)+E(xc)   XCENC  =       254.70475814
  PAW double counting   =     43371.01104735   -43356.63545914
  entropy T*S    EENTRO =        -0.00000000
  eigenvalues    EBANDS =      -581.06870148
  atomic energy  EATOM  =      4094.87318458
  ---------------------------------------------------
  free energy    TOTEN  =      -103.41918845 eV

  energy without entropy =     -103.41918845  energy(sigma->0) =     -103.41918845


--------------------------------------------------------------------------------------------------------




--------------------------------------- Iteration      1(  22)  ---------------------------------------


    POTLOK:  cpu time      0.0123: real time      0.0123
    SETDIJ:  cpu time      0.0019: real time      0.0019
    TRIAL :  cpu time      0.5705: real time      0.5708
    CORREC:  cpu time      0.4091: real time      0.4091
    EDDIAG:  cpu time      0.3129: real time      0.3133
    CHARGE:  cpu time      0.0698: real time      0.0698
    --------------------------------------------
      LOOP:  cpu time      1.3894: real time      1.4058

 eigenvalue-minimisations  :     0
 total energy-change (2. order) :-0.7147901E-07  (-0.2615142E-07)
 number of electron      68.0000001 magnetization 
 augmentation part        0.3441319 magnetization 

 Free energy of the ion-electron system (eV)
[...]
     40       9.0666      0.00000
     41       9.6882      0.00000
     42       9.7177      0.00000
     43      10.8010      0.00000
     44      10.9847      0.00000

 k-point    56 :       0.1667    0.2500   -0.4000
  band No.  band energies     occupation 
      1     -22.2705      2.00000
      2     -22.1938      2.00000
      3     -21.4226      2.00000
      4     -21.3907      2.00000
      5     -19.9183      2.00000
      6     -19.9130      2.00000
      7     -19.2548      2.00000
      8     -19.2530      2.00000
      9     -11.7760      2.00000
     10     -11.7667      2.00000
     11      -9.1681      2.00000
     12      -9.1508      2.00000
     13      -7.0266      2.00000
     14      -6.9621      2.00000
     15      -6.4786      2.00000
     16      -6.4046      2.00000
     17      -5.8607      2.00000
     18      -5.6444      2.00000
     19      -5.4679      2.00000
     20      -5.1410      2.00000
     21      -4.3715      2.00000
     22      -4.2903      2.00000
     23      -4.1092      2.00000
     24      -4.0071      2.00000
     25      -3.0963      2.00000
     26      -2.9437      2.00000
     27      -2.0581      2.00000
     28      -1.7622      2.00000
     29      -1.6707      2.00000
     30      -1.6288      2.00000
     31      -1.5575      2.00000
     32      -1.4984      2.00000
     33      -0.4945      2.00000
     34      -0.4395      2.00000
     35       3.3239      0.00000
     36       3.4281      0.00000
     37       7.0273      0.00000
     38       7.0705      0.00000
     39       8.1224      0.00000
     40       9.0655      0.00000
     41       9.6853      0.00000
     42       9.7229      0.00000
     43      10.8673      0.00000
     44      11.0280      0.00000

 k-point    57 :       0.0000    0.5000    0.4000
  band No.  band energies     occupation 
      1     -22.2745      2.00000
      2     -22.2745      2.00000
      3     -21.3502      2.00000
      4     -21.3502      2.00000
      5     -19.9609      2.00000
      6     -19.9609      2.00000
      7     -19.1905      2.00000
      8     -19.1905      2.00000
      9     -11.9350      2.00000
     10     -11.9350      2.00000
     11      -9.1994      2.00000
     12      -9.1994      2.00000
     13      -6.6804      2.00000
     14      -6.6804      2.00000
     15      -6.5667      2.00000
     16      -6.5667      2.00000
     17      -5.7306      2.00000
     18      -5.7306      2.00000
     19      -5.3411      2.00000
     20      -5.3411      2.00000
     21      -4.2359      2.00000
     22      -4.2359      2.00000
     23      -3.6452      2.00000
     24      -3.6452      2.00000
     25      -3.3550      2.00000
     26      -3.3550      2.00000
     27      -1.9171      2.00000
     28      -1.9171      2.00000
     29      -1.7421      2.00000
     30      -1.7421      2.00000
     31      -1.5361      2.00000
     32      -1.5361      2.00000
     33      -0.4477      2.00000
     34      -0.4477      2.00000
     35       3.2464      0.00000
     36       3.2464      0.00000
     37       7.1272      0.00000
     38       7.1272      0.00000
     39       8.6406      0.00000
     40       8.6409      0.00000
     41       9.6265      0.00000
     42       9.6284      0.00000
     43      10.5420      0.00000
     44      10.6126      0.00000

 k-point    58 :       0.1667    0.5000    0.4000
  band No.  band energies     occupation 
      1     -22.2253      2.00000
      2     -22.2253      2.00000
      3     -21.4139      2.00000
      4     -21.4139      2.00000
      5     -19.9240      2.00000
      6     -19.9240      2.00000
      7     -19.2466      2.00000
      8     -19.2466      2.00000
      9     -11.7678      2.00000
     10     -11.7678      2.00000
     11      -9.1672      2.00000
     12      -9.1672      2.00000
     13      -6.9732      2.00000
     14      -6.9732      2.00000
     15      -6.4341      2.00000
     16      -6.4341      2.00000
     17      -5.6698      2.00000
     18      -5.6698      2.00000
     19      -5.4731      2.00000
     20      -5.4731      2.00000
     21      -4.3262      2.00000
     22      -4.3262      2.00000
     23      -4.0258      2.00000
     24      -4.0258      2.00000
     25      -2.9718      2.00000
     26      -2.9718      2.00000
     27      -1.8411      2.00000
     28      -1.8411      2.00000
     29      -1.6882      2.00000
     30      -1.6882      2.00000
     31      -1.5587      2.00000
     32      -1.5587      2.00000
     33      -0.4600      2.00000
     34      -0.4600      2.00000
     35       3.3163      0.00000
     36       3.3163      0.00000
     37       7.0660      0.00000
     38       7.0660      0.00000
     39       8.9368      0.00000
     40       8.9374      0.00000
     41       9.5194      0.00000
     42       9.5204      0.00000
     43      10.3398      0.00000
     44      10.3767      0.00000

 k-point    59 :       0.3333    0.5000    0.4000
  band No.  band energies     occupation 
      1     -22.1033      2.00000
      2     -22.1033      2.00000
      3     -21.5648      2.00000
      4     -21.5648      2.00000
      5     -19.8078      2.00000
      6     -19.8078      2.00000
      7     -19.3998      2.00000
      8     -19.3998      2.00000
      9     -11.3692      2.00000
     10     -11.3692      2.00000
     11      -9.2005      2.00000
     12      -9.2005      2.00000
     13      -7.3188      2.00000
     14      -7.3188      2.00000
     15      -6.3029      2.00000
     16      -6.3029      2.00000
     17      -5.8157      2.00000
     18      -5.8157      2.00000
     19      -5.4799      2.00000
     20      -5.4799      2.00000
     21      -4.6179      2.00000
     22      -4.6179      2.00000
     23      -4.2542      2.00000
     24      -4.2542      2.00000
     25      -2.6737      2.00000
     26      -2.6737      2.00000
     27      -1.7640      2.00000
     28      -1.7640      2.00000
     29      -1.7330      2.00000
     30      -1.7330      2.00000
     31      -1.5391      2.00000
     32      -1.5391      2.00000
     33      -0.3405      2.00000
     34      -0.3405      2.00000
     35       3.5192      0.00000
     36       3.5192      0.00000
     37       6.8999      0.00000
     38       6.8999      0.00000
     39       9.0158      0.00000
     40       9.0163      0.00000
     41       9.6027      0.00000
     42       9.6077      0.00000
     43      10.5533      0.00000
     44      10.5715      0.00000

 k-point    60 :       0.5000    0.5000    0.4000
  band No.  band energies     occupation 
      1     -22.0128      2.00000
      2     -22.0128      2.00000
      3     -21.6698      2.00000
      4     -21.6698      2.00000
      5     -19.6586      2.00000
      6     -19.6586      2.00000
      7     -19.5665      2.00000
      8     -19.5665      2.00000
      9     -11.1116      2.00000
     10     -11.1116      2.00000
     11      -9.3165      2.00000
     12      -9.3165      2.00000
     13      -7.3842      2.00000
     14      -7.3842      2.00000
     15      -6.2397      2.00000
     16      -6.2397      2.00000
     17      -6.0643      2.00000
     18      -6.0643      2.00000
     19      -5.3257      2.00000
     20      -5.3257      2.00000
     21      -4.7573      2.00000
     22      -4.7573      2.00000
     23      -4.3599      2.00000
     24      -4.3599      2.00000
     25      -2.5689      2.00000
     26      -2.5689      2.00000
     27      -1.8288      2.00000
     28      -1.8288      2.00000
     29      -1.6973      2.00000
     30      -1.6973      2.00000
     31      -1.5657      2.00000
     32      -1.5657      2.00000
     33      -0.2158      2.00000
     34      -0.2158      2.00000
     35       3.6574      0.00000
     36       3.6574      0.00000
     37       6.7892      0.00000
     38       6.7892      0.00000
     39       8.7660      0.00000
     40       8.7660      0.00000
     41       9.8179      0.00000
     42       9.8216      0.00000
     43      11.1369      0.00000
     44      11.5743      0.00000

 k-point    61 :      -0.3333    0.5000    0.4000
  band No.  band energies     occupation 
      1     -22.1133      2.00000
      2     -22.1133      2.00000
      3     -21.5542      2.00000
      4     -21.5542      2.00000
      5     -19.7945      2.00000
      6     -19.7945      2.00000
      7     -19.4129      2.00000
      8     -19.4129      2.00000
      9     -11.3737      2.00000
     10     -11.3737      2.00000
     11      -9.1921      2.00000
     12      -9.1921      2.00000
     13      -7.3245      2.00000
     14      -7.3245      2.00000
     15      -6.2265      2.00000
     16      -6.2265      2.00000
     17      -6.0138      2.00000
     18      -6.0138      2.00000
     19      -5.3080      2.00000
     20      -5.3080      2.00000
     21      -4.6323      2.00000
     22      -4.6323      2.00000
     23      -4.2861      2.00000
     24      -4.2861      2.00000
     25      -2.6893      2.00000
     26      -2.6893      2.00000
     27      -1.8933      2.00000
     28      -1.8933      2.00000
     29      -1.6421      2.00000
     30      -1.6421      2.00000
     31      -1.5023      2.00000
     32      -1.5023      2.00000
     33      -0.3464      2.00000
     34      -0.3464      2.00000
     35       3.5787      0.00000
     36       3.5788      0.00000
     37       6.8597      0.00000
     38       6.8597      0.00000
     39       8.8012      0.00000
     40       8.8012      0.00000
     41       9.6519      0.00000
     42       9.6550      0.00000
     43      11.2342      0.00000
     44      11.2974      0.00000

 k-point    62 :      -0.1667    0.5000    0.4000
  band No.  band energies     occupation 
      1     -22.2319      2.00000
      2     -22.2319      2.00000
      3     -21.4065      2.00000
      4     -21.4065      2.00000
      5     -19.9165      2.00000
      6     -19.9165      2.00000
      7     -19.2542      2.00000
      8     -19.2542      2.00000
      9     -11.7709      2.00000
     10     -11.7709      2.00000
     11      -9.1598      2.00000
     12      -9.1598      2.00000
     13      -7.0257      2.00000
     14      -7.0257      2.00000
     15      -6.3451      2.00000
     16      -6.3451      2.00000
     17      -5.7991      2.00000
     18      -5.7991      2.00000
     19      -5.3464      2.00000
     20      -5.3464      2.00000
     21      -4.3701      2.00000
     22      -4.3701      2.00000
     23      -4.0149      2.00000
     24      -4.0149      2.00000
     25      -2.9886      2.00000
     26      -2.9886      2.00000
     27      -1.9350      2.00000
     28      -1.9350      2.00000
     29      -1.6438      2.00000
     30      -1.6438      2.00000
     31      -1.5128      2.00000
     32      -1.5128      2.00000
     33      -0.4670      2.00000
     34      -0.4670      2.00000
     35       3.3717      0.00000
     36       3.3717      0.00000
     37       7.0305      0.00000
     38       7.0305      0.00000
     39       8.7651      0.00000
     40       8.7659      0.00000
     41       9.5336      0.00000
     42       9.5509      0.00000
     43      10.8320      0.00000
     44      11.0854      0.00000


--------------------------------------------------------------------------------------------------------


 soft charge-density along one line, spin component           1
         0         1         2         3         4         5         6         7         8         9
 total charge-density along one line

 pseudopotential strength for first ion, spin component:           1
 12.641  21.272  -0.003   0.004   0.009  -0.005   0.008   0.015
 21.272  35.794  -0.005   0.007   0.015  -0.008   0.013   0.026
 -0.003  -0.005  -3.076  -0.000   0.000  -5.510  -0.000   0.000
  0.004   0.007  -0.000  -3.075   0.000  -0.000  -5.510   0.000
  0.009   0.015   0.000   0.000  -3.073   0.000   0.000  -5.506
 -0.005  -0.008  -5.510  -0.000   0.000  -9.849   0.000  -0.000
  0.008   0.013  -0.000  -5.510   0.000   0.000  -9.850   0.000
  0.015   0.026   0.000   0.000  -5.506  -0.000   0.000  -9.842
 total augmentation occupancy for first ion, spin component:           1
  9.128  -3.511   0.521  -0.612   1.835  -0.232   0.272  -0.857
 -3.511   1.461  -0.230   0.263  -0.947   0.104  -0.121   0.419
  0.521  -0.230   5.388  -3.221   0.538  -1.849   1.390  -0.229
 -0.612   0.263  -3.221   7.819  -0.636   1.390  -2.899   0.273
  1.835  -0.947   0.538  -0.636   7.003  -0.228   0.272  -2.414
 -0.232   0.104  -1.849   1.390  -0.228   0.661  -0.593   0.099
  0.272  -0.121   1.390  -2.899   0.272  -0.593   1.109  -0.119
 -0.857   0.419  -0.229   0.273  -2.414   0.099  -0.119   0.864


------------------------ aborting loop because EDIFF is reached ----------------------------------------


    FORLOC:  cpu time      0.0047: real time      0.0047
    FORNL :  cpu time      0.1848: real time      0.1851
    FORCOR:  cpu time      0.0159: real time      0.0161
    OFIELD:  cpu time      0.0031: real time      0.0034

 ---------------------------------------------------------------------------------------------

         DFTD3 V3.0 Rev 1        
 IVDW         = 11
 DF revpbe    
 parameters
 VDW_S6       =    1.0000
 VDW_S8       =    1.0100
 VDW_SR       =    0.9230
 rs18     =    1.0000
 alpha6   =   14.0000
 alpha8   =   16.0000
 k1-k3    =   16.0000    1.3333   -4.0000
 VDW_RADIUS   =   50.2022 A
 VDW_CNRADIUS =   21.1671 A
 Edisp (eV)   -1.89519

 E6    (eV) :    -1.3385
 E8    (eV) :    -0.5567
 % E8        : 29.37
    FORVDW:  cpu time      0.2281: real time      0.2296

 VOLUME and BASIS-vectors are now :
 -----------------------------------------------------------------------------
  energy-cutoff  :     1000.00
  volume of cell :      156.87
      direct lattice vectors                 reciprocal lattice vectors
     5.330000000  0.000000000  0.000000000     0.187617261 -0.000000000  0.090819072
     0.000000000  6.015000000  0.000000000     0.000000000  0.166251039 -0.000000000
    -2.368480000  0.000000000  4.892890000     0.000000000  0.000000000  0.204378190

  length of vectors
     5.330000000  6.015000000  5.435997614     0.208442655  0.166251039  0.204378190


 FORCES acting on ions:
    Electron-Ion                     Ewald-Force                    Non-Local-Force
 -----------------------------------------------------------------------------------------------
   0.557E+02 0.128E+02 -.111E+02   -.601E+02 -.109E+02 0.803E+01   0.448E+01 -.210E+01 0.324E+01
   -.557E+02 -.128E+02 0.111E+02   0.601E+02 0.109E+02 -.803E+01   -.448E+01 0.210E+01 -.324E+01
   -.557E+02 0.128E+02 0.111E+02   0.601E+02 -.109E+02 -.803E+01   -.448E+01 -.210E+01 -.324E+01
   0.557E+02 -.128E+02 -.111E+02   -.601E+02 0.109E+02 0.803E+01   0.448E+01 0.210E+01 0.324E+01
   -.517E+02 0.341E+01 -.104E+02   0.584E+02 -.329E+01 0.103E+02   -.676E+01 -.877E-01 0.724E-01
   0.517E+02 -.341E+01 0.104E+02   -.584E+02 0.329E+01 -.103E+02   0.676E+01 0.877E-01 -.724E-01
   0.517E+02 0.341E+01 0.104E+02   -.584E+02 -.329E+01 -.103E+02   0.676E+01 -.877E-01 -.724E-01
   -.517E+02 -.341E+01 -.104E+02   0.584E+02 0.329E+01 0.103E+02   -.676E+01 0.877E-01 0.724E-01
   -.792E+02 -.928E+02 0.154E+03   0.970E+02 0.119E+03 -.192E+03   -.179E+02 -.262E+02 0.377E+02
   -.309E+02 0.908E+02 -.151E+03   0.145E+02 -.116E+03 0.189E+03   0.165E+02 0.254E+02 -.375E+02
   0.792E+02 0.928E+02 -.154E+03   -.970E+02 -.119E+03 0.192E+03   0.179E+02 0.262E+02 -.377E+02
   0.309E+02 -.908E+02 0.151E+03   -.145E+02 0.116E+03 -.189E+03   -.165E+02 -.254E+02 0.375E+02
   0.792E+02 -.928E+02 -.154E+03   -.970E+02 0.119E+03 0.192E+03   0.179E+02 -.262E+02 -.377E+02
   -.792E+02 0.928E+02 0.154E+03   0.970E+02 -.119E+03 -.192E+03   -.179E+02 0.262E+02 0.377E+02
   0.309E+02 0.908E+02 0.151E+03   -.145E+02 -.116E+03 -.189E+03   -.165E+02 0.254E+02 0.375E+02
   -.309E+02 -.908E+02 -.151E+03   0.145E+02 0.116E+03 0.189E+03   0.165E+02 -.254E+02 -.375E+02
 -----------------------------------------------------------------------------------------------
   0.537E-06 0.846E-05 -.309E-05   -.533E-13 0.142E-13 0.568E-13   -.711E-14 0.000E+00 0.000E+00


 POSITION                                       TOTAL-FORCE (eV/Angst)
 -----------------------------------------------------------------------------------
     -1.59862      0.01834      4.88466         0.182961     -0.021323      0.022474
      4.56014      5.99666      0.00823        -0.182961      0.021323     -0.022474
      3.37590      3.02584      2.45467        -0.182927     -0.021341     -0.022504
     -0.41438      2.98916      2.43822         0.182927      0.021341      0.022504
      2.31294      5.40473      0.93895        -0.075585      0.005651     -0.025082
      0.64858      0.61027      3.95394         0.075585     -0.005651      0.025082
      1.83282      2.39723      1.50749         0.075595      0.005650      0.025081
      1.12870      3.61777      3.38540        -0.075595     -0.005650     -0.025081
     -0.98134      0.63432      4.01775         0.084513      0.071930     -0.116234
      1.29558      5.36572      0.99010         0.094872     -0.074589      0.116376
      3.94286      5.38068      0.87514        -0.084513     -0.071930      0.116234
      1.66594      0.64928      3.90279        -0.094872      0.074589     -0.116376
      2.75862      3.64182      3.32158        -0.084527      0.071947      0.116256
      0.20290      2.37318      1.57131         0.084527     -0.071947     -0.116256
      2.85018      2.35822      1.45634        -0.094882     -0.074591     -0.116376
      0.11134      3.65678      3.43655         0.094882      0.074591      0.116376
 -----------------------------------------------------------------------------------
    total drift:                                0.000001      0.000008     -0.000003


--------------------------------------------------------------------------------------------------------



  FREE ENERGIE OF THE ION-ELECTRON SYSTEM (eV)
  ---------------------------------------------------
  free  energy   TOTEN  =      -105.31438198 eV

  energy  without entropy=     -105.31438198  energy(sigma->0) =     -105.31438198



--------------------------------------------------------------------------------------------------------


    POTLOK:  cpu time      0.0292: real time      0.0293


--------------------------------------------------------------------------------------------------------


 stress matrix after NEB project (eV)
     -1.52388     -0.00000     -0.04333
     -0.00000     -3.14630      0.00000
     -0.04333      0.00000     -2.49101
  FORCES: max atom, RMS     0.185565    0.153903
  FORCE total and by dimension    0.615612    0.182961
  Stress total and by dimension    4.293050    3.146297
     LOOP+:  cpu time     26.6258: real time     26.8767
    4ORBIT:  cpu time      0.0000: real time      0.0000

 total amount of memory used by VASP MPI-rank0    48565. kBytes
=======================================================================

   base      :      30000. kBytes
   nonl-proj :       4426. kBytes
   fftplans  :        741. kBytes
   grid      :       1218. kBytes
   one-center:          3. kBytes
   wavefun   :      12177. kBytes

  
  
 General timing and accounting informations for this job:
 ========================================================
  
                  Total CPU time used (sec):       35.168
                            User time (sec):       33.094
                          System time (sec):        2.073
                         Elapsed time (sec):       38.802
  
                   Maximum memory used (kb):      241408.
                   Average memory used (kb):          N/A
  
                          Minor page faults:        98848
                          Major page faults:          476
                 Voluntary context switches:         3396
