 vasp.6.4.1 05Apr23 (build Jun  6 2023 14:36:51) complex                         
 executed on        HPECrayEX_GCC date 2024.08.20  14:09:57
 running  256 mpi-ranks, with    1 threads/rank, on    2 nodes
 distrk:  each k-point on  128 cores,    2 groups
 distr:  one band on NCORE=  32 cores,    4 groups


--------------------------------------------------------------------------------------------------------


 INCAR:
   ALGO = Conjugate
   KPAR = 2
   NCORE = 32
   PREC = Accurate
   EDIFF = 1E-7
   ENCUT = 1000
   ISMEAR = 0
   SIGMA = 0.01
   ISIF = 0
   GGA = PE
   IVDW = 202
   LVDWEXPANSION = .TRUE.
   LWAVE = .FALSE.
   LCHARGE = .FALSE.
   SYMPREC = 1E-7
   LWAVE = .FALSE.
   LCHARGE = .FALSE.

 POTCAR:    PAW_PBE C_h 06Feb2004                 
 POTCAR:    PAW_PBE H_h 06Feb2004                 
 POTCAR:    PAW_PBE O_h 06Feb2004                 
 POTCAR:    PAW_PBE C_h 06Feb2004                 
   VRHFIN =C: s2p2                                                                                  
   LEXCH  = PE                                                                                      
   EATOM  =   147.1560 eV,   10.8157 Ry                                                             
                                                                                                    
   TITEL  = PAW_PBE C_h 06Feb2004                                                                   
   LULTRA =        F    use ultrasoft PP ?                                                          
   IUNSCR =        1    unscreen: 0-lin 1-nonlin 2-no                                               
   RPACOR =    0.800    partial core radius                                                         
   POMASS =   12.011; ZVAL   =    4.000    mass and valenz                                          
   RCORE  =    1.100    outmost cutoff radius                                                       
   RWIGS  =    1.630; RWIGS  =    0.863    wigner-seitz radius (au A)                               
   ENMAX  =  700.000; ENMIN  =  500.000 eV                                                          
   ICORE  =        2    local potential                                                             
   LCOR   =        T    correct aug charges                                                         
   LPAW   =        T    paw PP                                                                      
   EAUG   =  946.768                                                                                
   DEXC   =    0.000                                                                                
   RMAX   =    1.128    core radius for proj-oper                                                   
   RAUG   =    1.300    factor for augmentation sphere                                              
   RDEP   =    1.162    radius for radial grids                                                     
   RDEPT  =    1.088    core radius for aug-charge                                                  
                                                                                                    
   Atomic configuration                                                                             
    4 entries                                                                                       
     n  l   j            E        occ.                                                              
     1  0  0.50      -273.3789   2.0000                                                             
     2  0  0.50       -13.7508   2.0000                                                             
     2  1  0.50        -5.2854   2.0000                                                             
     3  2  1.50        -5.4423   0.0000                                                             
   Description                                                                                      
     l       E           TYP  RCUT    TYP  RCUT                                                     
     0    -13.7508458     23  1.100                                                                 
     0     -8.2022199     23  1.100                                                                 
     1     -5.2854383     23  1.100                                                                 
     1      1.1560700     23  1.100                                                                 
     2     -5.4423304      7  1.100                                                                 
  local pseudopotential read in
  partial core-charges read in
  partial kinetic energy density read in
  atomic valenz-charges read in
  non local Contribution for L=           0  read in
    real space projection operators read in
  non local Contribution for L=           0  read in
    real space projection operators read in
  non local Contribution for L=           1  read in
    real space projection operators read in
  non local Contribution for L=           1  read in
    real space projection operators read in
    PAW grid and wavefunctions read in

   number of l-projection  operators is LMAX  =           4
   number of lm-projection operators is LMMAX =           8

 POTCAR:    PAW_PBE H_h 06Feb2004                 
   VRHFIN =H: ultrasoft test                                                                        
   LEXCH  = PE                                                                                      
   EATOM  =    12.4884 eV,    0.9179 Ry                                                             
                                                                                                    
   TITEL  = PAW_PBE H_h 06Feb2004                                                                   
   LULTRA =        F    use ultrasoft PP ?                                                          
   IUNSCR =        0    unscreen: 0-lin 1-nonlin 2-no                                               
   RPACOR =    0.000    partial core radius                                                         
   POMASS =    1.000; ZVAL   =    1.000    mass and valenz                                          
   RCORE  =    0.800    outmost cutoff radius                                                       
   RWIGS  =    0.700; RWIGS  =    0.370    wigner-seitz radius (au A)                               
   ENMAX  =  700.000; ENMIN  =  350.000 eV                                                          
   RCLOC  =    0.701    cutoff for local pot                                                        
   LCOR   =        T    correct aug charges                                                         
   LPAW   =        T    paw PP                                                                      
   EAUG   = 1000.000                                                                                
   RMAX   =    0.819    core radius for proj-oper                                                   
   RAUG   =    1.000    factor for augmentation sphere                                              
   RDEP   =    0.817    radius for radial grids                                                     
   RDEPT  =    0.817    core radius for aug-charge                                                  
                                                                                                    
   Atomic configuration                                                                             
    2 entries                                                                                       
     n  l   j            E        occ.                                                              
     1  0  0.50        -6.4927   1.0000                                                             
     2  1  0.50        -3.4015   0.0000                                                             
   Description                                                                                      
     l       E           TYP  RCUT    TYP  RCUT                                                     
     0     -6.4927493     23  0.800                                                                 
     0      6.8029130     23  0.800                                                                 
     1     -6.8029130     23  0.800                                                                 
  local pseudopotential read in
  atomic valenz-charges read in
  non local Contribution for L=           0  read in
    real space projection operators read in
  non local Contribution for L=           0  read in
    real space projection operators read in
  non local Contribution for L=           1  read in
    real space projection operators read in
    PAW grid and wavefunctions read in

   number of l-projection  operators is LMAX  =           3
   number of lm-projection operators is LMMAX =           5

 POTCAR:    PAW_PBE O_h 06Feb2004                 
   VRHFIN =O: s2p4                                                                                  
   LEXCH  = PE                                                                                      
   EATOM  =   432.3788 eV,   31.7789 Ry                                                             
                                                                                                    
   TITEL  = PAW_PBE O_h 06Feb2004                                                                   
   LULTRA =        F    use ultrasoft PP ?                                                          
   IUNSCR =        1    unscreen: 0-lin 1-nonlin 2-no                                               
   RPACOR =    0.800    partial core radius                                                         
   POMASS =   16.000; ZVAL   =    6.000    mass and valenz                                          
   RCORE  =    1.100    outmost cutoff radius                                                       
   RWIGS  =    1.400; RWIGS  =    0.741    wigner-seitz radius (au A)                               
   ENMAX  =  700.000; ENMIN  =  500.000 eV                                                          
   ICORE  =        2    local potential                                                             
   LCOR   =        T    correct aug charges                                                         
   LPAW   =        T    paw PP                                                                      
   EAUG   =  888.804                                                                                
   DEXC   =    0.000                                                                                
   RMAX   =    1.128    core radius for proj-oper                                                   
   RAUG   =    1.300    factor for augmentation sphere                                              
   RDEP   =    1.125    radius for radial grids                                                     
   RDEPT  =    1.088    core radius for aug-charge                                                  
                                                                                                    
   Atomic configuration                                                                             
    4 entries                                                                                       
     n  l   j            E        occ.                                                              
     1  0  0.50      -514.6923   2.0000                                                             
     2  0  0.50       -23.9615   2.0000                                                             
     2  1  0.50        -9.0305   4.0000                                                             
     3  2  1.50        -9.5241   0.0000                                                             
   Description                                                                                      
     l       E           TYP  RCUT    TYP  RCUT                                                     
     0    -23.9615319     23  1.100                                                                 
     0    -25.3221145     23  1.100                                                                 
     1     -9.0304911     23  1.100                                                                 
     1     -5.4802209     23  1.100                                                                 
     2     -9.5240782      7  1.100                                                                 
  local pseudopotential read in
  partial core-charges read in
  partial kinetic energy density read in
  atomic valenz-charges read in
  non local Contribution for L=           0  read in
    real space projection operators read in
  non local Contribution for L=           0  read in
    real space projection operators read in
  non local Contribution for L=           1  read in
    real space projection operators read in
  non local Contribution for L=           1  read in
    real space projection operators read in
    PAW grid and wavefunctions read in

   number of l-projection  operators is LMAX  =           4
   number of lm-projection operators is LMMAX =           8

  PAW_PBE C_h 06Feb2004                 :
 energy of atom  1       EATOM= -147.1560
 kinetic energy error for atom=    0.0031 (will be added to EATOM!!)
  PAW_PBE H_h 06Feb2004                 :
 energy of atom  2       EATOM=  -12.4884
 kinetic energy error for atom=    0.0006 (will be added to EATOM!!)
  PAW_PBE O_h 06Feb2004                 :
 energy of atom  3       EATOM= -432.3788
 kinetic energy error for atom=    0.0171 (will be added to EATOM!!)


 POSCAR:  C  H  O
  positions in cartesian coordinates
  No initial velocities read in
 exchange correlation table for  LEXCH =        8
   RHO(1)=    0.500       N(1)  =     2000
   RHO(2)=  100.500       N(2)  =     4000

 VTST: version 4.1, (05/19/21)

 CHAIN: initializing optimizer
 
 OPT: Using VASP Dynamics algorithm
 CHAIN: Read ICHAIN            0

 POSCAR:  C  H  O
  positions in cartesian coordinates
  No initial velocities read in



--------------------------------------------------------------------------------------------------------


 ion  position               nearest neighbor table
   1  0.144  0.003  0.998-   9 1.23  10 1.31   2 1.54
   2  0.856  0.997  0.002-  11 1.23  12 1.31   1 1.54
   3  0.856  0.503  0.502-  13 1.23  15 1.31   4 1.54
   4  0.144  0.497  0.498-  14 1.23  16 1.31   3 1.54
   5  0.519  0.899  0.192-  10 1.02
   6  0.481  0.101  0.808-  12 1.02
   7  0.481  0.399  0.308-  15 1.02
   8  0.519  0.601  0.692-  16 1.02
   9  0.181  0.105  0.821-   1 1.23
  10  0.333  0.892  0.202-   5 1.02   1 1.31
  11  0.819  0.895  0.179-   2 1.23
  12  0.667  0.108  0.798-   6 1.02   2 1.31
  13  0.819  0.605  0.679-   3 1.23
  14  0.181  0.395  0.321-   4 1.23
  15  0.667  0.392  0.298-   7 1.02   3 1.31
  16  0.333  0.608  0.702-   8 1.02   4 1.31

  LATTYP: Found a simple monoclinic cell.
 ALAT       =     5.3300000000
 B/A-ratio  =     1.1285178236
 C/A-ratio  =     1.0198869820
 COS(beta)  =    -0.4357029138
  
  Lattice vectors:
  
 A1 = (   5.3300000000,   0.0000000000,   0.0000000000)
 A2 = (   0.0000000000,   6.0150000000,   0.0000000000)
 A3 = (  -2.3684800000,   0.0000000000,   4.8928900000)


Analysis of symmetry for initial positions (statically):
=====================================================================
 Subroutine PRICEL returns:
 Original cell was already a primitive cell.
 

 Routine SETGRP: Setting up the symmetry group for a 
 simple monoclinic supercell.


 Subroutine GETGRP returns: Found  2 space group operations
 (whereof  2 operations were pure point group operations)
 out of a pool of  4 trial point group operations.


The static configuration has the point symmetry S_2 .


Analysis of symmetry for dynamics (positions and initial velocities):
=====================================================================
 Subroutine PRICEL returns:
 Original cell was already a primitive cell.
 

 Routine SETGRP: Setting up the symmetry group for a 
 simple monoclinic supercell.


 Subroutine GETGRP returns: Found  2 space group operations
 (whereof  2 operations were pure point group operations)
 out of a pool of  4 trial point group operations.


The dynamic configuration has the point symmetry S_2 .


 Subroutine INISYM returns: Found  2 space group operations
 (whereof  2 operations are pure point group operations),
 and found     1 'primitive' translations


----------------------------------------------------------------------------------------

                                     Primitive cell                                     

  volume of cell :     156.8658

  direct lattice vectors                    reciprocal lattice vectors
     5.330000000  0.000000000  0.000000000     0.187617261 -0.000000000  0.090819072
     0.000000000  6.015000000  0.000000000     0.000000000  0.166251039 -0.000000000
    -2.368480000  0.000000000  4.892890000     0.000000000  0.000000000  0.204378190

  length of vectors
     5.330000000  6.015000000  5.435997614     0.208442655  0.166251039  0.204378190

  position of ions in fractional coordinates (direct lattice)
     0.143691759  0.003048989  0.998318707
     0.856308241  0.996951011  0.001681293
     0.856308238  0.503048993  0.501681414
     0.143691762  0.496951006  0.498318586
     0.519222146  0.898542098  0.191901324
     0.480777854  0.101457902  0.808098676
     0.480777830  0.398542067  0.308098767
     0.519222170  0.601457933  0.691901233
     0.180772503  0.105456181  0.821140772
     0.332993439  0.892056331  0.202355363
     0.819227497  0.894543819  0.178859228
     0.667006561  0.107943669  0.797644637
     0.819227565  0.605456176  0.678859303
     0.180772436  0.394543824  0.321140697
     0.667006610  0.392056290  0.297644791
     0.332993390  0.607943710  0.702355209

  ion indices of the primitive-cell ions
   primitive index   ion index
                 1           1
                 2           2
                 3           3
                 4           4
                 5           5
                 6           6
                 7           7
                 8           8
                 9           9
                10          10
                11          11
                12          12
                13          13
                14          14
                15          15
                16          16

----------------------------------------------------------------------------------------



 KPOINTS: auto                                    

Automatic generation of k-mesh.
 Grid dimensions read from file:
 generate k-points for:    6    4    5

 Generating k-lattice:

  Cartesian coordinates                     Fractional coordinates (reciprocal lattice)
     0.031269543 -0.000000000  0.015136512     0.166666667  0.000000000 -0.000000000
     0.000000000  0.041562760 -0.000000000     0.000000000  0.250000000  0.000000000
     0.000000000  0.000000000  0.040875638     0.000000000  0.000000000  0.200000000

  Length of vectors
     0.034740442  0.041562760  0.040875638

  Shift w.r.t. Gamma in fractional coordinates (k-lattice)
     0.000000000  0.000000000  0.000000000

 
 Subroutine IBZKPT returns following result:
 ===========================================
 
 Found     62 irreducible k-points:
 
 Following reciprocal coordinates:
            Coordinates               Weight
  0.000000  0.000000  0.000000      1.000000
  0.166667  0.000000  0.000000      2.000000
  0.333333  0.000000  0.000000      2.000000
  0.500000  0.000000  0.000000      1.000000
  0.000000  0.250000  0.000000      2.000000
  0.166667  0.250000  0.000000      2.000000
 -0.166667  0.250000  0.000000      2.000000
  0.333333  0.250000  0.000000      2.000000
 -0.333333  0.250000  0.000000      2.000000
  0.500000  0.250000  0.000000      2.000000
  0.000000  0.500000  0.000000      1.000000
  0.166667  0.500000  0.000000      2.000000
  0.333333  0.500000  0.000000      2.000000
  0.500000  0.500000  0.000000      1.000000
  0.000000  0.000000  0.200000      2.000000
  0.166667  0.000000  0.200000      2.000000
  0.333333  0.000000  0.200000      2.000000
  0.500000  0.000000  0.200000      2.000000
 -0.333333  0.000000  0.200000      2.000000
 -0.166667  0.000000  0.200000      2.000000
  0.000000  0.250000  0.200000      2.000000
  0.000000  0.250000 -0.200000      2.000000
  0.166667  0.250000  0.200000      2.000000
 -0.166667  0.250000 -0.200000      2.000000
  0.333333  0.250000  0.200000      2.000000
 -0.333333  0.250000 -0.200000      2.000000
  0.500000  0.250000  0.200000      2.000000
  0.500000  0.250000 -0.200000      2.000000
 -0.333333  0.250000  0.200000      2.000000
  0.333333  0.250000 -0.200000      2.000000
 -0.166667  0.250000  0.200000      2.000000
  0.166667  0.250000 -0.200000      2.000000
  0.000000  0.500000  0.200000      2.000000
  0.166667  0.500000  0.200000      2.000000
  0.333333  0.500000  0.200000      2.000000
  0.500000  0.500000  0.200000      2.000000
 -0.333333  0.500000  0.200000      2.000000
 -0.166667  0.500000  0.200000      2.000000
  0.000000  0.000000  0.400000      2.000000
  0.166667  0.000000  0.400000      2.000000
  0.333333  0.000000  0.400000      2.000000
  0.500000  0.000000  0.400000      2.000000
 -0.333333  0.000000  0.400000      2.000000
 -0.166667  0.000000  0.400000      2.000000
  0.000000  0.250000  0.400000      2.000000
  0.000000  0.250000 -0.400000      2.000000
  0.166667  0.250000  0.400000      2.000000
 -0.166667  0.250000 -0.400000      2.000000
  0.333333  0.250000  0.400000      2.000000
 -0.333333  0.250000 -0.400000      2.000000
  0.500000  0.250000  0.400000      2.000000
  0.500000  0.250000 -0.400000      2.000000
 -0.333333  0.250000  0.400000      2.000000
  0.333333  0.250000 -0.400000      2.000000
 -0.166667  0.250000  0.400000      2.000000
  0.166667  0.250000 -0.400000      2.000000
  0.000000  0.500000  0.400000      2.000000
  0.166667  0.500000  0.400000      2.000000
  0.333333  0.500000  0.400000      2.000000
  0.500000  0.500000  0.400000      2.000000
 -0.333333  0.500000  0.400000      2.000000
 -0.166667  0.500000  0.400000      2.000000
 
 Following cartesian coordinates:
            Coordinates               Weight
  0.000000  0.000000  0.000000      1.000000
  0.031270  0.000000  0.015137      2.000000
  0.062539  0.000000  0.030273      2.000000
  0.093809  0.000000  0.045410      1.000000
  0.000000  0.041563  0.000000      2.000000
  0.031270  0.041563  0.015137      2.000000
 -0.031270  0.041563 -0.015137      2.000000
  0.062539  0.041563  0.030273      2.000000
 -0.062539  0.041563 -0.030273      2.000000
  0.093809  0.041563  0.045410      2.000000
  0.000000  0.083126  0.000000      1.000000
  0.031270  0.083126  0.015137      2.000000
  0.062539  0.083126  0.030273      2.000000
  0.093809  0.083126  0.045410      1.000000
  0.000000  0.000000  0.040876      2.000000
  0.031270  0.000000  0.056012      2.000000
  0.062539  0.000000  0.071149      2.000000
  0.093809  0.000000  0.086285      2.000000
 -0.062539  0.000000  0.010603      2.000000
 -0.031270  0.000000  0.025739      2.000000
  0.000000  0.041563  0.040876      2.000000
  0.000000  0.041563 -0.040876      2.000000
  0.031270  0.041563  0.056012      2.000000
 -0.031270  0.041563 -0.056012      2.000000
  0.062539  0.041563  0.071149      2.000000
 -0.062539  0.041563 -0.071149      2.000000
  0.093809  0.041563  0.086285      2.000000
  0.093809  0.041563  0.004534      2.000000
 -0.062539  0.041563  0.010603      2.000000
  0.062539  0.041563 -0.010603      2.000000
 -0.031270  0.041563  0.025739      2.000000
  0.031270  0.041563 -0.025739      2.000000
  0.000000  0.083126  0.040876      2.000000
  0.031270  0.083126  0.056012      2.000000
  0.062539  0.083126  0.071149      2.000000
  0.093809  0.083126  0.086285      2.000000
 -0.062539  0.083126  0.010603      2.000000
 -0.031270  0.083126  0.025739      2.000000
  0.000000  0.000000  0.081751      2.000000
  0.031270  0.000000  0.096888      2.000000
  0.062539  0.000000  0.112024      2.000000
  0.093809  0.000000  0.127161      2.000000
 -0.062539  0.000000  0.051478      2.000000
 -0.031270  0.000000  0.066615      2.000000
  0.000000  0.041563  0.081751      2.000000
  0.000000  0.041563 -0.081751      2.000000
  0.031270  0.041563  0.096888      2.000000
 -0.031270  0.041563 -0.096888      2.000000
  0.062539  0.041563  0.112024      2.000000
 -0.062539  0.041563 -0.112024      2.000000
  0.093809  0.041563  0.127161      2.000000
  0.093809  0.041563 -0.036342      2.000000
 -0.062539  0.041563  0.051478      2.000000
  0.062539  0.041563 -0.051478      2.000000
 -0.031270  0.041563  0.066615      2.000000
  0.031270  0.041563 -0.066615      2.000000
  0.000000  0.083126  0.081751      2.000000
  0.031270  0.083126  0.096888      2.000000
  0.062539  0.083126  0.112024      2.000000
  0.093809  0.083126  0.127161      2.000000
 -0.062539  0.083126  0.051478      2.000000
 -0.031270  0.083126  0.066615      2.000000
 


--------------------------------------------------------------------------------------------------------




 Dimension of arrays:
   k-points           NKPTS =     62   k-points in BZ     NKDIM =     62   number of bands    NBANDS=     44
   number of dos      NEDOS =    301   number of ions     NIONS =     16
   non local maximal  LDIM  =      4   non local SUM 2l+1 LMDIM =      8
   total plane-waves  NPLWV = 200704
   max r-space proj   IRMAX =      1   max aug-charges    IRDMAX=   9530
   dimension x,y,z NGX =    56 NGY =   64 NGZ =   56
   dimension x,y,z NGXF=   112 NGYF=  128 NGZF=  112
   support grid    NGXF=   112 NGYF=  128 NGZF=  112
   ions per type =               4   4   8
   NGX,Y,Z   is equivalent  to a cutoff of  17.47, 17.69, 17.13 a.u.
   NGXF,Y,Z  is equivalent  to a cutoff of  34.93, 35.38, 34.25 a.u.

 SYSTEM =  unknown system                          
 POSCAR =   C  H  O                                

 Startparameter for this run:
   NWRITE =      2    write-flag & timer
   PREC   = accura    normal or accurate (medium, high low for compatibility)
   ISTART =      0    job   : 0-new  1-cont  2-samecut
   ICHARG =      2    charge: 1-file 2-atom 10-const
   ISPIN  =      1    spin polarized calculation?
   LNONCOLLINEAR =      F non collinear calculations
   LSORBIT =      F    spin-orbit coupling
   INIWAV =      1    electr: 0-lowe 1-rand  2-diag
   LASPH  =      F    aspherical Exc in radial PAW
 Electronic Relaxation 1
   ENCUT  = 1000.0 eV  73.50 Ry    8.57 a.u.  13.74 15.51 14.02*2*pi/ulx,y,z
   ENINI  = 1000.0     initial cutoff
   ENAUG  = 1000.0 eV  augmentation charge cutoff
   NELM   =     60;   NELMIN=  2; NELMDL= -5     # of ELM steps 
   EDIFF  = 0.1E-06   stopping-criterion for ELM
   LREAL  =      F    real-space projection
   NLSPLINE    = F    spline interpolate recip. space projectors
   LCOMPAT=      F    compatible to vasp.4.4
   GGA_COMPAT  = T    GGA compatible to vasp.4.4-vasp.4.6
   LMAXPAW     = -100 max onsite density
   LMAXMIX     =    2 max onsite mixed and CHGCAR
   VOSKOWN=      0    Vosko Wilk Nusair interpolation
   ROPT   =    0.00000   0.00000   0.00000
 Ionic relaxation
   EDIFFG = 0.1E-05   stopping-criterion for IOM
   NSW    =      0    number of steps for IOM
   NBLOCK =      1;   KBLOCK =      1    inner block; outer block 
   IBRION =     -1    ionic relax: 0-MD 1-quasi-New 2-CG
   NFREE  =      0    steps in history (QN), initial steepest desc. (CG)
   ISIF   =      0    stress and relaxation
   IWAVPR =     10    prediction:  0-non 1-charg 2-wave 3-comb
   ISYM   =      2    0-nonsym 1-usesym 2-fastsym
   LCORR  =      T    Harris-Foulkes like correction to forces

   POTIM  = 0.5000    time-step for ionic-motion
   TEIN   =    0.0    initial temperature
   TEBEG  =    0.0;   TEEND  =   0.0 temperature during run
   SMASS  =  -3.00    Nose mass-parameter (am)
   estimated Nose-frequenzy (Omega)   =  0.10E-29 period in steps = 0.13E+47 mass=  -0.649E-27a.u.
   SCALEE = 1.0000    scale energy and forces
   NPACO  =    256;   APACO  = 10.0  distance and # of slots for P.C.
   PSTRESS=    0.0 pullay stress

  Mass of Ions in am
   POMASS =  12.01  1.00 16.00
  Ionic Valenz
   ZVAL   =   4.00  1.00  6.00
  Atomic Wigner-Seitz radii
   RWIGS  =  -1.00 -1.00 -1.00
  virtual crystal weights 
   VCA    =   1.00  1.00  1.00
   NELECT =      68.0000    total number of electrons
   NUPDOWN=      -1.0000    fix difference up-down

 DOS related values:
   EMIN   =  10.00;   EMAX   =-10.00  energy-range for DOS
   EFERMI =   0.00;   METHOD = LEGACY      
   ISMEAR =     0;   SIGMA  =   0.01  broadening in eV -4-tet -1-fermi 0-gaus

 Electronic relaxation 2 (details)
   IALGO  =     58    algorithm
   LDIAG  =      T    sub-space diagonalisation (order eigenvalues)
   LSUBROT=      F    optimize rotation matrix (better conditioning)
   TURBO    =      0    0=normal 1=particle mesh
   IRESTART =      0    0=no restart 2=restart with 2 vectors
   NREBOOT  =      0    no. of reboots
   NMIN     =      0    reboot dimension
   EREF     =   0.00    reference energy to select bands
   IMIX   =      4    mixing-type and parameters
     AMIX     =   0.40;   BMIX     =  1.00
     AMIX_MAG =   1.60;   BMIX_MAG =  1.00
     AMIN     =   0.10
     WC   =   100.;   INIMIX=   1;  MIXPRE=   1;  MAXMIX= -45

 Intra band minimization:
   WEIMIN = 0.0000     energy-eigenvalue tresh-hold
   EBREAK =  0.57E-09  absolut break condition
   DEPER  =   0.30     relativ break condition  

   TIME   =   0.40     timestep for ELM

  volume/ion in A,a.u.               =       9.80        66.16
  Fermi-wavevector in a.u.,A,eV,Ry     =   1.238992  2.341355 20.886307  1.535100
  Thomas-Fermi vector in A             =   2.373494

 Write flags
   LWAVE        =      F    write WAVECAR
   LDOWNSAMPLE  =      F    k-point downsampling of WAVECAR
   LCHARG       =      T    write CHGCAR
   LVTOT        =      F    write LOCPOT, total local potential
   LVHAR        =      F    write LOCPOT, Hartree potential only
   LELF         =      F    write electronic localiz. function (ELF)
   LORBIT       =      0    0 simple, 1 ext, 2 COOP (PROOUT), +10 PAW based schemes


 Dipole corrections
   LMONO  =      F    monopole corrections only (constant potential shift)
   LDIPOL =      F    correct potential (dipole corrections)
   IDIPOL =      0    1-x, 2-y, 3-z, 4-all directions 
   EPSILON=  1.0000000 bulk dielectric constant

 Exchange correlation treatment:
   GGA     =    PE    GGA type
   LEXCH   =     8    internal setting for exchange type
   LIBXC   =     F    Libxc                    
   VOSKOWN =     0    Vosko Wilk Nusair interpolation
   LHFCALC =     F    Hartree Fock is set to
   LHFONE  =     F    Hartree Fock one center treatment
   AEXX    =    0.0000 exact exchange contribution

 Linear response parameters
   LEPSILON=     F    determine dielectric tensor
   LRPA    =     F    only Hartree local field effects (RPA)
   LNABLA  =     F    use nabla operator in PAW spheres
   LVEL    =     F    velocity operator in full k-point grid
   CSHIFT  =0.1000    complex shift for real part using Kramers Kronig
   OMEGAMAX=  -1.0    maximum frequency
   DEG_THRESHOLD= 0.2000000E-02 threshold for treating states as degnerate
   RTIME   =   -0.100 relaxation time in fs
  (WPLASMAI=    0.000 imaginary part of plasma frequency in eV, 0.658/RTIME)
   DFIELD  = 0.0000000 0.0000000 0.0000000 field for delta impulse in time

  Optional k-point grid parameters
   LKPOINTS_OPT  =     F    use optional k-point grid
   KPOINTS_OPT_MODE=     1    mode for optional k-point grid

 Orbital magnetization related:
   ORBITALMAG=     F  switch on orbital magnetization
   LCHIMAG   =     F  perturbation theory with respect to B field
   DQ        =  0.001000  dq finite difference perturbation B field
   LLRAUG    =     F  two centre corrections for induced B field
   LBONE     =     F  B-component reconstruction in AE one-centre
   LVGVCALC  =     T  calculate vGv susceptibility
   LVGVAPPL  =     F  apply vGv susceptibility instead of pGv for G=0

 Random number generation:
   RANDOM_GENERATOR = DEFAULT
   PCG_SEED         = not used


--------------------------------------------------------------------------------------------------------


 Static calculation
 charge density and potential will be updated during run
 non-spin polarized calculation
 Conjugate gradient for all bands (Freysoldt, et al. PRB 79, 241103 (2009))
 preconditioned conjugated gradient                                        
 perform sub-space diagonalisation
    before iterative eigenvector-optimisation
 modified Broyden-mixing scheme, WC =      100.0
 initial mixing is a Kerker type mixing with AMIX =  0.4000 and BMIX =      1.0000
 Hartree-type preconditioning will be used
 using additional bands           10
 reciprocal scheme for non local part
 use partial core corrections
 no Harris-corrections to forces 
 use gradient corrections 
 use of overlap-Matrix (Vanderbilt PP)
 Gauss-broadening in eV      SIGMA  =   0.01


--------------------------------------------------------------------------------------------------------


  energy-cutoff  :     1000.00
  volume of cell :      156.87
      direct lattice vectors                 reciprocal lattice vectors
     5.330000000  0.000000000  0.000000000     0.187617261 -0.000000000  0.090819072
     0.000000000  6.015000000  0.000000000     0.000000000  0.166251039 -0.000000000
    -2.368480000  0.000000000  4.892890000     0.000000000  0.000000000  0.204378190

  length of vectors
     5.330000000  6.015000000  5.435997614     0.208442655  0.166251039  0.204378190



 k-points in units of 2pi/SCALE and weight: auto                                    
   0.00000000  0.00000000  0.00000000       0.008
   0.03126954  0.00000000  0.01513651       0.017
   0.06253909  0.00000000  0.03027302       0.017
   0.09380863  0.00000000  0.04540954       0.008
   0.00000000  0.04156276  0.00000000       0.017
   0.03126954  0.04156276  0.01513651       0.017
  -0.03126954  0.04156276 -0.01513651       0.017
   0.06253909  0.04156276  0.03027302       0.017
  -0.06253909  0.04156276 -0.03027302       0.017
   0.09380863  0.04156276  0.04540954       0.017
   0.00000000  0.08312552  0.00000000       0.008
   0.03126954  0.08312552  0.01513651       0.017
   0.06253909  0.08312552  0.03027302       0.017
   0.09380863  0.08312552  0.04540954       0.008
   0.00000000  0.00000000  0.04087564       0.017
   0.03126954  0.00000000  0.05601215       0.017
   0.06253909  0.00000000  0.07114866       0.017
   0.09380863  0.00000000  0.08628517       0.017
  -0.06253909  0.00000000  0.01060261       0.017
  -0.03126954  0.00000000  0.02573913       0.017
   0.00000000  0.04156276  0.04087564       0.017
   0.00000000  0.04156276 -0.04087564       0.017
   0.03126954  0.04156276  0.05601215       0.017
  -0.03126954  0.04156276 -0.05601215       0.017
   0.06253909  0.04156276  0.07114866       0.017
  -0.06253909  0.04156276 -0.07114866       0.017
   0.09380863  0.04156276  0.08628517       0.017
   0.09380863  0.04156276  0.00453390       0.017
  -0.06253909  0.04156276  0.01060261       0.017
   0.06253909  0.04156276 -0.01060261       0.017
  -0.03126954  0.04156276  0.02573913       0.017
   0.03126954  0.04156276 -0.02573913       0.017
   0.00000000  0.08312552  0.04087564       0.017
   0.03126954  0.08312552  0.05601215       0.017
   0.06253909  0.08312552  0.07114866       0.017
   0.09380863  0.08312552  0.08628517       0.017
  -0.06253909  0.08312552  0.01060261       0.017
  -0.03126954  0.08312552  0.02573913       0.017
   0.00000000  0.00000000  0.08175128       0.017
   0.03126954  0.00000000  0.09688779       0.017
   0.06253909  0.00000000  0.11202430       0.017
   0.09380863  0.00000000  0.12716081       0.017
  -0.06253909  0.00000000  0.05147825       0.017
  -0.03126954  0.00000000  0.06661476       0.017
   0.00000000  0.04156276  0.08175128       0.017
   0.00000000  0.04156276 -0.08175128       0.017
   0.03126954  0.04156276  0.09688779       0.017
  -0.03126954  0.04156276 -0.09688779       0.017
   0.06253909  0.04156276  0.11202430       0.017
  -0.06253909  0.04156276 -0.11202430       0.017
   0.09380863  0.04156276  0.12716081       0.017
   0.09380863  0.04156276 -0.03634174       0.017
  -0.06253909  0.04156276  0.05147825       0.017
   0.06253909  0.04156276 -0.05147825       0.017
  -0.03126954  0.04156276  0.06661476       0.017
   0.03126954  0.04156276 -0.06661476       0.017
   0.00000000  0.08312552  0.08175128       0.017
   0.03126954  0.08312552  0.09688779       0.017
   0.06253909  0.08312552  0.11202430       0.017
   0.09380863  0.08312552  0.12716081       0.017
  -0.06253909  0.08312552  0.05147825       0.017
  -0.03126954  0.08312552  0.06661476       0.017

 k-points in reciprocal lattice and weights: auto                                    
   0.00000000  0.00000000  0.00000000       0.008
   0.16666667  0.00000000  0.00000000       0.017
   0.33333333  0.00000000  0.00000000       0.017
   0.50000000  0.00000000  0.00000000       0.008
   0.00000000  0.25000000  0.00000000       0.017
   0.16666667  0.25000000  0.00000000       0.017
  -0.16666667  0.25000000  0.00000000       0.017
   0.33333333  0.25000000  0.00000000       0.017
  -0.33333333  0.25000000  0.00000000       0.017
   0.50000000  0.25000000  0.00000000       0.017
   0.00000000  0.50000000  0.00000000       0.008
   0.16666667  0.50000000  0.00000000       0.017
   0.33333333  0.50000000  0.00000000       0.017
   0.50000000  0.50000000  0.00000000       0.008
   0.00000000  0.00000000  0.20000000       0.017
   0.16666667  0.00000000  0.20000000       0.017
   0.33333333  0.00000000  0.20000000       0.017
   0.50000000  0.00000000  0.20000000       0.017
  -0.33333333  0.00000000  0.20000000       0.017
  -0.16666667  0.00000000  0.20000000       0.017
   0.00000000  0.25000000  0.20000000       0.017
   0.00000000  0.25000000 -0.20000000       0.017
   0.16666667  0.25000000  0.20000000       0.017
  -0.16666667  0.25000000 -0.20000000       0.017
   0.33333333  0.25000000  0.20000000       0.017
  -0.33333333  0.25000000 -0.20000000       0.017
   0.50000000  0.25000000  0.20000000       0.017
   0.50000000  0.25000000 -0.20000000       0.017
  -0.33333333  0.25000000  0.20000000       0.017
   0.33333333  0.25000000 -0.20000000       0.017
  -0.16666667  0.25000000  0.20000000       0.017
   0.16666667  0.25000000 -0.20000000       0.017
   0.00000000  0.50000000  0.20000000       0.017
   0.16666667  0.50000000  0.20000000       0.017
   0.33333333  0.50000000  0.20000000       0.017
   0.50000000  0.50000000  0.20000000       0.017
  -0.33333333  0.50000000  0.20000000       0.017
  -0.16666667  0.50000000  0.20000000       0.017
   0.00000000  0.00000000  0.40000000       0.017
   0.16666667  0.00000000  0.40000000       0.017
   0.33333333  0.00000000  0.40000000       0.017
   0.50000000  0.00000000  0.40000000       0.017
  -0.33333333  0.00000000  0.40000000       0.017
  -0.16666667  0.00000000  0.40000000       0.017
   0.00000000  0.25000000  0.40000000       0.017
   0.00000000  0.25000000 -0.40000000       0.017
   0.16666667  0.25000000  0.40000000       0.017
  -0.16666667  0.25000000 -0.40000000       0.017
   0.33333333  0.25000000  0.40000000       0.017
  -0.33333333  0.25000000 -0.40000000       0.017
   0.50000000  0.25000000  0.40000000       0.017
   0.50000000  0.25000000 -0.40000000       0.017
  -0.33333333  0.25000000  0.40000000       0.017
   0.33333333  0.25000000 -0.40000000       0.017
  -0.16666667  0.25000000  0.40000000       0.017
   0.16666667  0.25000000 -0.40000000       0.017
   0.00000000  0.50000000  0.40000000       0.017
   0.16666667  0.50000000  0.40000000       0.017
   0.33333333  0.50000000  0.40000000       0.017
   0.50000000  0.50000000  0.40000000       0.017
  -0.33333333  0.50000000  0.40000000       0.017
  -0.16666667  0.50000000  0.40000000       0.017

 position of ions in fractional coordinates (direct lattice) 
   0.14369176  0.00304899  0.99831871
   0.85630824  0.99695101  0.00168129
   0.85630824  0.50304899  0.50168141
   0.14369176  0.49695101  0.49831859
   0.51922215  0.89854210  0.19190132
   0.48077785  0.10145790  0.80809868
   0.48077783  0.39854207  0.30809877
   0.51922217  0.60145793  0.69190123
   0.18077250  0.10545618  0.82114077
   0.33299344  0.89205633  0.20235536
   0.81922750  0.89454382  0.17885923
   0.66700656  0.10794367  0.79764464
   0.81922756  0.60545618  0.67885930
   0.18077244  0.39454382  0.32114070
   0.66700661  0.39205629  0.29764479
   0.33299339  0.60794371  0.70235521

 position of ions in cartesian coordinates  (Angst):
  -1.59862081  0.01833967  4.88466362
   4.56014081  5.99666033  0.00822638
   3.37590051  3.02583970  2.45467197
  -0.41438051  2.98916030  2.43821803
   2.31293959  5.40473072  0.93895207
   0.64858041  0.61026928  3.95393793
   1.83282006  2.39723053  1.50749338
   1.12869994  3.61776947  3.38539662
  -0.98133805  0.63431893  4.01775147
   1.29558040  5.36571883  0.99010253
   3.94285805  5.38068107  0.87513853
   1.66593960  0.64928117  3.90278747
   2.75861824  3.64181890  3.32158390
   0.20290176  2.37318110  1.57130611
   2.85017950  2.35821859  1.45634322
   0.11134050  3.65678142  3.43654678



--------------------------------------------------------------------------------------------------------


 k-point   1 :   0.0000 0.0000 0.0000  plane waves:   11235
 k-point   2 :   0.1667 0.0000 0.0000  plane waves:   11231
 k-point   3 :   0.3333 0.0000 0.0000  plane waves:   11253
 k-point   4 :   0.5000 0.0000 0.0000  plane waves:   11230
 k-point   5 :   0.0000 0.2500 0.0000  plane waves:   11269
 k-point   6 :   0.1667 0.2500 0.0000  plane waves:   11264
 k-point   7 :  -0.1667 0.2500 0.0000  plane waves:   11264
 k-point   8 :   0.3333 0.2500 0.0000  plane waves:   11247
 k-point   9 :  -0.3333 0.2500 0.0000  plane waves:   11247
 k-point  10 :   0.5000 0.2500 0.0000  plane waves:   11246
 k-point  11 :   0.0000 0.5000 0.0000  plane waves:   11232
 k-point  12 :   0.1667 0.5000 0.0000  plane waves:   11238
 k-point  13 :   0.3333 0.5000 0.0000  plane waves:   11252
 k-point  14 :   0.5000 0.5000 0.0000  plane waves:   11256
 k-point  15 :   0.0000 0.0000 0.2000  plane waves:   11280
 k-point  16 :   0.1667 0.0000 0.2000  plane waves:   11253
 k-point  17 :   0.3333 0.0000 0.2000  plane waves:   11254
 k-point  18 :   0.5000 0.0000 0.2000  plane waves:   11276
 k-point  19 :  -0.3333 0.0000 0.2000  plane waves:   11272
 k-point  20 :  -0.1667 0.0000 0.2000  plane waves:   11295
 k-point  21 :   0.0000 0.2500 0.2000  plane waves:   11270
 k-point  22 :   0.0000 0.2500-0.2000  plane waves:   11270
 k-point  23 :   0.1667 0.2500 0.2000  plane waves:   11273
 k-point  24 :  -0.1667 0.2500-0.2000  plane waves:   11273
 k-point  25 :   0.3333 0.2500 0.2000  plane waves:   11279
 k-point  26 :  -0.3333 0.2500-0.2000  plane waves:   11279
 k-point  27 :   0.5000 0.2500 0.2000  plane waves:   11254
 k-point  28 :   0.5000 0.2500-0.2000  plane waves:   11254
 k-point  29 :  -0.3333 0.2500 0.2000  plane waves:   11256
 k-point  30 :   0.3333 0.2500-0.2000  plane waves:   11256
 k-point  31 :  -0.1667 0.2500 0.2000  plane waves:   11267
 k-point  32 :   0.1667 0.2500-0.2000  plane waves:   11267
 k-point  33 :   0.0000 0.5000 0.2000  plane waves:   11264
 k-point  34 :   0.1667 0.5000 0.2000  plane waves:   11256
 k-point  35 :   0.3333 0.5000 0.2000  plane waves:   11266
 k-point  36 :   0.5000 0.5000 0.2000  plane waves:   11262
 k-point  37 :  -0.3333 0.5000 0.2000  plane waves:   11262
 k-point  38 :  -0.1667 0.5000 0.2000  plane waves:   11242
 k-point  39 :   0.0000 0.0000 0.4000  plane waves:   11268
 k-point  40 :   0.1667 0.0000 0.4000  plane waves:   11286
 k-point  41 :   0.3333 0.0000 0.4000  plane waves:   11270
 k-point  42 :   0.5000 0.0000 0.4000  plane waves:   11292
 k-point  43 :  -0.3333 0.0000 0.4000  plane waves:   11289
 k-point  44 :  -0.1667 0.0000 0.4000  plane waves:   11295
 k-point  45 :   0.0000 0.2500 0.4000  plane waves:   11272
 k-point  46 :   0.0000 0.2500-0.4000  plane waves:   11272
 k-point  47 :   0.1667 0.2500 0.4000  plane waves:   11277
 k-point  48 :  -0.1667 0.2500-0.4000  plane waves:   11277
 k-point  49 :   0.3333 0.2500 0.4000  plane waves:   11263
 k-point  50 :  -0.3333 0.2500-0.4000  plane waves:   11263
 k-point  51 :   0.5000 0.2500 0.4000  plane waves:   11271
 k-point  52 :   0.5000 0.2500-0.4000  plane waves:   11271
 k-point  53 :  -0.3333 0.2500 0.4000  plane waves:   11261
 k-point  54 :   0.3333 0.2500-0.4000  plane waves:   11261
 k-point  55 :  -0.1667 0.2500 0.4000  plane waves:   11262
 k-point  56 :   0.1667 0.2500-0.4000  plane waves:   11262
 k-point  57 :   0.0000 0.5000 0.4000  plane waves:   11262
 k-point  58 :   0.1667 0.5000 0.4000  plane waves:   11250
 k-point  59 :   0.3333 0.5000 0.4000  plane waves:   11272
 k-point  60 :   0.5000 0.5000 0.4000  plane waves:   11250
 k-point  61 :  -0.3333 0.5000 0.4000  plane waves:   11254
 k-point  62 :  -0.1667 0.5000 0.4000  plane waves:   11250

 maximum and minimum number of plane-waves per node :       371      331

 maximum number of plane-waves:     11295
 maximum index in each direction: 
   IXMAX=   14   IYMAX=   15   IZMAX=   14
   IXMIN=  -14   IYMIN=  -16   IZMIN=  -14


 parallel 3D FFT for wavefunctions:
    minimum data exchange during FFTs selected (reduces bandwidth)
 parallel 3D FFT for charge:
    minimum data exchange during FFTs selected (reduces bandwidth)


 total amount of memory used by VASP MPI-rank0    48565. kBytes
=======================================================================

   base      :      30000. kBytes
   nonl-proj :       4426. kBytes
   fftplans  :        741. kBytes
   grid      :       1218. kBytes
   one-center:          3. kBytes
   wavefun   :      12177. kBytes

     INWAV:  cpu time      0.0000: real time      0.0000
 Broyden mixing: mesh for mixing (old mesh)
   NGX = 27   NGY = 31   NGZ = 29
  (NGX  =112   NGY  =128   NGZ  =112)
  gives a total of  24273 points

 initial charge density was supplied:
 charge density of overlapping atoms calculated
 number of electron      68.0000000 magnetization 
 keeping initial charge density in first step


--------------------------------------------------------------------------------------------------------


 Maximum index for augmentation-charges            0 (set IRDMAX)


--------------------------------------------------------------------------------------------------------


 First call to EWALD:  gamma=   0.329
 Maximum number of real-space cells 3x 3x 3
 Maximum number of reciprocal cells 3x 3x 3

    FEWALD:  cpu time      0.0014: real time      0.0014


--------------------------------------- Ionic step        1  -------------------------------------------




--------------------------------------- Iteration      1(   1)  ---------------------------------------


    POTLOK:  cpu time      0.0330: real time      0.0332
    SETDIJ:  cpu time      0.0118: real time      0.0123
    TRIAL :  cpu time      0.9626: real time      0.9641
    CORREC:  cpu time      0.0035: real time      0.0035
    --------------------------------------------
      LOOP:  cpu time      1.0155: real time      1.0181

 eigenvalue-minimisations  :  5456
 total energy-change (2. order) : 0.7173604E+03  (-0.5421438E+04)
 number of electron      68.0000000 magnetization 
 augmentation part       68.0000000 magnetization 

 Free energy of the ion-electron system (eV)
  ---------------------------------------------------
  alpha Z        PSCENC =        81.91423797
  Ewald energy   TEWEN  =     -2364.59881513
  -Hartree energ DENC   =     -1465.29363950
  -exchange      EXHF   =         0.00000000
  -V(xc)+E(xc)   XCENC  =       247.95526706
  PAW double counting   =      3237.60748053    -3226.31232656
  entropy T*S    EENTRO =        -0.00012832
  eigenvalues    EBANDS =       108.63157377
  atomic energy  EATOM  =      4097.45670490
  ---------------------------------------------------
  free energy    TOTEN  =       717.36035472 eV

  energy without entropy =      717.36048304  energy(sigma->0) =      717.36041888


--------------------------------------------------------------------------------------------------------




--------------------------------------- Iteration      1(   2)  ---------------------------------------


    TRIAL :  cpu time      1.1551: real time      1.1554
    CORREC:  cpu time      0.0004: real time      0.0004
    --------------------------------------------
      LOOP:  cpu time      1.1727: real time      1.1858

 eigenvalue-minimisations  :  7448
 total energy-change (2. order) :-0.7297285E+03  (-0.7063133E+03)
 number of electron      68.0000000 magnetization 
 augmentation part       68.0000000 magnetization 

 Free energy of the ion-electron system (eV)
  ---------------------------------------------------
  alpha Z        PSCENC =        81.91423797
  Ewald energy   TEWEN  =     -2364.59881513
  -Hartree energ DENC   =     -1465.29363950
  -exchange      EXHF   =         0.00000000
  -V(xc)+E(xc)   XCENC  =       247.95526706
  PAW double counting   =      3237.60748053    -3226.31232656
  entropy T*S    EENTRO =        -0.00000000
  eigenvalues    EBANDS =      -621.09710344
  atomic energy  EATOM  =      4097.45670490
  ---------------------------------------------------
  free energy    TOTEN  =       -12.36819418 eV

  energy without entropy =      -12.36819418  energy(sigma->0) =      -12.36819418


--------------------------------------------------------------------------------------------------------




--------------------------------------- Iteration      1(   3)  ---------------------------------------


    TRIAL :  cpu time      0.9894: real time      0.9897
    CORREC:  cpu time      0.0004: real time      0.0004
    --------------------------------------------
      LOOP:  cpu time      1.0034: real time      1.0197

 eigenvalue-minimisations  :  6248
 total energy-change (2. order) :-0.9811609E+02  (-0.9713475E+02)
 number of electron      68.0000000 magnetization 
 augmentation part       68.0000000 magnetization 

 Free energy of the ion-electron system (eV)
  ---------------------------------------------------
  alpha Z        PSCENC =        81.91423797
  Ewald energy   TEWEN  =     -2364.59881513
  -Hartree energ DENC   =     -1465.29363950
  -exchange      EXHF   =         0.00000000
  -V(xc)+E(xc)   XCENC  =       247.95526706
  PAW double counting   =      3237.60748053    -3226.31232656
  entropy T*S    EENTRO =        -0.00000000
  eigenvalues    EBANDS =      -719.21319026
  atomic energy  EATOM  =      4097.45670490
  ---------------------------------------------------
  free energy    TOTEN  =      -110.48428100 eV

  energy without entropy =     -110.48428100  energy(sigma->0) =     -110.48428100


--------------------------------------------------------------------------------------------------------




--------------------------------------- Iteration      1(   4)  ---------------------------------------


    TRIAL :  cpu time      1.1225: real time      1.1229
    CORREC:  cpu time      0.0003: real time      0.0003
    --------------------------------------------
      LOOP:  cpu time      1.1529: real time      1.1534

 eigenvalue-minimisations  :  7280
 total energy-change (2. order) :-0.3082580E+01  (-0.3068804E+01)
 number of electron      68.0000000 magnetization 
 augmentation part       68.0000000 magnetization 

 Free energy of the ion-electron system (eV)
  ---------------------------------------------------
  alpha Z        PSCENC =        81.91423797
  Ewald energy   TEWEN  =     -2364.59881513
  -Hartree energ DENC   =     -1465.29363950
  -exchange      EXHF   =         0.00000000
  -V(xc)+E(xc)   XCENC  =       247.95526706
  PAW double counting   =      3237.60748053    -3226.31232656
  entropy T*S    EENTRO =        -0.00000000
  eigenvalues    EBANDS =      -722.29577070
  atomic energy  EATOM  =      4097.45670490
  ---------------------------------------------------
  free energy    TOTEN  =      -113.56686144 eV

  energy without entropy =     -113.56686144  energy(sigma->0) =     -113.56686144


--------------------------------------------------------------------------------------------------------




--------------------------------------- Iteration      1(   5)  ---------------------------------------


    TRIAL :  cpu time      1.0603: real time      1.0613
    CORREC:  cpu time      0.0004: real time      0.0004
    CHARGE:  cpu time      0.0819: real time      0.0826
    --------------------------------------------
      LOOP:  cpu time      1.1565: real time      1.1740

 eigenvalue-minimisations  :  6752
 total energy-change (2. order) :-0.8155687E-01  (-0.8150477E-01)
 number of electron      68.0000001 magnetization 
 augmentation part        0.5922404 magnetization 

 Free energy of the ion-electron system (eV)
  ---------------------------------------------------
  alpha Z        PSCENC =        81.91423797
  Ewald energy   TEWEN  =     -2364.59881513
  -Hartree energ DENC   =     -1465.29363950
  -exchange      EXHF   =         0.00000000
  -V(xc)+E(xc)   XCENC  =       247.95526706
  PAW double counting   =      3237.60748053    -3226.31232656
  entropy T*S    EENTRO =        -0.00000000
  eigenvalues    EBANDS =      -722.37732757
  atomic energy  EATOM  =      4097.45670490
  ---------------------------------------------------
  free energy    TOTEN  =      -113.64841830 eV

  energy without entropy =     -113.64841830  energy(sigma->0) =     -113.64841830


--------------------------------------------------------------------------------------------------------




--------------------------------------- Iteration      1(   6)  ---------------------------------------


    POTLOK:  cpu time      0.0144: real time      0.0144
    SETDIJ:  cpu time      0.0009: real time      0.0009
    TRIAL :  cpu time      0.6287: real time      0.6296
    CORREC:  cpu time      0.3909: real time      0.3915
    CHARGE:  cpu time      0.0693: real time      0.0693
    --------------------------------------------
      LOOP:  cpu time      1.1166: real time      1.1334

 eigenvalue-minimisations  :     0
 total energy-change (2. order) : 0.1654356E+02  (-0.8576859E+01)
 number of electron      68.0000001 magnetization 
 augmentation part        0.4119424 magnetization 

 Free energy of the ion-electron system (eV)
  ---------------------------------------------------
  alpha Z        PSCENC =        81.91423797
  Ewald energy   TEWEN  =     -2364.59881513
  -Hartree energ DENC   =     -1754.93114040
  -exchange      EXHF   =         0.00000000
  -V(xc)+E(xc)   XCENC  =       267.14125737
  PAW double counting   =     32592.50997169   -32586.34221137
  entropy T*S    EENTRO =        -0.00000000
  eigenvalues    EBANDS =      -430.25486032
  atomic energy  EATOM  =      4097.45670490
  ---------------------------------------------------
  free energy    TOTEN  =       -97.10485530 eV

  energy without entropy =      -97.10485530  energy(sigma->0) =      -97.10485530


--------------------------------------------------------------------------------------------------------




--------------------------------------- Iteration      1(   7)  ---------------------------------------


    POTLOK:  cpu time      0.0124: real time      0.0124
    SETDIJ:  cpu time      0.0026: real time      0.0026
    TRIAL :  cpu time      0.5669: real time      0.5669
    CORREC:  cpu time      0.3806: real time      0.3809
    CHARGE:  cpu time      0.0695: real time      0.0695
    --------------------------------------------
      LOOP:  cpu time      1.0623: real time      1.0628

 eigenvalue-minimisations  :     0
 total energy-change (2. order) :-0.8596524E+01  (-0.9341159E+00)
 number of electron      68.0000001 magnetization 
 augmentation part        0.3474246 magnetization 

 Free energy of the ion-electron system (eV)
  ---------------------------------------------------
  alpha Z        PSCENC =        81.91423797
  Ewald energy   TEWEN  =     -2364.59881513
  -Hartree energ DENC   =     -1599.89548100
  -exchange      EXHF   =         0.00000000
  -V(xc)+E(xc)   XCENC  =       257.14850748
  PAW double counting   =     40880.24978849   -40871.63147158
  entropy T*S    EENTRO =        -0.00000000
  eigenvalues    EBANDS =      -586.34485088
  atomic energy  EATOM  =      4097.45670490
  ---------------------------------------------------
  free energy    TOTEN  =      -105.70137975 eV

  energy without entropy =     -105.70137975  energy(sigma->0) =     -105.70137975


--------------------------------------------------------------------------------------------------------




--------------------------------------- Iteration      1(   8)  ---------------------------------------


    POTLOK:  cpu time      0.0123: real time      0.0123
    SETDIJ:  cpu time      0.0020: real time      0.0020
    TRIAL :  cpu time      0.6260: real time      0.6261
    CORREC:  cpu time      0.3794: real time      0.3796
    CHARGE:  cpu time      0.0713: real time      0.0713
    --------------------------------------------
      LOOP:  cpu time      1.1060: real time      1.1210

 eigenvalue-minimisations  :     0
 total energy-change (2. order) :-0.9344301E+00  (-0.2543155E+00)
 number of electron      68.0000001 magnetization 
 augmentation part        0.3537139 magnetization 

 Free energy of the ion-electron system (eV)
  ---------------------------------------------------
  alpha Z        PSCENC =        81.91423797
  Ewald energy   TEWEN  =     -2364.59881513
  -Hartree energ DENC   =     -1603.18241984
  -exchange      EXHF   =         0.00000000
  -V(xc)+E(xc)   XCENC  =       257.09530627
  PAW double counting   =     40559.65344992   -40550.66874930
  entropy T*S    EENTRO =        -0.00000000
  eigenvalues    EBANDS =      -584.30552464
  atomic energy  EATOM  =      4097.45670490
  ---------------------------------------------------
  free energy    TOTEN  =      -106.63580985 eV

  energy without entropy =     -106.63580985  energy(sigma->0) =     -106.63580985


--------------------------------------------------------------------------------------------------------




--------------------------------------- Iteration      1(   9)  ---------------------------------------


    POTLOK:  cpu time      0.0124: real time      0.0124
    SETDIJ:  cpu time      0.0017: real time      0.0017
    TRIAL :  cpu time      0.5686: real time      0.5688
    CORREC:  cpu time      0.3795: real time      0.3795
    CHARGE:  cpu time      0.0691: real time      0.0691
    --------------------------------------------
      LOOP:  cpu time      1.0445: real time      1.0605

 eigenvalue-minimisations  :     0
 total energy-change (2. order) :-0.2543239E+00  (-0.7929469E-01)
 number of electron      68.0000001 magnetization 
 augmentation part        0.3608692 magnetization 

 Free energy of the ion-electron system (eV)
  ---------------------------------------------------
  alpha Z        PSCENC =        81.91423797
  Ewald energy   TEWEN  =     -2364.59881513
  -Hartree energ DENC   =     -1604.35144541
  -exchange      EXHF   =         0.00000000
  -V(xc)+E(xc)   XCENC  =       257.12628827
  PAW double counting   =     40551.97573917   -40543.00635609
  entropy T*S    EENTRO =        -0.00000000
  eigenvalues    EBANDS =      -583.40648740
  atomic energy  EATOM  =      4097.45670490
  ---------------------------------------------------
  free energy    TOTEN  =      -106.89013372 eV

  energy without entropy =     -106.89013372  energy(sigma->0) =     -106.89013372


--------------------------------------------------------------------------------------------------------




--------------------------------------- Iteration      1(  10)  ---------------------------------------


    POTLOK:  cpu time      0.0123: real time      0.0123
    SETDIJ:  cpu time      0.0017: real time      0.0017
    TRIAL :  cpu time      0.5670: real time      0.5673
    CORREC:  cpu time      0.3794: real time      0.3794
    CHARGE:  cpu time      0.0689: real time      0.0689
    --------------------------------------------
      LOOP:  cpu time      1.0596: real time      1.0601

 eigenvalue-minimisations  :     0
 total energy-change (2. order) :-0.7920163E-01  (-0.2255176E-01)
 number of electron      68.0000001 magnetization 
 augmentation part        0.3629673 magnetization 

 Free energy of the ion-electron system (eV)
  ---------------------------------------------------
  alpha Z        PSCENC =        81.91423797
  Ewald energy   TEWEN  =     -2364.59881513
  -Hartree energ DENC   =     -1600.13547404
  -exchange      EXHF   =         0.00000000
  -V(xc)+E(xc)   XCENC  =       256.87727966
  PAW double counting   =     40115.53187504   -40106.57941593
  entropy T*S    EENTRO =        -0.00000000
  eigenvalues    EBANDS =      -587.43572783
  atomic energy  EATOM  =      4097.45670490
  ---------------------------------------------------
  free energy    TOTEN  =      -106.96933535 eV

  energy without entropy =     -106.96933535  energy(sigma->0) =     -106.96933535


--------------------------------------------------------------------------------------------------------




--------------------------------------- Iteration      1(  11)  ---------------------------------------


    POTLOK:  cpu time      0.0122: real time      0.0122
    SETDIJ:  cpu time      0.0025: real time      0.0025
    TRIAL :  cpu time      0.5680: real time      0.5683
    CORREC:  cpu time      0.3782: real time      0.3783
    CHARGE:  cpu time      0.0694: real time      0.0695
    --------------------------------------------
      LOOP:  cpu time      1.0438: real time      1.0603

 eigenvalue-minimisations  :     0
 total energy-change (2. order) :-0.2254978E-01  (-0.6298018E-02)
 number of electron      68.0000001 magnetization 
 augmentation part        0.3630164 magnetization 

 Free energy of the ion-electron system (eV)
  ---------------------------------------------------
  alpha Z        PSCENC =        81.91423797
  Ewald energy   TEWEN  =     -2364.59881513
  -Hartree energ DENC   =     -1600.14087197
  -exchange      EXHF   =         0.00000000
  -V(xc)+E(xc)   XCENC  =       256.87239248
  PAW double counting   =     39802.81930294   -39793.88894617
  entropy T*S    EENTRO =        -0.00000000
  eigenvalues    EBANDS =      -587.42589016
  atomic energy  EATOM  =      4097.45670490
  ---------------------------------------------------
  free energy    TOTEN  =      -106.99188513 eV

  energy without entropy =     -106.99188513  energy(sigma->0) =     -106.99188513


--------------------------------------------------------------------------------------------------------




--------------------------------------- Iteration      1(  12)  ---------------------------------------


    POTLOK:  cpu time      0.0122: real time      0.0122
    SETDIJ:  cpu time      0.0019: real time      0.0019
    TRIAL :  cpu time      0.5665: real time      0.5668
    CORREC:  cpu time      0.3780: real time      0.3781
    CHARGE:  cpu time      0.0772: real time      0.0772
    --------------------------------------------
      LOOP:  cpu time      1.0504: real time      1.0665

 eigenvalue-minimisations  :     0
 total energy-change (2. order) :-0.6296453E-02  (-0.1705083E-02)
 number of electron      68.0000001 magnetization 
 augmentation part        0.3622951 magnetization 

 Free energy of the ion-electron system (eV)
  ---------------------------------------------------
  alpha Z        PSCENC =        81.91423797
  Ewald energy   TEWEN  =     -2364.59881513
  -Hartree energ DENC   =     -1599.84702202
  -exchange      EXHF   =         0.00000000
  -V(xc)+E(xc)   XCENC  =       256.85025226
  PAW double counting   =     39953.34096021   -39944.40844621
  entropy T*S    EENTRO =        -0.00000000
  eigenvalues    EBANDS =      -587.70605357
  atomic energy  EATOM  =      4097.45670490
  ---------------------------------------------------
  free energy    TOTEN  =      -106.99818158 eV

  energy without entropy =     -106.99818158  energy(sigma->0) =     -106.99818158


--------------------------------------------------------------------------------------------------------




--------------------------------------- Iteration      1(  13)  ---------------------------------------


    POTLOK:  cpu time      0.0145: real time      0.0145
    SETDIJ:  cpu time      0.0008: real time      0.0008
    TRIAL :  cpu time      0.5726: real time      0.5729
    CORREC:  cpu time      0.3785: real time      0.3785
    CHARGE:  cpu time      0.0701: real time      0.0701
    --------------------------------------------
      LOOP:  cpu time      1.0540: real time      1.0660

 eigenvalue-minimisations  :     0
 total energy-change (2. order) :-0.1704142E-02  (-0.4638023E-03)
 number of electron      68.0000001 magnetization 
 augmentation part        0.3621761 magnetization 

 Free energy of the ion-electron system (eV)
  ---------------------------------------------------
  alpha Z        PSCENC =        81.91423797
  Ewald energy   TEWEN  =     -2364.59881513
  -Hartree energ DENC   =     -1599.48344522
  -exchange      EXHF   =         0.00000000
  -V(xc)+E(xc)   XCENC  =       256.83043005
  PAW double counting   =     40084.62539743   -40075.68603520
  entropy T*S    EENTRO =        -0.00000000
  eigenvalues    EBANDS =      -588.05836052
  atomic energy  EATOM  =      4097.45670490
  ---------------------------------------------------
  free energy    TOTEN  =      -106.99988572 eV

  energy without entropy =     -106.99988572  energy(sigma->0) =     -106.99988572


--------------------------------------------------------------------------------------------------------




--------------------------------------- Iteration      1(  14)  ---------------------------------------


    POTLOK:  cpu time      0.0123: real time      0.0123
    SETDIJ:  cpu time      0.0019: real time      0.0019
    TRIAL :  cpu time      0.5668: real time      0.5672
    CORREC:  cpu time      0.3783: real time      0.3783
    CHARGE:  cpu time      0.0704: real time      0.0704
    --------------------------------------------
      LOOP:  cpu time      1.0420: real time      1.0593

 eigenvalue-minimisations  :     0
 total energy-change (2. order) :-0.4634083E-03  (-0.1504082E-03)
 number of electron      68.0000001 magnetization 
 augmentation part        0.3622399 magnetization 

 Free energy of the ion-electron system (eV)
  ---------------------------------------------------
  alpha Z        PSCENC =        81.91423797
  Ewald energy   TEWEN  =     -2364.59881513
  -Hartree energ DENC   =     -1599.48988006
  -exchange      EXHF   =         0.00000000
  -V(xc)+E(xc)   XCENC  =       256.83093010
  PAW double counting   =     40079.39115361   -40070.45192592
  entropy T*S    EENTRO =        -0.00000000
  eigenvalues    EBANDS =      -588.05275459
  atomic energy  EATOM  =      4097.45670490
  ---------------------------------------------------
  free energy    TOTEN  =      -107.00034913 eV

  energy without entropy =     -107.00034913  energy(sigma->0) =     -107.00034913


--------------------------------------------------------------------------------------------------------




--------------------------------------- Iteration      1(  15)  ---------------------------------------


    POTLOK:  cpu time      0.0124: real time      0.0124
    SETDIJ:  cpu time      0.0018: real time      0.0018
    TRIAL :  cpu time      0.5672: real time      0.5675
    CORREC:  cpu time      0.3792: real time      0.3792
    CHARGE:  cpu time      0.0697: real time      0.0697
    --------------------------------------------
      LOOP:  cpu time      1.0591: real time      1.0596

 eigenvalue-minimisations  :     0
 total energy-change (2. order) :-0.1507940E-03  (-0.5652012E-04)
 number of electron      68.0000001 magnetization 
 augmentation part        0.3622391 magnetization 

 Free energy of the ion-electron system (eV)
  ---------------------------------------------------
  alpha Z        PSCENC =        81.91423797
  Ewald energy   TEWEN  =     -2364.59881513
  -Hartree energ DENC   =     -1599.47866658
  -exchange      EXHF   =         0.00000000
  -V(xc)+E(xc)   XCENC  =       256.82937202
  PAW double counting   =     40044.40788038   -40035.46946714
  entropy T*S    EENTRO =        -0.00000000
  eigenvalues    EBANDS =      -588.06174633
  atomic energy  EATOM  =      4097.45670490
  ---------------------------------------------------
  free energy    TOTEN  =      -107.00049992 eV

  energy without entropy =     -107.00049992  energy(sigma->0) =     -107.00049992


--------------------------------------------------------------------------------------------------------




--------------------------------------- Iteration      1(  16)  ---------------------------------------


    POTLOK:  cpu time      0.0122: real time      0.0122
    SETDIJ:  cpu time      0.0018: real time      0.0018
    TRIAL :  cpu time      0.5697: real time      0.5700
    CORREC:  cpu time      0.3772: real time      0.3772
    CHARGE:  cpu time      0.0693: real time      0.0694
    --------------------------------------------
      LOOP:  cpu time      1.0450: real time      1.0607

 eigenvalue-minimisations  :     0
 total energy-change (2. order) :-0.5661116E-04  (-0.2364190E-04)
 number of electron      68.0000001 magnetization 
 augmentation part        0.3621605 magnetization 

 Free energy of the ion-electron system (eV)
  ---------------------------------------------------
  alpha Z        PSCENC =        81.91423797
  Ewald energy   TEWEN  =     -2364.59881513
  -Hartree energ DENC   =     -1599.49576479
  -exchange      EXHF   =         0.00000000
  -V(xc)+E(xc)   XCENC  =       256.83022431
  PAW double counting   =     40028.78939954   -40019.85129693
  entropy T*S    EENTRO =        -0.00000000
  eigenvalues    EBANDS =      -588.04524640
  atomic energy  EATOM  =      4097.45670490
  ---------------------------------------------------
  free energy    TOTEN  =      -107.00055653 eV

  energy without entropy =     -107.00055653  energy(sigma->0) =     -107.00055653


--------------------------------------------------------------------------------------------------------




--------------------------------------- Iteration      1(  17)  ---------------------------------------


    POTLOK:  cpu time      0.0122: real time      0.0122
    SETDIJ:  cpu time      0.0021: real time      0.0021
    TRIAL :  cpu time      0.5714: real time      0.5717
    CORREC:  cpu time      0.3776: real time      0.3777
    CHARGE:  cpu time      0.0702: real time      0.0702
    --------------------------------------------
      LOOP:  cpu time      1.0469: real time      1.0625

 eigenvalue-minimisations  :     0
 total energy-change (2. order) :-0.2342350E-04  (-0.8357975E-05)
 number of electron      68.0000001 magnetization 
 augmentation part        0.3620705 magnetization 

 Free energy of the ion-electron system (eV)
  ---------------------------------------------------
  alpha Z        PSCENC =        81.91423797
  Ewald energy   TEWEN  =     -2364.59881513
  -Hartree energ DENC   =     -1599.51903530
  -exchange      EXHF   =         0.00000000
  -V(xc)+E(xc)   XCENC  =       256.83156161
  PAW double counting   =     40035.05424172   -40026.11576057
  entropy T*S    EENTRO =        -0.00000000
  eigenvalues    EBANDS =      -588.02371515
  atomic energy  EATOM  =      4097.45670490
  ---------------------------------------------------
  free energy    TOTEN  =      -107.00057996 eV

  energy without entropy =     -107.00057996  energy(sigma->0) =     -107.00057996


--------------------------------------------------------------------------------------------------------




--------------------------------------- Iteration      1(  18)  ---------------------------------------


    POTLOK:  cpu time      0.0122: real time      0.0122
    SETDIJ:  cpu time      0.0026: real time      0.0026
    TRIAL :  cpu time      0.5658: real time      0.5661
    CORREC:  cpu time      0.3779: real time      0.3779
    CHARGE:  cpu time      0.0692: real time      0.0692
    --------------------------------------------
      LOOP:  cpu time      1.0576: real time      1.0581

 eigenvalue-minimisations  :     0
 total energy-change (2. order) :-0.8196868E-05  (-0.2455916E-05)
 number of electron      68.0000001 magnetization 
 augmentation part        0.3620622 magnetization 

 Free energy of the ion-electron system (eV)
  ---------------------------------------------------
  alpha Z        PSCENC =        81.91423797
  Ewald energy   TEWEN  =     -2364.59881513
  -Hartree energ DENC   =     -1599.51828819
  -exchange      EXHF   =         0.00000000
  -V(xc)+E(xc)   XCENC  =       256.83131960
  PAW double counting   =     40046.48477337   -40037.54560450
  entropy T*S    EENTRO =        -0.00000000
  eigenvalues    EBANDS =      -588.02491618
  atomic energy  EATOM  =      4097.45670490
  ---------------------------------------------------
  free energy    TOTEN  =      -107.00058815 eV

  energy without entropy =     -107.00058815  energy(sigma->0) =     -107.00058815


--------------------------------------------------------------------------------------------------------




--------------------------------------- Iteration      1(  19)  ---------------------------------------


    POTLOK:  cpu time      0.0122: real time      0.0122
    SETDIJ:  cpu time      0.0026: real time      0.0026
    TRIAL :  cpu time      0.5680: real time      0.5680
    CORREC:  cpu time      0.3851: real time      0.3855
    CHARGE:  cpu time      0.0845: real time      0.0845
    --------------------------------------------
      LOOP:  cpu time      1.0697: real time      1.0824

 eigenvalue-minimisations  :     0
 total energy-change (2. order) :-0.2399851E-05  (-0.6874196E-06)
 number of electron      68.0000001 magnetization 
 augmentation part        0.3620571 magnetization 

 Free energy of the ion-electron system (eV)
  ---------------------------------------------------
  alpha Z        PSCENC =        81.91423797
  Ewald energy   TEWEN  =     -2364.59881513
  -Hartree energ DENC   =     -1599.53157829
  -exchange      EXHF   =         0.00000000
  -V(xc)+E(xc)   XCENC  =       256.83216750
  PAW double counting   =     40050.60899686   -40041.66983623
  entropy T*S    EENTRO =        -0.00000000
  eigenvalues    EBANDS =      -588.01246813
  atomic energy  EATOM  =      4097.45670490
  ---------------------------------------------------
  free energy    TOTEN  =      -107.00059055 eV

  energy without entropy =     -107.00059055  energy(sigma->0) =     -107.00059055


--------------------------------------------------------------------------------------------------------




--------------------------------------- Iteration      1(  20)  ---------------------------------------


    POTLOK:  cpu time      0.0123: real time      0.0123
    SETDIJ:  cpu time      0.0019: real time      0.0019
    TRIAL :  cpu time      0.5673: real time      0.5673
    CORREC:  cpu time      0.3783: real time      0.3786
    CHARGE:  cpu time      0.0689: real time      0.0689
    --------------------------------------------
      LOOP:  cpu time      1.0431: real time      1.0575

 eigenvalue-minimisations  :     0
 total energy-change (2. order) :-0.6861810E-06  (-0.2077679E-06)
 number of electron      68.0000001 magnetization 
 augmentation part        0.3620620 magnetization 

 Free energy of the ion-electron system (eV)
  ---------------------------------------------------
  alpha Z        PSCENC =        81.91423797
  Ewald energy   TEWEN  =     -2364.59881513
  -Hartree energ DENC   =     -1599.52645672
  -exchange      EXHF   =         0.00000000
  -V(xc)+E(xc)   XCENC  =       256.83185828
  PAW double counting   =     40050.35130162   -40041.41209036
  entropy T*S    EENTRO =        -0.00000000
  eigenvalues    EBANDS =      -588.01733181
  atomic energy  EATOM  =      4097.45670490
  ---------------------------------------------------
  free energy    TOTEN  =      -107.00059124 eV

  energy without entropy =     -107.00059124  energy(sigma->0) =     -107.00059124


--------------------------------------------------------------------------------------------------------




--------------------------------------- Iteration      1(  21)  ---------------------------------------


    POTLOK:  cpu time      0.0128: real time      0.0128
    SETDIJ:  cpu time      0.0012: real time      0.0012
    TRIAL :  cpu time      0.5676: real time      0.5677
    CORREC:  cpu time      0.3776: real time      0.3779
    CHARGE:  cpu time      0.0700: real time      0.0700
    --------------------------------------------
      LOOP:  cpu time      1.0583: real time      1.0588

 eigenvalue-minimisations  :     0
 total energy-change (2. order) :-0.2111192E-06  (-0.7144110E-07)
 number of electron      68.0000001 magnetization 
 augmentation part        0.3620632 magnetization 

 Free energy of the ion-electron system (eV)
  ---------------------------------------------------
  alpha Z        PSCENC =        81.91423797
  Ewald energy   TEWEN  =     -2364.59881513
  -Hartree energ DENC   =     -1599.52694603
  -exchange      EXHF   =         0.00000000
  -V(xc)+E(xc)   XCENC  =       256.83188737
  PAW double counting   =     40049.02364470   -40040.08448042
  entropy T*S    EENTRO =        -0.00000000
  eigenvalues    EBANDS =      -588.01682482
  atomic energy  EATOM  =      4097.45670490
  ---------------------------------------------------
  free energy    TOTEN  =      -107.00059145 eV

  energy without entropy =     -107.00059145  energy(sigma->0) =     -107.00059145


--------------------------------------------------------------------------------------------------------




--------------------------------------- Iteration      1(  22)  ---------------------------------------


    POTLOK:  cpu time      0.0129: real time      0.0129
    SETDIJ:  cpu time      0.0013: real time      0.0013
    TRIAL :  cpu time      0.6184: real time      0.6185
    CORREC:  cpu time      0.3791: real time      0.3794
    EDDIAG:  cpu time      0.3134: real time      0.3141
    CHARGE:  cpu time      0.0696: real time      0.0696
    --------------------------------------------
      LOOP:  cpu time      1.4104: real time      1.4253

 eigenvalue-minimisations  :     0
 total energy-change (2. order) :-0.7370545E-07  (-0.2715974E-07)
 number of electron      68.0000001 magnetization 
 augmentation part        0.3620631 magnetization 

 Free energy of the ion-electron system (eV)
  ---------------------------------------------------
  alpha Z        PSCENC =        81.91423797
  Ewald energy   TEWEN  =     -2364.59881513
  -Hartree energ DENC   =     -1599.52611582
  -exchange      EXHF   =         0.00000000
  -V(xc)+E(xc)   XCENC  =       256.83183885
  PAW double counting   =     40048.18417350   -40039.24501459
  entropy T*S    EENTRO =        -0.00000000
  eigenvalues    EBANDS =      -588.01760120
  atomic energy  EATOM  =      4097.45670490
  ---------------------------------------------------
  free energy    TOTEN  =      -107.00059153 eV

  energy without entropy =     -107.00059153  energy(sigma->0) =     -107.00059153


[...]
     37       6.9625      0.00000
     38       6.9625      0.00000
     39       8.3409      0.00000
     40       8.3411      0.00000
     41       9.2987      0.00000
     42       9.3001      0.00000
     43      10.2696      0.00000
     44      10.3348      0.00000

 k-point    58 :       0.1667    0.5000    0.4000
  band No.  band energies     occupation 
      1     -22.2784      2.00000
      2     -22.2784      2.00000
      3     -21.4632      2.00000
      4     -21.4632      2.00000
      5     -19.9843      2.00000
      6     -19.9843      2.00000
      7     -19.2986      2.00000
      8     -19.2986      2.00000
      9     -11.8501      2.00000
     10     -11.8501      2.00000
     11      -9.2701      2.00000
     12      -9.2700      2.00000
     13      -7.0852      2.00000
     14      -7.0852      2.00000
     15      -6.5548      2.00000
     16      -6.5548      2.00000
     17      -5.8037      2.00000
     18      -5.8037      2.00000
     19      -5.5801      2.00000
     20      -5.5801      2.00000
     21      -4.4463      2.00000
     22      -4.4463      2.00000
     23      -4.1453      2.00000
     24      -4.1453      2.00000
     25      -3.0809      2.00000
     26      -3.0809      2.00000
     27      -1.9671      2.00000
     28      -1.9671      2.00000
     29      -1.8166      2.00000
     30      -1.8166      2.00000
     31      -1.6853      2.00000
     32      -1.6853      2.00000
     33      -0.5879      2.00000
     34      -0.5879      2.00000
     35       3.1584      0.00000
     36       3.1584      0.00000
     37       6.8976      0.00000
     38       6.8976      0.00000
     39       8.6398      0.00000
     40       8.6403      0.00000
     41       9.2020      0.00000
     42       9.2026      0.00000
     43      10.0166      0.00000
     44      10.0414      0.00000

 k-point    59 :       0.3333    0.5000    0.4000
  band No.  band energies     occupation 
      1     -22.1557      2.00000
      2     -22.1557      2.00000
      3     -21.6157      2.00000
      4     -21.6157      2.00000
      5     -19.8669      2.00000
      6     -19.8669      2.00000
      7     -19.4528      2.00000
      8     -19.4528      2.00000
      9     -11.4493      2.00000
     10     -11.4493      2.00000
     11      -9.2978      2.00000
     12      -9.2978      2.00000
     13      -7.4366      2.00000
     14      -7.4366      2.00000
     15      -6.4227      2.00000
     16      -6.4227      2.00000
     17      -5.9320      2.00000
     18      -5.9320      2.00000
     19      -5.6038      2.00000
     20      -5.6038      2.00000
     21      -4.7316      2.00000
     22      -4.7316      2.00000
     23      -4.3842      2.00000
     24      -4.3842      2.00000
     25      -2.7823      2.00000
     26      -2.7823      2.00000
     27      -1.8894      2.00000
     28      -1.8894      2.00000
     29      -1.8608      2.00000
     30      -1.8608      2.00000
     31      -1.6715      2.00000
     32      -1.6715      2.00000
     33      -0.4691      2.00000
     34      -0.4691      2.00000
     35       3.3692      0.00000
     36       3.3692      0.00000
     37       6.7235      0.00000
     38       6.7235      0.00000
     39       8.7431      0.00000
     40       8.7433      0.00000
     41       9.2530      0.00000
     42       9.2568      0.00000
     43      10.1828      0.00000
     44      10.1944      0.00000

 k-point    60 :       0.5000    0.5000    0.4000
  band No.  band energies     occupation 
      1     -22.0643      2.00000
      2     -22.0643      2.00000
      3     -21.7220      2.00000
      4     -21.7220      2.00000
      5     -19.7181      2.00000
      6     -19.7181      2.00000
      7     -19.6190      2.00000
      8     -19.6190      2.00000
      9     -11.1898      2.00000
     10     -11.1898      2.00000
     11      -9.4121      2.00000
     12      -9.4121      2.00000
     13      -7.5040      2.00000
     14      -7.5040      2.00000
     15      -6.3624      2.00000
     16      -6.3624      2.00000
     17      -6.1798      2.00000
     18      -6.1798      2.00000
     19      -5.4450      2.00000
     20      -5.4450      2.00000
     21      -4.8722      2.00000
     22      -4.8722      2.00000
     23      -4.4929      2.00000
     24      -4.4929      2.00000
     25      -2.6763      2.00000
     26      -2.6763      2.00000
     27      -1.9595      2.00000
     28      -1.9595      2.00000
     29      -1.8254      2.00000
     30      -1.8254      2.00000
     31      -1.6968      2.00000
     32      -1.6968      2.00000
     33      -0.3448      2.00000
     34      -0.3448      2.00000
     35       3.5135      0.00000
     36       3.5135      0.00000
     37       6.6074      0.00000
     38       6.6074      0.00000
     39       8.4836      0.00000
     40       8.4838      0.00000
     41       9.4550      0.00000
     42       9.4577      0.00000
     43      10.7582      0.00000
     44      11.1476      0.00000

 k-point    61 :      -0.3333    0.5000    0.4000
  band No.  band energies     occupation 
      1     -22.1659      2.00000
      2     -22.1659      2.00000
      3     -21.6049      2.00000
      4     -21.6049      2.00000
      5     -19.8531      2.00000
      6     -19.8531      2.00000
      7     -19.4664      2.00000
      8     -19.4664      2.00000
      9     -11.4538      2.00000
     10     -11.4538      2.00000
     11      -9.2894      2.00000
     12      -9.2893      2.00000
     13      -7.4441      2.00000
     14      -7.4441      2.00000
     15      -6.3383      2.00000
     16      -6.3383      2.00000
     17      -6.1409      2.00000
     18      -6.1409      2.00000
     19      -5.4243      2.00000
     20      -5.4243      2.00000
     21      -4.7485      2.00000
     22      -4.7485      2.00000
     23      -4.4163      2.00000
     24      -4.4163      2.00000
     25      -2.7992      2.00000
     26      -2.7992      2.00000
     27      -2.0235      2.00000
     28      -2.0235      2.00000
     29      -1.7706      2.00000
     30      -1.7706      2.00000
     31      -1.6295      2.00000
     32      -1.6295      2.00000
     33      -0.4753      2.00000
     34      -0.4753      2.00000
     35       3.4315      0.00000
     36       3.4315      0.00000
     37       6.6824      0.00000
     38       6.6824      0.00000
     39       8.4786      0.00000
     40       8.4787      0.00000
     41       9.3487      0.00000
     42       9.3494      0.00000
     43      10.9321      0.00000
     44      10.9838      0.00000

 k-point    62 :      -0.1667    0.5000    0.4000
  band No.  band energies     occupation 
      1     -22.2852      2.00000
      2     -22.2852      2.00000
      3     -21.4557      2.00000
      4     -21.4557      2.00000
      5     -19.9764      2.00000
      6     -19.9764      2.00000
      7     -19.3063      2.00000
      8     -19.3063      2.00000
      9     -11.8531      2.00000
     10     -11.8531      2.00000
     11      -9.2624      2.00000
     12      -9.2624      2.00000
     13      -7.1453      2.00000
     14      -7.1453      2.00000
     15      -6.4544      2.00000
     16      -6.4544      2.00000
     17      -5.9298      2.00000
     18      -5.9298      2.00000
     19      -5.4584      2.00000
     20      -5.4584      2.00000
     21      -4.4935      2.00000
     22      -4.4935      2.00000
     23      -4.1331      2.00000
     24      -4.1331      2.00000
     25      -3.0982      2.00000
     26      -3.0982      2.00000
     27      -2.0659      2.00000
     28      -2.0658      2.00000
     29      -1.7716      2.00000
     30      -1.7716      2.00000
     31      -1.6360      2.00000
     32      -1.6360      2.00000
     33      -0.5952      2.00000
     34      -0.5952      2.00000
     35       3.2162      0.00000
     36       3.2162      0.00000
     37       6.8619      0.00000
     38       6.8619      0.00000
     39       8.4278      0.00000
     40       8.4285      0.00000
     41       9.2638      0.00000
     42       9.2799      0.00000
     43      10.5232      0.00000
     44      10.8417      0.00000


--------------------------------------------------------------------------------------------------------


 soft charge-density along one line, spin component           1
         0         1         2         3         4         5         6         7         8         9
 total charge-density along one line

 pseudopotential strength for first ion, spin component:           1
 12.621  21.236  -0.003   0.004   0.009  -0.005   0.008   0.016
 21.236  35.733  -0.005   0.007   0.015  -0.008   0.013   0.026
 -0.003  -0.005  -3.148  -0.000   0.000  -5.640  -0.000   0.000
  0.004   0.007  -0.000  -3.148   0.000  -0.000  -5.640   0.000
  0.009   0.015   0.000   0.000  -3.145   0.000   0.000  -5.635
 -0.005  -0.008  -5.640  -0.000   0.000 -10.082  -0.000  -0.000
  0.008   0.013  -0.000  -5.640   0.000  -0.000 -10.082   0.000
  0.016   0.026   0.000   0.000  -5.635  -0.000   0.000 -10.075
 total augmentation occupancy for first ion, spin component:           1
  8.563  -3.254   0.502  -0.588   1.801  -0.223   0.261  -0.834
 -3.254   1.354  -0.220   0.251  -0.923   0.100  -0.116   0.404
  0.502  -0.220   5.044  -3.112   0.520  -1.694   1.333  -0.220
 -0.588   0.251  -3.112   7.394  -0.615   1.333  -2.702   0.263
  1.801  -0.923   0.520  -0.615   6.559  -0.219   0.262  -2.213
 -0.223   0.100  -1.694   1.333  -0.219   0.598  -0.563   0.095
  0.261  -0.116   1.333  -2.702   0.262  -0.563   1.023  -0.115
 -0.834   0.404  -0.220   0.263  -2.213   0.095  -0.115   0.781


------------------------ aborting loop because EDIFF is reached ----------------------------------------


    FORLOC:  cpu time      0.0053: real time      0.0053
    FORNL :  cpu time      0.1845: real time      0.1848
    FORCOR:  cpu time      0.0160: real time      0.0160
    OFIELD:  cpu time      0.0032: real time      0.0033

  Hirshfeld charges:
            ion         q(e)     
   ------------------------------
      1     C        0.19268939
      2     C        0.19268939
      3     C        0.19268932
      4     C        0.19268932
      5     H        0.10975664
      6     H        0.10975665
      7     H        0.10975664
      8     H        0.10975664
      9     O       -0.17556262
     10     O       -0.12688341
     11     O       -0.17556262
     12     O       -0.12688341
     13     O       -0.17556228
     14     O       -0.17556227
     15     O       -0.12688369
     16     O       -0.12688369

  Atomic reference data used in the T-S method for vdW correction:
            C6at              R0at           ALPHAat      REFSTATE
            (au)              (au)            (au)                
   ---------------------------------------------------------------
   C          46.600          3.590         12.000         0
   H           6.500          3.099          4.500         0
   O          15.600          3.194          5.400         0
 
 Nth order contribution to Edisp (eV)
 Edisp(N=2):  -1.1717723576598378     
 Edisp(N=3):  0.11580509201333695     
 Edisp(N=4):  -6.0709229196611141E-002
 Edisp(N=5):   1.8390787463957746E-002
 Edisp(N=6):  -9.0602197709585656E-003
 Edisp(N=inf):  -1.1047474343127359     

  Tkatchenko/Scheffler method for vdW energy calculation
  ---------------------------------------------------------------------------------------------

  Parameters of vdW forcefield:
            C6ts              R0ts          ALPHAts         R0scs        ALPHAscs        RELVOL 
            (au)              (au)           (au)            (au)          (au)                 
   ---------------------------------------------------------------------------------------------
   C          34.966          3.423         10.395          3.513         11.244          0.866
   C          34.966          3.423         10.395          3.513         11.244          0.866
   C          34.966          3.423         10.395          3.513         11.244          0.866
   C          34.966          3.423         10.395          3.513         11.244          0.866
   H           4.405          2.905          3.704          2.788          3.276          0.823
   H           4.405          2.905          3.704          2.788          3.276          0.823
   H           4.405          2.905          3.704          2.788          3.276          0.823
   H           4.405          2.905          3.704          2.788          3.276          0.823
   O          12.988          3.098          4.927          2.938          4.202          0.912
   O          12.527          3.079          4.839          2.938          4.206          0.896
   O          12.988          3.098          4.927          2.938          4.202          0.912
   O          12.527          3.079          4.839          2.938          4.206          0.896
   O          12.988          3.098          4.927          2.938          4.202          0.912
   O          12.988          3.098          4.927          2.938          4.202          0.912
   O          12.527          3.079          4.839          2.938          4.206          0.896
   O          12.527          3.079          4.839          2.938          4.206          0.896

  vdW correction parametrized for the method pbe       

  IVDW = 202
  VDW_RADIUS =    50.000 A
  VDW_SR =     0.830
  VDW_D =     6.000
  SCSRAD =   120.000 A
  LVDWSCS = T
  LSCSGRAD = T
  LSCALER0 = T
  ITIM = -1
  Edisp (eV):   -1.10475
    FORVDW:  cpu time     17.7285: real time     17.7381

 VOLUME and BASIS-vectors are now :
 -----------------------------------------------------------------------------
  energy-cutoff  :     1000.00
  volume of cell :      156.87
      direct lattice vectors                 reciprocal lattice vectors
     5.330000000  0.000000000  0.000000000     0.187617261 -0.000000000  0.090819072
     0.000000000  6.015000000  0.000000000     0.000000000  0.166251039 -0.000000000
    -2.368480000  0.000000000  4.892890000     0.000000000  0.000000000  0.204378190

  length of vectors
     5.330000000  6.015000000  5.435997614     0.208442655  0.166251039  0.204378190


 FORCES acting on ions:
    Electron-Ion                     Ewald-Force                    Non-Local-Force
 -----------------------------------------------------------------------------------------------
   0.556E+02 0.128E+02 -.110E+02   -.601E+02 -.109E+02 0.803E+01   0.457E+01 -.207E+01 0.319E+01
   -.556E+02 -.128E+02 0.110E+02   0.601E+02 0.109E+02 -.803E+01   -.457E+01 0.207E+01 -.319E+01
   -.556E+02 0.128E+02 0.110E+02   0.601E+02 -.109E+02 -.803E+01   -.457E+01 -.207E+01 -.319E+01
   0.556E+02 -.128E+02 -.110E+02   -.601E+02 0.109E+02 0.803E+01   0.457E+01 0.207E+01 0.319E+01
   -.517E+02 0.341E+01 -.104E+02   0.584E+02 -.329E+01 0.103E+02   -.673E+01 -.883E-01 0.717E-01
   0.517E+02 -.341E+01 0.104E+02   -.584E+02 0.329E+01 -.103E+02   0.673E+01 0.883E-01 -.717E-01
   0.517E+02 0.341E+01 0.104E+02   -.584E+02 -.329E+01 -.103E+02   0.673E+01 -.883E-01 -.717E-01
   -.517E+02 -.341E+01 -.104E+02   0.584E+02 0.329E+01 0.103E+02   -.673E+01 0.883E-01 0.717E-01
   -.792E+02 -.929E+02 0.154E+03   0.970E+02 0.119E+03 -.192E+03   -.179E+02 -.261E+02 0.377E+02
   -.307E+02 0.910E+02 -.151E+03   0.145E+02 -.116E+03 0.189E+03   0.162E+02 0.253E+02 -.374E+02
   0.792E+02 0.929E+02 -.154E+03   -.970E+02 -.119E+03 0.192E+03   0.179E+02 0.261E+02 -.377E+02
   0.307E+02 -.910E+02 0.151E+03   -.145E+02 0.116E+03 -.189E+03   -.162E+02 -.253E+02 0.374E+02
   0.792E+02 -.929E+02 -.154E+03   -.970E+02 0.119E+03 0.192E+03   0.179E+02 -.261E+02 -.377E+02
   -.792E+02 0.929E+02 0.154E+03   0.970E+02 -.119E+03 -.192E+03   -.179E+02 0.261E+02 0.377E+02
   0.307E+02 0.910E+02 0.151E+03   -.145E+02 -.116E+03 -.189E+03   -.162E+02 0.253E+02 0.374E+02
   -.307E+02 -.910E+02 -.151E+03   0.145E+02 0.116E+03 0.189E+03   0.162E+02 -.253E+02 -.374E+02
 -----------------------------------------------------------------------------------------------
   0.541E-06 0.846E-05 -.309E-05   -.533E-13 0.142E-13 0.568E-13   -.355E-14 0.000E+00 0.000E+00


 POSITION                                       TOTAL-FORCE (eV/Angst)
 -----------------------------------------------------------------------------------
     -1.59862      0.01834      4.88466         0.096979     -0.032655      0.058244
      4.56014      5.99666      0.00823        -0.096979      0.032655     -0.058244
      3.37590      3.02584      2.45467        -0.096943     -0.032675     -0.058280
     -0.41438      2.98916      2.43822         0.096943      0.032675      0.058280
      2.31294      5.40473      0.93895         0.060412      0.013632     -0.023958
      0.64858      0.61027      3.95394        -0.060412     -0.013632      0.023958
      1.83282      2.39723      1.50749        -0.060400      0.013631      0.023956
      1.12870      3.61777      3.38540         0.060400     -0.013631     -0.023956
     -0.98134      0.63432      4.01775         0.026452     -0.046535      0.044534
      1.29558      5.36572      0.99010        -0.071076      0.072616     -0.099659
      3.94286      5.38068      0.87514        -0.026452      0.046535     -0.044534
      1.66594      0.64928      3.90279         0.071076     -0.072616      0.099659
      2.75862      3.64182      3.32158        -0.026465     -0.046519     -0.044512
      0.20290      2.37318      1.57131         0.026465      0.046519      0.044512
      2.85018      2.35822      1.45634         0.071067      0.072616      0.099657
      0.11134      3.65678      3.43655        -0.071067     -0.072616     -0.099657
 -----------------------------------------------------------------------------------
    total drift:                                0.000001      0.000008     -0.000003


--------------------------------------------------------------------------------------------------------



  FREE ENERGIE OF THE ION-ELECTRON SYSTEM (eV)
  ---------------------------------------------------
  free  energy   TOTEN  =      -108.10533896 eV

  energy  without entropy=     -108.10533896  energy(sigma->0) =     -108.10533896



--------------------------------------------------------------------------------------------------------


    POTLOK:  cpu time      0.2976: real time      0.2981


--------------------------------------------------------------------------------------------------------


 stress matrix after NEB project (eV)
     -1.09597     -0.00000      0.00871
     -0.00000     -1.24877      0.00001
      0.00871      0.00001     -1.18315
  FORCES: max atom, RMS     0.142327    0.104133
  FORCE total and by dimension    0.416532    0.099659
  Stress total and by dimension    2.039745    1.248769
     LOOP+:  cpu time     44.5399: real time     45.0814
    4ORBIT:  cpu time      0.0000: real time      0.0000

 total amount of memory used by VASP MPI-rank0    48565. kBytes
=======================================================================

   base      :      30000. kBytes
   nonl-proj :       4426. kBytes
   fftplans  :        741. kBytes
   grid      :       1218. kBytes
   one-center:          3. kBytes
   wavefun   :      12177. kBytes

  
  
 General timing and accounting informations for this job:
 ========================================================
  
                  Total CPU time used (sec):       52.939
                            User time (sec):       51.007
                          System time (sec):        1.932
                         Elapsed time (sec):       56.514
  
                   Maximum memory used (kb):      211320.
                   Average memory used (kb):          N/A
  
                          Minor page faults:        96492
                          Major page faults:          510
                 Voluntary context switches:         3243
