 vasp.6.4.1 05Apr23 (build Jun  6 2023 14:36:51) complex                         
 executed on        HPECrayEX_GCC date 2024.08.20  14:40:37
 running  256 mpi-ranks, with    1 threads/rank, on    2 nodes
 distrk:  each k-point on  128 cores,    2 groups
 distr:  one band on NCORE=  32 cores,    4 groups


--------------------------------------------------------------------------------------------------------


 INCAR:
   ALGO = Conjugate
   KPAR = 2
   NCORE = 32
   ISMEAR = 0
   SIGMA = 0.01
   PREC = Accurate
   EDIFF = 1E-7
   ENCUT = 1000
   ISIF = 0
   GGA = BO
   PARAM1 = 0.1833333333
   PARAM2 = 0.2200000000
   LUSE_VDW = .TRUE.
   AGGAC = 0.0000
   LASPH = .TRUE.
   SYMPREC = 1E-7
   LWAVE = .FALSE.
   LCHARGE = .FALSE.

 POTCAR:    PAW_PBE C_h 06Feb2004                 
 POTCAR:    PAW_PBE H_h 06Feb2004                 
 POTCAR:    PAW_PBE O_h 06Feb2004                 
 -----------------------------------------------------------------------------
|                                                                             |
|               ----> ADVICE to this user running VASP <----                  |
|                                                                             |
|     You have switched on vdW-DFT.                                           |
|     This routine was written and supplied by Jiri Klimes. We recommend      |
|     that you carefully read and cite the following publications:            |
|       J. Klimes, D.R. Bowler, A. Michelides                                 |
|          J. Phys.: Cond Matt. 22 022201 (2010)                              |
|       J. Klimes, D.R. Bowler, A. Michelides                                 |
|          Phys. Rev. B. 83, 195131 (2011)                                    |
|     and references therein.                                                 |
|                                                                             |
 -----------------------------------------------------------------------------

 POTCAR:    PAW_PBE C_h 06Feb2004                 
   VRHFIN =C: s2p2                                                                                  
   LEXCH  = PE                                                                                      
   EATOM  =   147.1560 eV,   10.8157 Ry                                                             
                                                                                                    
   TITEL  = PAW_PBE C_h 06Feb2004                                                                   
   LULTRA =        F    use ultrasoft PP ?                                                          
   IUNSCR =        1    unscreen: 0-lin 1-nonlin 2-no                                               
   RPACOR =    0.800    partial core radius                                                         
   POMASS =   12.011; ZVAL   =    4.000    mass and valenz                                          
   RCORE  =    1.100    outmost cutoff radius                                                       
   RWIGS  =    1.630; RWIGS  =    0.863    wigner-seitz radius (au A)                               
   ENMAX  =  700.000; ENMIN  =  500.000 eV                                                          
   ICORE  =        2    local potential                                                             
   LCOR   =        T    correct aug charges                                                         
   LPAW   =        T    paw PP                                                                      
   EAUG   =  946.768                                                                                
   DEXC   =    0.000                                                                                
   RMAX   =    1.128    core radius for proj-oper                                                   
   RAUG   =    1.300    factor for augmentation sphere                                              
   RDEP   =    1.162    radius for radial grids                                                     
   RDEPT  =    1.088    core radius for aug-charge                                                  
                                                                                                    
   Atomic configuration                                                                             
    4 entries                                                                                       
     n  l   j            E        occ.                                                              
     1  0  0.50      -273.3789   2.0000                                                             
     2  0  0.50       -13.7508   2.0000                                                             
     2  1  0.50        -5.2854   2.0000                                                             
     3  2  1.50        -5.4423   0.0000                                                             
   Description                                                                                      
     l       E           TYP  RCUT    TYP  RCUT                                                     
     0    -13.7508458     23  1.100                                                                 
     0     -8.2022199     23  1.100                                                                 
     1     -5.2854383     23  1.100                                                                 
     1      1.1560700     23  1.100                                                                 
     2     -5.4423304      7  1.100                                                                 
  local pseudopotential read in
  partial core-charges read in
  partial kinetic energy density read in
  atomic valenz-charges read in
  non local Contribution for L=           0  read in
    real space projection operators read in
  non local Contribution for L=           0  read in
    real space projection operators read in
  non local Contribution for L=           1  read in
    real space projection operators read in
  non local Contribution for L=           1  read in
    real space projection operators read in
    PAW grid and wavefunctions read in

   number of l-projection  operators is LMAX  =           4
   number of lm-projection operators is LMMAX =           8

 POTCAR:    PAW_PBE H_h 06Feb2004                 
   VRHFIN =H: ultrasoft test                                                                        
   LEXCH  = PE                                                                                      
   EATOM  =    12.4884 eV,    0.9179 Ry                                                             
                                                                                                    
   TITEL  = PAW_PBE H_h 06Feb2004                                                                   
   LULTRA =        F    use ultrasoft PP ?                                                          
   IUNSCR =        0    unscreen: 0-lin 1-nonlin 2-no                                               
   RPACOR =    0.000    partial core radius                                                         
   POMASS =    1.000; ZVAL   =    1.000    mass and valenz                                          
   RCORE  =    0.800    outmost cutoff radius                                                       
   RWIGS  =    0.700; RWIGS  =    0.370    wigner-seitz radius (au A)                               
   ENMAX  =  700.000; ENMIN  =  350.000 eV                                                          
   RCLOC  =    0.701    cutoff for local pot                                                        
   LCOR   =        T    correct aug charges                                                         
   LPAW   =        T    paw PP                                                                      
   EAUG   = 1000.000                                                                                
   RMAX   =    0.819    core radius for proj-oper                                                   
   RAUG   =    1.000    factor for augmentation sphere                                              
   RDEP   =    0.817    radius for radial grids                                                     
   RDEPT  =    0.817    core radius for aug-charge                                                  
                                                                                                    
   Atomic configuration                                                                             
    2 entries                                                                                       
     n  l   j            E        occ.                                                              
     1  0  0.50        -6.4927   1.0000                                                             
     2  1  0.50        -3.4015   0.0000                                                             
   Description                                                                                      
     l       E           TYP  RCUT    TYP  RCUT                                                     
     0     -6.4927493     23  0.800                                                                 
     0      6.8029130     23  0.800                                                                 
     1     -6.8029130     23  0.800                                                                 
  local pseudopotential read in
  atomic valenz-charges read in
  non local Contribution for L=           0  read in
    real space projection operators read in
  non local Contribution for L=           0  read in
    real space projection operators read in
  non local Contribution for L=           1  read in
    real space projection operators read in
    PAW grid and wavefunctions read in

   number of l-projection  operators is LMAX  =           3
   number of lm-projection operators is LMMAX =           5

 POTCAR:    PAW_PBE O_h 06Feb2004                 
   VRHFIN =O: s2p4                                                                                  
   LEXCH  = PE                                                                                      
   EATOM  =   432.3788 eV,   31.7789 Ry                                                             
                                                                                                    
   TITEL  = PAW_PBE O_h 06Feb2004                                                                   
   LULTRA =        F    use ultrasoft PP ?                                                          
   IUNSCR =        1    unscreen: 0-lin 1-nonlin 2-no                                               
   RPACOR =    0.800    partial core radius                                                         
   POMASS =   16.000; ZVAL   =    6.000    mass and valenz                                          
   RCORE  =    1.100    outmost cutoff radius                                                       
   RWIGS  =    1.400; RWIGS  =    0.741    wigner-seitz radius (au A)                               
   ENMAX  =  700.000; ENMIN  =  500.000 eV                                                          
   ICORE  =        2    local potential                                                             
   LCOR   =        T    correct aug charges                                                         
   LPAW   =        T    paw PP                                                                      
   EAUG   =  888.804                                                                                
   DEXC   =    0.000                                                                                
   RMAX   =    1.128    core radius for proj-oper                                                   
   RAUG   =    1.300    factor for augmentation sphere                                              
   RDEP   =    1.125    radius for radial grids                                                     
   RDEPT  =    1.088    core radius for aug-charge                                                  
                                                                                                    
   Atomic configuration                                                                             
    4 entries                                                                                       
     n  l   j            E        occ.                                                              
     1  0  0.50      -514.6923   2.0000                                                             
     2  0  0.50       -23.9615   2.0000                                                             
     2  1  0.50        -9.0305   4.0000                                                             
     3  2  1.50        -9.5241   0.0000                                                             
   Description                                                                                      
     l       E           TYP  RCUT    TYP  RCUT                                                     
     0    -23.9615319     23  1.100                                                                 
     0    -25.3221145     23  1.100                                                                 
     1     -9.0304911     23  1.100                                                                 
     1     -5.4802209     23  1.100                                                                 
     2     -9.5240782      7  1.100                                                                 
  local pseudopotential read in
  partial core-charges read in
  partial kinetic energy density read in
  atomic valenz-charges read in
  non local Contribution for L=           0  read in
    real space projection operators read in
  non local Contribution for L=           0  read in
    real space projection operators read in
  non local Contribution for L=           1  read in
    real space projection operators read in
  non local Contribution for L=           1  read in
    real space projection operators read in
    PAW grid and wavefunctions read in

   number of l-projection  operators is LMAX  =           4
   number of lm-projection operators is LMMAX =           8

 -----------------------------------------------------------------------------
|                                                                             |
|               ----> ADVICE to this user running VASP <----                  |
|                                                                             |
|     You enforced a specific xc type in the INCAR file but a different       |
|     type was found in the POTCAR file.                                      |
|     I HOPE YOU KNOW WHAT YOU ARE DOING!                                     |
|                                                                             |
 -----------------------------------------------------------------------------

  PAW_PBE C_h 06Feb2004                 :
 energy of atom  1       EATOM= -147.1560
 kinetic energy error for atom=    0.0031 (will be added to EATOM!!)
  PAW_PBE H_h 06Feb2004                 :
 energy of atom  2       EATOM=  -12.4884
 kinetic energy error for atom=    0.0006 (will be added to EATOM!!)
  PAW_PBE O_h 06Feb2004                 :
 energy of atom  3       EATOM= -432.3788
 kinetic energy error for atom=    0.0171 (will be added to EATOM!!)


 POSCAR:  C  H  O
  positions in cartesian coordinates
  No initial velocities read in
 exchange correlation table for  LEXCH =       42
   RHO(1)=    0.500       N(1)  =     2000
   RHO(2)=  100.500       N(2)  =     4000

 VTST: version 4.1, (05/19/21)

 CHAIN: initializing optimizer
 
 OPT: Using VASP Dynamics algorithm
 CHAIN: Read ICHAIN            0

 POSCAR:  C  H  O
  positions in cartesian coordinates
  No initial velocities read in



--------------------------------------------------------------------------------------------------------


 ion  position               nearest neighbor table
   1  0.144  0.003  0.998-   9 1.23  10 1.31   2 1.54
   2  0.856  0.997  0.002-  11 1.23  12 1.31   1 1.54
   3  0.856  0.503  0.502-  13 1.23  15 1.31   4 1.54
   4  0.144  0.497  0.498-  14 1.23  16 1.31   3 1.54
   5  0.519  0.899  0.192-  10 1.02
   6  0.481  0.101  0.808-  12 1.02
   7  0.481  0.399  0.308-  15 1.02
   8  0.519  0.601  0.692-  16 1.02
   9  0.181  0.105  0.821-   1 1.23
  10  0.333  0.892  0.202-   5 1.02   1 1.31
  11  0.819  0.895  0.179-   2 1.23
  12  0.667  0.108  0.798-   6 1.02   2 1.31
  13  0.819  0.605  0.679-   3 1.23
  14  0.181  0.395  0.321-   4 1.23
  15  0.667  0.392  0.298-   7 1.02   3 1.31
  16  0.333  0.608  0.702-   8 1.02   4 1.31

  LATTYP: Found a simple monoclinic cell.
 ALAT       =     5.3300000000
 B/A-ratio  =     1.1285178236
 C/A-ratio  =     1.0198869820
 COS(beta)  =    -0.4357029138
  
  Lattice vectors:
  
 A1 = (   5.3300000000,   0.0000000000,   0.0000000000)
 A2 = (   0.0000000000,   6.0150000000,   0.0000000000)
 A3 = (  -2.3684800000,   0.0000000000,   4.8928900000)


Analysis of symmetry for initial positions (statically):
=====================================================================
 Subroutine PRICEL returns:
 Original cell was already a primitive cell.
 

 Routine SETGRP: Setting up the symmetry group for a 
 simple monoclinic supercell.


 Subroutine GETGRP returns: Found  2 space group operations
 (whereof  2 operations were pure point group operations)
 out of a pool of  4 trial point group operations.


The static configuration has the point symmetry S_2 .


Analysis of symmetry for dynamics (positions and initial velocities):
=====================================================================
 Subroutine PRICEL returns:
 Original cell was already a primitive cell.
 

 Routine SETGRP: Setting up the symmetry group for a 
 simple monoclinic supercell.


 Subroutine GETGRP returns: Found  2 space group operations
 (whereof  2 operations were pure point group operations)
 out of a pool of  4 trial point group operations.


The dynamic configuration has the point symmetry S_2 .


 Subroutine INISYM returns: Found  2 space group operations
 (whereof  2 operations are pure point group operations),
 and found     1 'primitive' translations


----------------------------------------------------------------------------------------

                                     Primitive cell                                     

  volume of cell :     156.8658

  direct lattice vectors                    reciprocal lattice vectors
     5.330000000  0.000000000  0.000000000     0.187617261 -0.000000000  0.090819072
     0.000000000  6.015000000  0.000000000     0.000000000  0.166251039 -0.000000000
    -2.368480000  0.000000000  4.892890000     0.000000000  0.000000000  0.204378190

  length of vectors
     5.330000000  6.015000000  5.435997614     0.208442655  0.166251039  0.204378190

  position of ions in fractional coordinates (direct lattice)
     0.143691759  0.003048989  0.998318707
     0.856308241  0.996951011  0.001681293
     0.856308238  0.503048993  0.501681414
     0.143691762  0.496951006  0.498318586
     0.519222146  0.898542098  0.191901324
     0.480777854  0.101457902  0.808098676
     0.480777830  0.398542067  0.308098767
     0.519222170  0.601457933  0.691901233
     0.180772503  0.105456181  0.821140772
     0.332993439  0.892056331  0.202355363
     0.819227497  0.894543819  0.178859228
     0.667006561  0.107943669  0.797644637
     0.819227565  0.605456176  0.678859303
     0.180772436  0.394543824  0.321140697
     0.667006610  0.392056290  0.297644791
     0.332993390  0.607943710  0.702355209

  ion indices of the primitive-cell ions
   primitive index   ion index
                 1           1
                 2           2
                 3           3
                 4           4
                 5           5
                 6           6
                 7           7
                 8           8
                 9           9
                10          10
                11          11
                12          12
                13          13
                14          14
                15          15
                16          16

----------------------------------------------------------------------------------------



 KPOINTS: auto                                    

Automatic generation of k-mesh.
 Grid dimensions read from file:
 generate k-points for:    6    4    5

 Generating k-lattice:

  Cartesian coordinates                     Fractional coordinates (reciprocal lattice)
     0.031269543 -0.000000000  0.015136512     0.166666667  0.000000000 -0.000000000
     0.000000000  0.041562760 -0.000000000     0.000000000  0.250000000  0.000000000
     0.000000000  0.000000000  0.040875638     0.000000000  0.000000000  0.200000000

  Length of vectors
     0.034740442  0.041562760  0.040875638

  Shift w.r.t. Gamma in fractional coordinates (k-lattice)
     0.000000000  0.000000000  0.000000000

 
 Subroutine IBZKPT returns following result:
 ===========================================
 
 Found     62 irreducible k-points:
 
 Following reciprocal coordinates:
            Coordinates               Weight
  0.000000  0.000000  0.000000      1.000000
  0.166667  0.000000  0.000000      2.000000
  0.333333  0.000000  0.000000      2.000000
  0.500000  0.000000  0.000000      1.000000
  0.000000  0.250000  0.000000      2.000000
  0.166667  0.250000  0.000000      2.000000
 -0.166667  0.250000  0.000000      2.000000
  0.333333  0.250000  0.000000      2.000000
 -0.333333  0.250000  0.000000      2.000000
  0.500000  0.250000  0.000000      2.000000
  0.000000  0.500000  0.000000      1.000000
  0.166667  0.500000  0.000000      2.000000
  0.333333  0.500000  0.000000      2.000000
  0.500000  0.500000  0.000000      1.000000
  0.000000  0.000000  0.200000      2.000000
  0.166667  0.000000  0.200000      2.000000
  0.333333  0.000000  0.200000      2.000000
  0.500000  0.000000  0.200000      2.000000
 -0.333333  0.000000  0.200000      2.000000
 -0.166667  0.000000  0.200000      2.000000
  0.000000  0.250000  0.200000      2.000000
  0.000000  0.250000 -0.200000      2.000000
  0.166667  0.250000  0.200000      2.000000
 -0.166667  0.250000 -0.200000      2.000000
  0.333333  0.250000  0.200000      2.000000
 -0.333333  0.250000 -0.200000      2.000000
  0.500000  0.250000  0.200000      2.000000
  0.500000  0.250000 -0.200000      2.000000
 -0.333333  0.250000  0.200000      2.000000
  0.333333  0.250000 -0.200000      2.000000
 -0.166667  0.250000  0.200000      2.000000
  0.166667  0.250000 -0.200000      2.000000
  0.000000  0.500000  0.200000      2.000000
  0.166667  0.500000  0.200000      2.000000
  0.333333  0.500000  0.200000      2.000000
  0.500000  0.500000  0.200000      2.000000
 -0.333333  0.500000  0.200000      2.000000
 -0.166667  0.500000  0.200000      2.000000
  0.000000  0.000000  0.400000      2.000000
  0.166667  0.000000  0.400000      2.000000
  0.333333  0.000000  0.400000      2.000000
  0.500000  0.000000  0.400000      2.000000
 -0.333333  0.000000  0.400000      2.000000
 -0.166667  0.000000  0.400000      2.000000
  0.000000  0.250000  0.400000      2.000000
  0.000000  0.250000 -0.400000      2.000000
  0.166667  0.250000  0.400000      2.000000
 -0.166667  0.250000 -0.400000      2.000000
  0.333333  0.250000  0.400000      2.000000
 -0.333333  0.250000 -0.400000      2.000000
  0.500000  0.250000  0.400000      2.000000
  0.500000  0.250000 -0.400000      2.000000
 -0.333333  0.250000  0.400000      2.000000
  0.333333  0.250000 -0.400000      2.000000
 -0.166667  0.250000  0.400000      2.000000
  0.166667  0.250000 -0.400000      2.000000
  0.000000  0.500000  0.400000      2.000000
  0.166667  0.500000  0.400000      2.000000
  0.333333  0.500000  0.400000      2.000000
  0.500000  0.500000  0.400000      2.000000
 -0.333333  0.500000  0.400000      2.000000
 -0.166667  0.500000  0.400000      2.000000
 
 Following cartesian coordinates:
            Coordinates               Weight
  0.000000  0.000000  0.000000      1.000000
  0.031270  0.000000  0.015137      2.000000
  0.062539  0.000000  0.030273      2.000000
  0.093809  0.000000  0.045410      1.000000
  0.000000  0.041563  0.000000      2.000000
  0.031270  0.041563  0.015137      2.000000
 -0.031270  0.041563 -0.015137      2.000000
  0.062539  0.041563  0.030273      2.000000
 -0.062539  0.041563 -0.030273      2.000000
  0.093809  0.041563  0.045410      2.000000
  0.000000  0.083126  0.000000      1.000000
  0.031270  0.083126  0.015137      2.000000
  0.062539  0.083126  0.030273      2.000000
  0.093809  0.083126  0.045410      1.000000
  0.000000  0.000000  0.040876      2.000000
  0.031270  0.000000  0.056012      2.000000
  0.062539  0.000000  0.071149      2.000000
  0.093809  0.000000  0.086285      2.000000
 -0.062539  0.000000  0.010603      2.000000
 -0.031270  0.000000  0.025739      2.000000
  0.000000  0.041563  0.040876      2.000000
  0.000000  0.041563 -0.040876      2.000000
  0.031270  0.041563  0.056012      2.000000
 -0.031270  0.041563 -0.056012      2.000000
  0.062539  0.041563  0.071149      2.000000
 -0.062539  0.041563 -0.071149      2.000000
  0.093809  0.041563  0.086285      2.000000
  0.093809  0.041563  0.004534      2.000000
 -0.062539  0.041563  0.010603      2.000000
  0.062539  0.041563 -0.010603      2.000000
 -0.031270  0.041563  0.025739      2.000000
  0.031270  0.041563 -0.025739      2.000000
  0.000000  0.083126  0.040876      2.000000
  0.031270  0.083126  0.056012      2.000000
  0.062539  0.083126  0.071149      2.000000
  0.093809  0.083126  0.086285      2.000000
 -0.062539  0.083126  0.010603      2.000000
 -0.031270  0.083126  0.025739      2.000000
  0.000000  0.000000  0.081751      2.000000
  0.031270  0.000000  0.096888      2.000000
  0.062539  0.000000  0.112024      2.000000
  0.093809  0.000000  0.127161      2.000000
 -0.062539  0.000000  0.051478      2.000000
 -0.031270  0.000000  0.066615      2.000000
  0.000000  0.041563  0.081751      2.000000
  0.000000  0.041563 -0.081751      2.000000
  0.031270  0.041563  0.096888      2.000000
 -0.031270  0.041563 -0.096888      2.000000
  0.062539  0.041563  0.112024      2.000000
 -0.062539  0.041563 -0.112024      2.000000
  0.093809  0.041563  0.127161      2.000000
  0.093809  0.041563 -0.036342      2.000000
 -0.062539  0.041563  0.051478      2.000000
  0.062539  0.041563 -0.051478      2.000000
 -0.031270  0.041563  0.066615      2.000000
  0.031270  0.041563 -0.066615      2.000000
  0.000000  0.083126  0.081751      2.000000
  0.031270  0.083126  0.096888      2.000000
  0.062539  0.083126  0.112024      2.000000
  0.093809  0.083126  0.127161      2.000000
 -0.062539  0.083126  0.051478      2.000000
 -0.031270  0.083126  0.066615      2.000000
 


--------------------------------------------------------------------------------------------------------




 Dimension of arrays:
   k-points           NKPTS =     62   k-points in BZ     NKDIM =     62   number of bands    NBANDS=     44
   number of dos      NEDOS =    301   number of ions     NIONS =     16
   non local maximal  LDIM  =      4   non local SUM 2l+1 LMDIM =      8
   total plane-waves  NPLWV = 200704
   max r-space proj   IRMAX =      1   max aug-charges    IRDMAX=   9530
   dimension x,y,z NGX =    56 NGY =   64 NGZ =   56
   dimension x,y,z NGXF=   112 NGYF=  128 NGZF=  112
   support grid    NGXF=   112 NGYF=  128 NGZF=  112
   ions per type =               4   4   8
   NGX,Y,Z   is equivalent  to a cutoff of  17.47, 17.69, 17.13 a.u.
   NGXF,Y,Z  is equivalent  to a cutoff of  34.93, 35.38, 34.25 a.u.

 SYSTEM =  unknown system                          
 POSCAR =   C  H  O                                

 Startparameter for this run:
   NWRITE =      2    write-flag & timer
   PREC   = accura    normal or accurate (medium, high low for compatibility)
   ISTART =      0    job   : 0-new  1-cont  2-samecut
   ICHARG =      2    charge: 1-file 2-atom 10-const
   ISPIN  =      1    spin polarized calculation?
   LNONCOLLINEAR =      F non collinear calculations
   LSORBIT =      F    spin-orbit coupling
   INIWAV =      1    electr: 0-lowe 1-rand  2-diag
   LASPH  =      T    aspherical Exc in radial PAW
 Electronic Relaxation 1
   ENCUT  = 1000.0 eV  73.50 Ry    8.57 a.u.  13.74 15.51 14.02*2*pi/ulx,y,z
   ENINI  = 1000.0     initial cutoff
   ENAUG  = 1000.0 eV  augmentation charge cutoff
   NELM   =     60;   NELMIN=  2; NELMDL= -5     # of ELM steps 
   EDIFF  = 0.1E-06   stopping-criterion for ELM
   LREAL  =      F    real-space projection
   NLSPLINE    = F    spline interpolate recip. space projectors
   LCOMPAT=      F    compatible to vasp.4.4
   GGA_COMPAT  = T    GGA compatible to vasp.4.4-vasp.4.6
   LMAXPAW     = -100 max onsite density
   LMAXMIX     =    2 max onsite mixed and CHGCAR
   VOSKOWN=      0    Vosko Wilk Nusair interpolation
   ROPT   =    0.00000   0.00000   0.00000
 Ionic relaxation
   EDIFFG = 0.1E-05   stopping-criterion for IOM
   NSW    =      0    number of steps for IOM
   NBLOCK =      1;   KBLOCK =      1    inner block; outer block 
   IBRION =     -1    ionic relax: 0-MD 1-quasi-New 2-CG
   NFREE  =      0    steps in history (QN), initial steepest desc. (CG)
   ISIF   =      0    stress and relaxation
   IWAVPR =     10    prediction:  0-non 1-charg 2-wave 3-comb
   ISYM   =      2    0-nonsym 1-usesym 2-fastsym
   LCORR  =      T    Harris-Foulkes like correction to forces

   POTIM  = 0.5000    time-step for ionic-motion
   TEIN   =    0.0    initial temperature
   TEBEG  =    0.0;   TEEND  =   0.0 temperature during run
   SMASS  =  -3.00    Nose mass-parameter (am)
   estimated Nose-frequenzy (Omega)   =  0.10E-29 period in steps = 0.13E+47 mass=  -0.649E-27a.u.
   SCALEE = 1.0000    scale energy and forces
   NPACO  =    256;   APACO  = 10.0  distance and # of slots for P.C.
   PSTRESS=    0.0 pullay stress

  Mass of Ions in am
   POMASS =  12.01  1.00 16.00
  Ionic Valenz
   ZVAL   =   4.00  1.00  6.00
  Atomic Wigner-Seitz radii
   RWIGS  =  -1.00 -1.00 -1.00
  virtual crystal weights 
   VCA    =   1.00  1.00  1.00
   NELECT =      68.0000    total number of electrons
   NUPDOWN=      -1.0000    fix difference up-down

 DOS related values:
   EMIN   =  10.00;   EMAX   =-10.00  energy-range for DOS
   EFERMI =   0.00;   METHOD = LEGACY      
   ISMEAR =     0;   SIGMA  =   0.01  broadening in eV -4-tet -1-fermi 0-gaus

 Electronic relaxation 2 (details)
   IALGO  =     58    algorithm
   LDIAG  =      T    sub-space diagonalisation (order eigenvalues)
   LSUBROT=      F    optimize rotation matrix (better conditioning)
   TURBO    =      0    0=normal 1=particle mesh
   IRESTART =      0    0=no restart 2=restart with 2 vectors
   NREBOOT  =      0    no. of reboots
   NMIN     =      0    reboot dimension
   EREF     =   0.00    reference energy to select bands
   IMIX   =      4    mixing-type and parameters
     AMIX     =   0.40;   BMIX     =  1.00
     AMIX_MAG =   1.60;   BMIX_MAG =  1.00
     AMIN     =   0.10
     WC   =   100.;   INIMIX=   1;  MIXPRE=   1;  MAXMIX= -45

 Intra band minimization:
   WEIMIN = 0.0000     energy-eigenvalue tresh-hold
   EBREAK =  0.57E-09  absolut break condition
   DEPER  =   0.30     relativ break condition  

   TIME   =   0.40     timestep for ELM

  volume/ion in A,a.u.               =       9.80        66.16
  Fermi-wavevector in a.u.,A,eV,Ry     =   1.238992  2.341355 20.886307  1.535100
  Thomas-Fermi vector in A             =   2.373494

 Write flags
   LWAVE        =      F    write WAVECAR
   LDOWNSAMPLE  =      F    k-point downsampling of WAVECAR
   LCHARG       =      T    write CHGCAR
   LVTOT        =      F    write LOCPOT, total local potential
   LVHAR        =      F    write LOCPOT, Hartree potential only
   LELF         =      F    write electronic localiz. function (ELF)
   LORBIT       =      0    0 simple, 1 ext, 2 COOP (PROOUT), +10 PAW based schemes


 Dipole corrections
   LMONO  =      F    monopole corrections only (constant potential shift)
   LDIPOL =      F    correct potential (dipole corrections)
   IDIPOL =      0    1-x, 2-y, 3-z, 4-all directions 
   EPSILON=  1.0000000 bulk dielectric constant

 Exchange correlation treatment:
   GGA     =    BO    GGA type
   LEXCH   =    42    internal setting for exchange type
   LIBXC   =     F    Libxc                    
   VOSKOWN =     0    Vosko Wilk Nusair interpolation
   LHFCALC =     F    Hartree Fock is set to
   LHFONE  =     F    Hartree Fock one center treatment
   AEXX    =    0.0000 exact exchange contribution

 vdW DFT:
   LUSE_VDW   =     T    switch on vdW DFT
   IVDW_NL    =     1    kernel type
   LSPIN_VDW  =     F    use spin-polarized vdW DFT
   Zab_VDW    =-.8491    correlation parameter
   PARAM1     =0.1833
   PARAM2     =0.2200
   PARAM3     =0.0000
   -- rVV10 --
   BPARAM     = 6.3000
   CPARAM     = 0.0093

 Linear response parameters
   LEPSILON=     F    determine dielectric tensor
   LRPA    =     F    only Hartree local field effects (RPA)
   LNABLA  =     F    use nabla operator in PAW spheres
   LVEL    =     F    velocity operator in full k-point grid
   CSHIFT  =0.1000    complex shift for real part using Kramers Kronig
   OMEGAMAX=  -1.0    maximum frequency
   DEG_THRESHOLD= 0.2000000E-02 threshold for treating states as degnerate
   RTIME   =   -0.100 relaxation time in fs
  (WPLASMAI=    0.000 imaginary part of plasma frequency in eV, 0.658/RTIME)
   DFIELD  = 0.0000000 0.0000000 0.0000000 field for delta impulse in time

  Optional k-point grid parameters
   LKPOINTS_OPT  =     F    use optional k-point grid
   KPOINTS_OPT_MODE=     1    mode for optional k-point grid

 Orbital magnetization related:
   ORBITALMAG=     F  switch on orbital magnetization
   LCHIMAG   =     F  perturbation theory with respect to B field
   DQ        =  0.001000  dq finite difference perturbation B field
   LLRAUG    =     F  two centre corrections for induced B field
   LBONE     =     F  B-component reconstruction in AE one-centre
   LVGVCALC  =     T  calculate vGv susceptibility
   LVGVAPPL  =     F  apply vGv susceptibility instead of pGv for G=0

 Random number generation:
   RANDOM_GENERATOR = DEFAULT
   PCG_SEED         = not used


--------------------------------------------------------------------------------------------------------


 Static calculation
 charge density and potential will be updated during run
 non-spin polarized calculation
 Conjugate gradient for all bands (Freysoldt, et al. PRB 79, 241103 (2009))
 preconditioned conjugated gradient                                        
 perform sub-space diagonalisation
    before iterative eigenvector-optimisation
 modified Broyden-mixing scheme, WC =      100.0
 initial mixing is a Kerker type mixing with AMIX =  0.4000 and BMIX =      1.0000
 Hartree-type preconditioning will be used
 using additional bands           10
 reciprocal scheme for non local part
 use partial core corrections
 no Harris-corrections to forces 
 use gradient corrections 
 use of overlap-Matrix (Vanderbilt PP)
 Gauss-broadening in eV      SIGMA  =   0.01


--------------------------------------------------------------------------------------------------------


  energy-cutoff  :     1000.00
  volume of cell :      156.87
      direct lattice vectors                 reciprocal lattice vectors
     5.330000000  0.000000000  0.000000000     0.187617261 -0.000000000  0.090819072
     0.000000000  6.015000000  0.000000000     0.000000000  0.166251039 -0.000000000
    -2.368480000  0.000000000  4.892890000     0.000000000  0.000000000  0.204378190

  length of vectors
     5.330000000  6.015000000  5.435997614     0.208442655  0.166251039  0.204378190



 k-points in units of 2pi/SCALE and weight: auto                                    
   0.00000000  0.00000000  0.00000000       0.008
   0.03126954  0.00000000  0.01513651       0.017
   0.06253909  0.00000000  0.03027302       0.017
   0.09380863  0.00000000  0.04540954       0.008
   0.00000000  0.04156276  0.00000000       0.017
   0.03126954  0.04156276  0.01513651       0.017
  -0.03126954  0.04156276 -0.01513651       0.017
   0.06253909  0.04156276  0.03027302       0.017
  -0.06253909  0.04156276 -0.03027302       0.017
   0.09380863  0.04156276  0.04540954       0.017
   0.00000000  0.08312552  0.00000000       0.008
   0.03126954  0.08312552  0.01513651       0.017
   0.06253909  0.08312552  0.03027302       0.017
   0.09380863  0.08312552  0.04540954       0.008
   0.00000000  0.00000000  0.04087564       0.017
   0.03126954  0.00000000  0.05601215       0.017
   0.06253909  0.00000000  0.07114866       0.017
   0.09380863  0.00000000  0.08628517       0.017
  -0.06253909  0.00000000  0.01060261       0.017
  -0.03126954  0.00000000  0.02573913       0.017
   0.00000000  0.04156276  0.04087564       0.017
   0.00000000  0.04156276 -0.04087564       0.017
   0.03126954  0.04156276  0.05601215       0.017
  -0.03126954  0.04156276 -0.05601215       0.017
   0.06253909  0.04156276  0.07114866       0.017
  -0.06253909  0.04156276 -0.07114866       0.017
   0.09380863  0.04156276  0.08628517       0.017
   0.09380863  0.04156276  0.00453390       0.017
  -0.06253909  0.04156276  0.01060261       0.017
   0.06253909  0.04156276 -0.01060261       0.017
  -0.03126954  0.04156276  0.02573913       0.017
   0.03126954  0.04156276 -0.02573913       0.017
   0.00000000  0.08312552  0.04087564       0.017
   0.03126954  0.08312552  0.05601215       0.017
   0.06253909  0.08312552  0.07114866       0.017
   0.09380863  0.08312552  0.08628517       0.017
  -0.06253909  0.08312552  0.01060261       0.017
  -0.03126954  0.08312552  0.02573913       0.017
   0.00000000  0.00000000  0.08175128       0.017
   0.03126954  0.00000000  0.09688779       0.017
   0.06253909  0.00000000  0.11202430       0.017
   0.09380863  0.00000000  0.12716081       0.017
  -0.06253909  0.00000000  0.05147825       0.017
  -0.03126954  0.00000000  0.06661476       0.017
   0.00000000  0.04156276  0.08175128       0.017
   0.00000000  0.04156276 -0.08175128       0.017
   0.03126954  0.04156276  0.09688779       0.017
  -0.03126954  0.04156276 -0.09688779       0.017
   0.06253909  0.04156276  0.11202430       0.017
  -0.06253909  0.04156276 -0.11202430       0.017
   0.09380863  0.04156276  0.12716081       0.017
   0.09380863  0.04156276 -0.03634174       0.017
  -0.06253909  0.04156276  0.05147825       0.017
   0.06253909  0.04156276 -0.05147825       0.017
  -0.03126954  0.04156276  0.06661476       0.017
   0.03126954  0.04156276 -0.06661476       0.017
   0.00000000  0.08312552  0.08175128       0.017
   0.03126954  0.08312552  0.09688779       0.017
   0.06253909  0.08312552  0.11202430       0.017
   0.09380863  0.08312552  0.12716081       0.017
  -0.06253909  0.08312552  0.05147825       0.017
  -0.03126954  0.08312552  0.06661476       0.017

 k-points in reciprocal lattice and weights: auto                                    
   0.00000000  0.00000000  0.00000000       0.008
   0.16666667  0.00000000  0.00000000       0.017
   0.33333333  0.00000000  0.00000000       0.017
   0.50000000  0.00000000  0.00000000       0.008
   0.00000000  0.25000000  0.00000000       0.017
   0.16666667  0.25000000  0.00000000       0.017
  -0.16666667  0.25000000  0.00000000       0.017
   0.33333333  0.25000000  0.00000000       0.017
  -0.33333333  0.25000000  0.00000000       0.017
   0.50000000  0.25000000  0.00000000       0.017
   0.00000000  0.50000000  0.00000000       0.008
   0.16666667  0.50000000  0.00000000       0.017
   0.33333333  0.50000000  0.00000000       0.017
   0.50000000  0.50000000  0.00000000       0.008
   0.00000000  0.00000000  0.20000000       0.017
   0.16666667  0.00000000  0.20000000       0.017
   0.33333333  0.00000000  0.20000000       0.017
   0.50000000  0.00000000  0.20000000       0.017
  -0.33333333  0.00000000  0.20000000       0.017
  -0.16666667  0.00000000  0.20000000       0.017
   0.00000000  0.25000000  0.20000000       0.017
   0.00000000  0.25000000 -0.20000000       0.017
   0.16666667  0.25000000  0.20000000       0.017
  -0.16666667  0.25000000 -0.20000000       0.017
   0.33333333  0.25000000  0.20000000       0.017
  -0.33333333  0.25000000 -0.20000000       0.017
   0.50000000  0.25000000  0.20000000       0.017
   0.50000000  0.25000000 -0.20000000       0.017
  -0.33333333  0.25000000  0.20000000       0.017
   0.33333333  0.25000000 -0.20000000       0.017
  -0.16666667  0.25000000  0.20000000       0.017
   0.16666667  0.25000000 -0.20000000       0.017
   0.00000000  0.50000000  0.20000000       0.017
   0.16666667  0.50000000  0.20000000       0.017
   0.33333333  0.50000000  0.20000000       0.017
   0.50000000  0.50000000  0.20000000       0.017
  -0.33333333  0.50000000  0.20000000       0.017
  -0.16666667  0.50000000  0.20000000       0.017
   0.00000000  0.00000000  0.40000000       0.017
   0.16666667  0.00000000  0.40000000       0.017
   0.33333333  0.00000000  0.40000000       0.017
   0.50000000  0.00000000  0.40000000       0.017
  -0.33333333  0.00000000  0.40000000       0.017
  -0.16666667  0.00000000  0.40000000       0.017
   0.00000000  0.25000000  0.40000000       0.017
   0.00000000  0.25000000 -0.40000000       0.017
   0.16666667  0.25000000  0.40000000       0.017
  -0.16666667  0.25000000 -0.40000000       0.017
   0.33333333  0.25000000  0.40000000       0.017
  -0.33333333  0.25000000 -0.40000000       0.017
   0.50000000  0.25000000  0.40000000       0.017
   0.50000000  0.25000000 -0.40000000       0.017
  -0.33333333  0.25000000  0.40000000       0.017
   0.33333333  0.25000000 -0.40000000       0.017
  -0.16666667  0.25000000  0.40000000       0.017
   0.16666667  0.25000000 -0.40000000       0.017
   0.00000000  0.50000000  0.40000000       0.017
   0.16666667  0.50000000  0.40000000       0.017
   0.33333333  0.50000000  0.40000000       0.017
   0.50000000  0.50000000  0.40000000       0.017
  -0.33333333  0.50000000  0.40000000       0.017
  -0.16666667  0.50000000  0.40000000       0.017

 position of ions in fractional coordinates (direct lattice) 
   0.14369176  0.00304899  0.99831871
   0.85630824  0.99695101  0.00168129
   0.85630824  0.50304899  0.50168141
   0.14369176  0.49695101  0.49831859
   0.51922215  0.89854210  0.19190132
   0.48077785  0.10145790  0.80809868
   0.48077783  0.39854207  0.30809877
   0.51922217  0.60145793  0.69190123
   0.18077250  0.10545618  0.82114077
   0.33299344  0.89205633  0.20235536
   0.81922750  0.89454382  0.17885923
   0.66700656  0.10794367  0.79764464
   0.81922756  0.60545618  0.67885930
   0.18077244  0.39454382  0.32114070
   0.66700661  0.39205629  0.29764479
   0.33299339  0.60794371  0.70235521

 position of ions in cartesian coordinates  (Angst):
  -1.59862081  0.01833967  4.88466362
   4.56014081  5.99666033  0.00822638
   3.37590051  3.02583970  2.45467197
  -0.41438051  2.98916030  2.43821803
   2.31293959  5.40473072  0.93895207
   0.64858041  0.61026928  3.95393793
   1.83282006  2.39723053  1.50749338
   1.12869994  3.61776947  3.38539662
  -0.98133805  0.63431893  4.01775147
   1.29558040  5.36571883  0.99010253
   3.94285805  5.38068107  0.87513853
   1.66593960  0.64928117  3.90278747
   2.75861824  3.64181890  3.32158390
   0.20290176  2.37318110  1.57130611
   2.85017950  2.35821859  1.45634322
   0.11134050  3.65678142  3.43654678



--------------------------------------------------------------------------------------------------------


 k-point   1 :   0.0000 0.0000 0.0000  plane waves:   11235
 k-point   2 :   0.1667 0.0000 0.0000  plane waves:   11231
 k-point   3 :   0.3333 0.0000 0.0000  plane waves:   11253
 k-point   4 :   0.5000 0.0000 0.0000  plane waves:   11230
 k-point   5 :   0.0000 0.2500 0.0000  plane waves:   11269
 k-point   6 :   0.1667 0.2500 0.0000  plane waves:   11264
 k-point   7 :  -0.1667 0.2500 0.0000  plane waves:   11264
 k-point   8 :   0.3333 0.2500 0.0000  plane waves:   11247
 k-point   9 :  -0.3333 0.2500 0.0000  plane waves:   11247
 k-point  10 :   0.5000 0.2500 0.0000  plane waves:   11246
 k-point  11 :   0.0000 0.5000 0.0000  plane waves:   11232
 k-point  12 :   0.1667 0.5000 0.0000  plane waves:   11238
 k-point  13 :   0.3333 0.5000 0.0000  plane waves:   11252
 k-point  14 :   0.5000 0.5000 0.0000  plane waves:   11256
 k-point  15 :   0.0000 0.0000 0.2000  plane waves:   11280
 k-point  16 :   0.1667 0.0000 0.2000  plane waves:   11253
 k-point  17 :   0.3333 0.0000 0.2000  plane waves:   11254
 k-point  18 :   0.5000 0.0000 0.2000  plane waves:   11276
 k-point  19 :  -0.3333 0.0000 0.2000  plane waves:   11272
 k-point  20 :  -0.1667 0.0000 0.2000  plane waves:   11295
 k-point  21 :   0.0000 0.2500 0.2000  plane waves:   11270
 k-point  22 :   0.0000 0.2500-0.2000  plane waves:   11270
 k-point  23 :   0.1667 0.2500 0.2000  plane waves:   11273
 k-point  24 :  -0.1667 0.2500-0.2000  plane waves:   11273
 k-point  25 :   0.3333 0.2500 0.2000  plane waves:   11279
 k-point  26 :  -0.3333 0.2500-0.2000  plane waves:   11279
 k-point  27 :   0.5000 0.2500 0.2000  plane waves:   11254
 k-point  28 :   0.5000 0.2500-0.2000  plane waves:   11254
 k-point  29 :  -0.3333 0.2500 0.2000  plane waves:   11256
 k-point  30 :   0.3333 0.2500-0.2000  plane waves:   11256
 k-point  31 :  -0.1667 0.2500 0.2000  plane waves:   11267
 k-point  32 :   0.1667 0.2500-0.2000  plane waves:   11267
 k-point  33 :   0.0000 0.5000 0.2000  plane waves:   11264
 k-point  34 :   0.1667 0.5000 0.2000  plane waves:   11256
 k-point  35 :   0.3333 0.5000 0.2000  plane waves:   11266
 k-point  36 :   0.5000 0.5000 0.2000  plane waves:   11262
 k-point  37 :  -0.3333 0.5000 0.2000  plane waves:   11262
 k-point  38 :  -0.1667 0.5000 0.2000  plane waves:   11242
 k-point  39 :   0.0000 0.0000 0.4000  plane waves:   11268
 k-point  40 :   0.1667 0.0000 0.4000  plane waves:   11286
 k-point  41 :   0.3333 0.0000 0.4000  plane waves:   11270
 k-point  42 :   0.5000 0.0000 0.4000  plane waves:   11292
 k-point  43 :  -0.3333 0.0000 0.4000  plane waves:   11289
 k-point  44 :  -0.1667 0.0000 0.4000  plane waves:   11295
 k-point  45 :   0.0000 0.2500 0.4000  plane waves:   11272
 k-point  46 :   0.0000 0.2500-0.4000  plane waves:   11272
 k-point  47 :   0.1667 0.2500 0.4000  plane waves:   11277
 k-point  48 :  -0.1667 0.2500-0.4000  plane waves:   11277
 k-point  49 :   0.3333 0.2500 0.4000  plane waves:   11263
 k-point  50 :  -0.3333 0.2500-0.4000  plane waves:   11263
 k-point  51 :   0.5000 0.2500 0.4000  plane waves:   11271
 k-point  52 :   0.5000 0.2500-0.4000  plane waves:   11271
 k-point  53 :  -0.3333 0.2500 0.4000  plane waves:   11261
 k-point  54 :   0.3333 0.2500-0.4000  plane waves:   11261
 k-point  55 :  -0.1667 0.2500 0.4000  plane waves:   11262
 k-point  56 :   0.1667 0.2500-0.4000  plane waves:   11262
 k-point  57 :   0.0000 0.5000 0.4000  plane waves:   11262
 k-point  58 :   0.1667 0.5000 0.4000  plane waves:   11250
 k-point  59 :   0.3333 0.5000 0.4000  plane waves:   11272
 k-point  60 :   0.5000 0.5000 0.4000  plane waves:   11250
 k-point  61 :  -0.3333 0.5000 0.4000  plane waves:   11254
 k-point  62 :  -0.1667 0.5000 0.4000  plane waves:   11250

 maximum and minimum number of plane-waves per node :       371      331

 maximum number of plane-waves:     11295
 maximum index in each direction: 
   IXMAX=   14   IYMAX=   15   IZMAX=   14
   IXMIN=  -14   IYMIN=  -16   IZMIN=  -14


 parallel 3D FFT for wavefunctions:
    minimum data exchange during FFTs selected (reduces bandwidth)
 parallel 3D FFT for charge:
    minimum data exchange during FFTs selected (reduces bandwidth)


 total amount of memory used by VASP MPI-rank0    48565. kBytes
=======================================================================

   base      :      30000. kBytes
   nonl-proj :       4426. kBytes
   fftplans  :        741. kBytes
   grid      :       1218. kBytes
   one-center:          3. kBytes
   wavefun   :      12177. kBytes

     INWAV:  cpu time      0.0000: real time      0.0000
 Broyden mixing: mesh for mixing (old mesh)
   NGX = 27   NGY = 31   NGZ = 29
  (NGX  =112   NGY  =128   NGZ  =112)
  gives a total of  24273 points

 initial charge density was supplied:
 charge density of overlapping atoms calculated
 number of electron      68.0000000 magnetization 
 keeping initial charge density in first step


--------------------------------------------------------------------------------------------------------


 Maximum index for augmentation-charges            0 (set IRDMAX)


--------------------------------------------------------------------------------------------------------


 First call to EWALD:  gamma=   0.329
 Maximum number of real-space cells 3x 3x 3
 Maximum number of reciprocal cells 3x 3x 3

    FEWALD:  cpu time      0.0027: real time      0.0027


--------------------------------------- Ionic step        1  -------------------------------------------




--------------------------------------- Iteration      1(   1)  ---------------------------------------


vdW kernel read from vdw_kernel.bindat
  0.0000  0.2424  0.5071  0.7962  1.1119  1.4567  1.8333  2.2446  2.6937  3.1842
  3.7199  4.3049  4.9438  5.6415  6.4036  7.2358  8.1446  9.1372 10.2212 11.4050
 12.6979 14.1099 15.6519 17.3360 19.1751 21.1837 23.3773 25.7729 28.3892 31.2465
 34.3669 37.7748 41.4965 45.5611 50.0000

    POTLOK:  cpu time      1.2606: real time      1.2614
    SETDIJ:  cpu time      0.0157: real time      0.0160
    TRIAL :  cpu time      0.9518: real time      0.9538
    CORREC:  cpu time      0.0012: real time      0.0012
    --------------------------------------------
      LOOP:  cpu time      2.2332: real time      2.2362

 eigenvalue-minimisations  :  5456
 total energy-change (2. order) : 0.7385884E+03  (-0.5421976E+04)
 number of electron      68.0000000 magnetization 
 augmentation part       68.0000000 magnetization 

 Free energy of the ion-electron system (eV)
  ---------------------------------------------------
  alpha Z        PSCENC =        81.91423797
  Ewald energy   TEWEN  =     -2364.59881513
  -Hartree energ DENC   =     -1465.29363950
  -exchange      EXHF   =         0.00000000
  -V(xc)+E(xc)   XCENC  =       244.87535085
  PAW double counting   =      3243.81225134    -3226.30207356
  entropy T*S    EENTRO =        -0.00013968
  eigenvalues    EBANDS =        94.24480553
  atomic energy  EATOM  =      4129.93638465
  ---------------------------------------------------
  free energy    TOTEN  =       738.58836246 eV

  energy without entropy =      738.58850213  energy(sigma->0) =      738.58843229


--------------------------------------------------------------------------------------------------------




--------------------------------------- Iteration      1(   2)  ---------------------------------------


    TRIAL :  cpu time      1.1722: real time      1.1725
    CORREC:  cpu time      0.0004: real time      0.0004
    --------------------------------------------
      LOOP:  cpu time      1.1849: real time      1.2026

 eigenvalue-minimisations  :  7512
 total energy-change (2. order) :-0.7324285E+03  (-0.7091656E+03)
 number of electron      68.0000000 magnetization 
 augmentation part       68.0000000 magnetization 

 Free energy of the ion-electron system (eV)
  ---------------------------------------------------
  alpha Z        PSCENC =        81.91423797
  Ewald energy   TEWEN  =     -2364.59881513
  -Hartree energ DENC   =     -1465.29363950
  -exchange      EXHF   =         0.00000000
  -V(xc)+E(xc)   XCENC  =       244.87535085
  PAW double counting   =      3243.81225134    -3226.30207356
  entropy T*S    EENTRO =        -0.00000000
  eigenvalues    EBANDS =      -638.18384270
  atomic energy  EATOM  =      4129.93638465
  ---------------------------------------------------
  free energy    TOTEN  =         6.15985390 eV

  energy without entropy =        6.15985390  energy(sigma->0) =        6.15985390


--------------------------------------------------------------------------------------------------------




--------------------------------------- Iteration      1(   3)  ---------------------------------------


    TRIAL :  cpu time      0.9882: real time      0.9886
    CORREC:  cpu time      0.0004: real time      0.0004
    --------------------------------------------
      LOOP:  cpu time      1.0016: real time      1.0178

 eigenvalue-minimisations  :  6248
 total energy-change (2. order) :-0.9859161E+02  (-0.9761024E+02)
 number of electron      68.0000000 magnetization 
 augmentation part       68.0000000 magnetization 

 Free energy of the ion-electron system (eV)
  ---------------------------------------------------
  alpha Z        PSCENC =        81.91423797
  Ewald energy   TEWEN  =     -2364.59881513
  -Hartree energ DENC   =     -1465.29363950
  -exchange      EXHF   =         0.00000000
  -V(xc)+E(xc)   XCENC  =       244.87535085
  PAW double counting   =      3243.81225134    -3226.30207356
  entropy T*S    EENTRO =        -0.00000000
  eigenvalues    EBANDS =      -736.77544934
  atomic energy  EATOM  =      4129.93638465
  ---------------------------------------------------
  free energy    TOTEN  =       -92.43175274 eV

  energy without entropy =      -92.43175274  energy(sigma->0) =      -92.43175274


--------------------------------------------------------------------------------------------------------




--------------------------------------- Iteration      1(   4)  ---------------------------------------


    TRIAL :  cpu time      1.1250: real time      1.1254
    CORREC:  cpu time      0.0004: real time      0.0004
    --------------------------------------------
      LOOP:  cpu time      1.1383: real time      1.1553

 eigenvalue-minimisations  :  7328
 total energy-change (2. order) :-0.3112462E+01  (-0.3098852E+01)
 number of electron      68.0000000 magnetization 
 augmentation part       68.0000000 magnetization 

 Free energy of the ion-electron system (eV)
  ---------------------------------------------------
  alpha Z        PSCENC =        81.91423797
  Ewald energy   TEWEN  =     -2364.59881513
  -Hartree energ DENC   =     -1465.29363950
  -exchange      EXHF   =         0.00000000
  -V(xc)+E(xc)   XCENC  =       244.87535085
  PAW double counting   =      3243.81225134    -3226.30207356
  entropy T*S    EENTRO =        -0.00000000
  eigenvalues    EBANDS =      -739.88791172
  atomic energy  EATOM  =      4129.93638465
  ---------------------------------------------------
  free energy    TOTEN  =       -95.54421512 eV

  energy without entropy =      -95.54421512  energy(sigma->0) =      -95.54421512


--------------------------------------------------------------------------------------------------------




--------------------------------------- Iteration      1(   5)  ---------------------------------------


    TRIAL :  cpu time      1.0461: real time      1.0465
    CORREC:  cpu time      0.0004: real time      0.0004
    CHARGE:  cpu time      0.0789: real time      0.0791
    --------------------------------------------
      LOOP:  cpu time      1.1375: real time      1.1547

 eigenvalue-minimisations  :  6728
 total energy-change (2. order) :-0.8063394E-01  (-0.8058494E-01)
 number of electron      68.0000001 magnetization 
 augmentation part        0.6526289 magnetization 

 Free energy of the ion-electron system (eV)
  ---------------------------------------------------
  alpha Z        PSCENC =        81.91423797
  Ewald energy   TEWEN  =     -2364.59881513
  -Hartree energ DENC   =     -1465.29363950
  -exchange      EXHF   =         0.00000000
  -V(xc)+E(xc)   XCENC  =       244.87535085
  PAW double counting   =      3243.81225134    -3226.30207356
  entropy T*S    EENTRO =        -0.00000000
  eigenvalues    EBANDS =      -739.96854566
  atomic energy  EATOM  =      4129.93638465
  ---------------------------------------------------
  free energy    TOTEN  =       -95.62484906 eV

  energy without entropy =      -95.62484906  energy(sigma->0) =      -95.62484906


--------------------------------------------------------------------------------------------------------




--------------------------------------- Iteration      1(   6)  ---------------------------------------


    POTLOK:  cpu time      0.5886: real time      0.5891
    SETDIJ:  cpu time      0.0659: real time      0.0659
    TRIAL :  cpu time      0.5969: real time      0.5980
    CORREC:  cpu time      1.0243: real time      1.0250
    CHARGE:  cpu time      0.0648: real time      0.0648
    --------------------------------------------
      LOOP:  cpu time      2.3581: real time      2.3713

 eigenvalue-minimisations  :     0
 total energy-change (2. order) : 0.1883082E+02  (-0.9987523E+01)
 number of electron      68.0000001 magnetization 
 augmentation part        0.4530538 magnetization 

 Free energy of the ion-electron system (eV)
  ---------------------------------------------------
  alpha Z        PSCENC =        81.91423797
  Ewald energy   TEWEN  =     -2364.59881513
  -Hartree energ DENC   =     -1769.72130682
  -exchange      EXHF   =         0.00000000
  -V(xc)+E(xc)   XCENC  =       265.38718576
  PAW double counting   =     27903.19938768   -27891.66807147
  entropy T*S    EENTRO =        -0.00000000
  eigenvalues    EBANDS =      -431.24303031
  atomic energy  EATOM  =      4129.93638465
  ---------------------------------------------------
  free energy    TOTEN  =       -76.79402768 eV

  energy without entropy =      -76.79402768  energy(sigma->0) =      -76.79402768


--------------------------------------------------------------------------------------------------------




--------------------------------------- Iteration      1(   7)  ---------------------------------------


    POTLOK:  cpu time      0.5887: real time      0.5887
    SETDIJ:  cpu time      0.0655: real time      0.0655
    TRIAL :  cpu time      0.5673: real time      0.5676
    CORREC:  cpu time      1.0143: real time      1.0146
    CHARGE:  cpu time      0.0654: real time      0.0654
    --------------------------------------------
      LOOP:  cpu time      2.3151: real time      2.3324

 eigenvalue-minimisations  :     0
 total energy-change (2. order) :-0.1001574E+02  (-0.1071931E+01)
 number of electron      68.0000001 magnetization 
 augmentation part        0.3832437 magnetization 

 Free energy of the ion-electron system (eV)
  ---------------------------------------------------
  alpha Z        PSCENC =        81.91423797
  Ewald energy   TEWEN  =     -2364.59881513
  -Hartree energ DENC   =     -1601.41012813
  -exchange      EXHF   =         0.00000000
  -V(xc)+E(xc)   XCENC  =       254.44413679
  PAW double counting   =     34940.35789231   -34925.89539225
  entropy T*S    EENTRO =        -0.00000000
  eigenvalues    EBANDS =      -601.55808527
  atomic energy  EATOM  =      4129.93638465
  ---------------------------------------------------
  free energy    TOTEN  =       -86.80976907 eV

  energy without entropy =      -86.80976907  energy(sigma->0) =      -86.80976907


--------------------------------------------------------------------------------------------------------




--------------------------------------- Iteration      1(   8)  ---------------------------------------


    POTLOK:  cpu time      0.5872: real time      0.5875
    SETDIJ:  cpu time      0.0669: real time      0.0669
    TRIAL :  cpu time      0.5685: real time      0.5685
    CORREC:  cpu time      1.0185: real time      1.0188
    CHARGE:  cpu time      0.0647: real time      0.0647
    --------------------------------------------
      LOOP:  cpu time      2.3216: real time      2.3366

 eigenvalue-minimisations  :     0
 total energy-change (2. order) :-0.1072643E+01  (-0.2920187E+00)
 number of electron      68.0000001 magnetization 
 augmentation part        0.3895292 magnetization 

 Free energy of the ion-electron system (eV)
  ---------------------------------------------------
  alpha Z        PSCENC =        81.91423797
  Ewald energy   TEWEN  =     -2364.59881513
  -Hartree energ DENC   =     -1605.64449702
  -exchange      EXHF   =         0.00000000
  -V(xc)+E(xc)   XCENC  =       254.39807052
  PAW double counting   =     35040.89475293   -35026.01825294
  entropy T*S    EENTRO =        -0.00000000
  eigenvalues    EBANDS =      -598.76429320
  atomic energy  EATOM  =      4129.93638465
  ---------------------------------------------------
  free energy    TOTEN  =       -87.88241224 eV

  energy without entropy =      -87.88241224  energy(sigma->0) =      -87.88241224


--------------------------------------------------------------------------------------------------------




--------------------------------------- Iteration      1(   9)  ---------------------------------------


    POTLOK:  cpu time      0.5873: real time      0.5877
    SETDIJ:  cpu time      0.0659: real time      0.0659
    TRIAL :  cpu time      0.5665: real time      0.5667
    CORREC:  cpu time      1.0139: real time      1.0141
    CHARGE:  cpu time      0.0655: real time      0.0655
    --------------------------------------------
      LOOP:  cpu time      2.3132: real time      2.3300

 eigenvalue-minimisations  :     0
 total energy-change (2. order) :-0.2920121E+00  (-0.9115347E-01)
 number of electron      68.0000001 magnetization 
 augmentation part        0.3973179 magnetization 

 Free energy of the ion-electron system (eV)
  ---------------------------------------------------
  alpha Z        PSCENC =        81.91423797
  Ewald energy   TEWEN  =     -2364.59881513
  -Hartree energ DENC   =     -1606.73443933
  -exchange      EXHF   =         0.00000000
  -V(xc)+E(xc)   XCENC  =       254.40965789
  PAW double counting   =     35397.17475473   -35382.30631033
  entropy T*S    EENTRO =        -0.00000000
  eigenvalues    EBANDS =      -597.96989475
  atomic energy  EATOM  =      4129.93638465
  ---------------------------------------------------
  free energy    TOTEN  =       -88.17442432 eV

  energy without entropy =      -88.17442432  energy(sigma->0) =      -88.17442432


--------------------------------------------------------------------------------------------------------




--------------------------------------- Iteration      1(  10)  ---------------------------------------


    POTLOK:  cpu time      0.5890: real time      0.5890
    SETDIJ:  cpu time      0.0657: real time      0.0657
    TRIAL :  cpu time      0.5676: real time      0.5680
    CORREC:  cpu time      1.0417: real time      1.0420
    CHARGE:  cpu time      0.0756: real time      0.0756
    --------------------------------------------
      LOOP:  cpu time      2.3529: real time      2.3701

 eigenvalue-minimisations  :     0
 total energy-change (2. order) :-0.9101568E-01  (-0.2579817E-01)
 number of electron      68.0000001 magnetization 
 augmentation part        0.4001635 magnetization 

 Free energy of the ion-electron system (eV)
  ---------------------------------------------------
  alpha Z        PSCENC =        81.91423797
  Ewald energy   TEWEN  =     -2364.59881513
  -Hartree energ DENC   =     -1602.10740928
  -exchange      EXHF   =         0.00000000
  -V(xc)+E(xc)   XCENC  =       254.13228169
  PAW double counting   =     35176.03290658   -35161.17931135
  entropy T*S    EENTRO =        -0.00000000
  eigenvalues    EBANDS =      -602.39571512
  atomic energy  EATOM  =      4129.93638465
  ---------------------------------------------------
  free energy    TOTEN  =       -88.26544000 eV

  energy without entropy =      -88.26544000  energy(sigma->0) =      -88.26544000


--------------------------------------------------------------------------------------------------------




--------------------------------------- Iteration      1(  11)  ---------------------------------------


    POTLOK:  cpu time      0.5905: real time      0.5909
    SETDIJ:  cpu time      0.0630: real time      0.0630
    TRIAL :  cpu time      0.5672: real time      0.5673
    CORREC:  cpu time      1.1068: real time      1.1071
    CHARGE:  cpu time      0.0658: real time      0.0660
    --------------------------------------------
      LOOP:  cpu time      2.4096: real time      2.4240

 eigenvalue-minimisations  :     0
 total energy-change (2. order) :-0.2579897E-01  (-0.7087890E-02)
 number of electron      68.0000001 magnetization 
 augmentation part        0.4002595 magnetization 

 Free energy of the ion-electron system (eV)
  ---------------------------------------------------
  alpha Z        PSCENC =        81.91423797
  Ewald energy   TEWEN  =     -2364.59881513
  -Hartree energ DENC   =     -1602.27942025
  -exchange      EXHF   =         0.00000000
  -V(xc)+E(xc)   XCENC  =       254.13877050
  PAW double counting   =     34928.56532253   -34913.74079932
  entropy T*S    EENTRO =        -0.00000000
  eigenvalues    EBANDS =      -602.22691992
  atomic energy  EATOM  =      4129.93638465
  ---------------------------------------------------
  free energy    TOTEN  =       -88.29123897 eV

  energy without entropy =      -88.29123897  energy(sigma->0) =      -88.29123897


--------------------------------------------------------------------------------------------------------




--------------------------------------- Iteration      1(  12)  ---------------------------------------


    POTLOK:  cpu time      0.5878: real time      0.5879
    SETDIJ:  cpu time      0.0660: real time      0.0660
    TRIAL :  cpu time      0.5675: real time      0.5678
    CORREC:  cpu time      1.0134: real time      1.0138
    CHARGE:  cpu time      0.0672: real time      0.0672
    --------------------------------------------
      LOOP:  cpu time      2.3161: real time      2.3319

 eigenvalue-minimisations  :     0
 total energy-change (2. order) :-0.7086452E-02  (-0.1894538E-02)
 number of electron      68.0000001 magnetization 
 augmentation part        0.3995106 magnetization 

 Free energy of the ion-electron system (eV)
  ---------------------------------------------------
  alpha Z        PSCENC =        81.91423797
  Ewald energy   TEWEN  =     -2364.59881513
  -Hartree energ DENC   =     -1601.83100556
  -exchange      EXHF   =         0.00000000
  -V(xc)+E(xc)   XCENC  =       254.10793950
  PAW double counting   =     35060.91709037   -35046.08907333
  entropy T*S    EENTRO =        -0.00000000
  eigenvalues    EBANDS =      -602.65508389
  atomic energy  EATOM  =      4129.93638465
  ---------------------------------------------------
  free energy    TOTEN  =       -88.29832542 eV

  energy without entropy =      -88.29832542  energy(sigma->0) =      -88.29832542


--------------------------------------------------------------------------------------------------------




--------------------------------------- Iteration      1(  13)  ---------------------------------------


    POTLOK:  cpu time      0.5884: real time      0.5889
    SETDIJ:  cpu time      0.0653: real time      0.0653
    TRIAL :  cpu time      0.5668: real time      0.5669
    CORREC:  cpu time      1.0141: real time      1.0144
    CHARGE:  cpu time      0.0678: real time      0.0678
    --------------------------------------------
      LOOP:  cpu time      2.3185: real time      2.3330

 eigenvalue-minimisations  :     0
 total energy-change (2. order) :-0.1893483E-02  (-0.5039933E-03)
 number of electron      68.0000001 magnetization 
 augmentation part        0.3993630 magnetization 

 Free energy of the ion-electron system (eV)
  ---------------------------------------------------
  alpha Z        PSCENC =        81.91423797
  Ewald energy   TEWEN  =     -2364.59881513
  -Hartree energ DENC   =     -1601.47721775
  -exchange      EXHF   =         0.00000000
  -V(xc)+E(xc)   XCENC  =       254.08949256
  PAW double counting   =     35157.97911518   -35143.14433108
  entropy T*S    EENTRO =        -0.00000000
  eigenvalues    EBANDS =      -602.99908530
  atomic energy  EATOM  =      4129.93638465
  ---------------------------------------------------
  free energy    TOTEN  =       -88.30021891 eV

  energy without entropy =      -88.30021891  energy(sigma->0) =      -88.30021891


--------------------------------------------------------------------------------------------------------




--------------------------------------- Iteration      1(  14)  ---------------------------------------


    POTLOK:  cpu time      0.5876: real time      0.5879
    SETDIJ:  cpu time      0.0656: real time      0.0656
    TRIAL :  cpu time      0.5671: real time      0.5671
    CORREC:  cpu time      1.0142: real time      1.0146
    CHARGE:  cpu time      0.0648: real time      0.0650
    --------------------------------------------
      LOOP:  cpu time      2.3128: real time      2.3296

 eigenvalue-minimisations  :     0
 total energy-change (2. order) :-0.5036181E-03  (-0.1599623E-03)
 number of electron      68.0000001 magnetization 
 augmentation part        0.3994045 magnetization 

 Free energy of the ion-electron system (eV)
  ---------------------------------------------------
  alpha Z        PSCENC =        81.91423797
  Ewald energy   TEWEN  =     -2364.59881513
  -Hartree energ DENC   =     -1601.48999774
  -exchange      EXHF   =         0.00000000
  -V(xc)+E(xc)   XCENC  =       254.09027021
  PAW double counting   =     35141.45506331   -35126.62045070
  entropy T*S    EENTRO =        -0.00000000
  eigenvalues    EBANDS =      -602.98741509
  atomic energy  EATOM  =      4129.93638465
  ---------------------------------------------------
  free energy    TOTEN  =       -88.30072252 eV

  energy without entropy =      -88.30072252  energy(sigma->0) =      -88.30072252


--------------------------------------------------------------------------------------------------------




--------------------------------------- Iteration      1(  15)  ---------------------------------------


    POTLOK:  cpu time      0.5955: real time      0.5956
    SETDIJ:  cpu time      0.0662: real time      0.0662
    TRIAL :  cpu time      0.5668: real time      0.5670
    CORREC:  cpu time      1.0140: real time      1.0143
    CHARGE:  cpu time      0.0657: real time      0.0657
    --------------------------------------------
      LOOP:  cpu time      2.3381: real time      2.3389

 eigenvalue-minimisations  :     0
 total energy-change (2. order) :-0.1603345E-03  (-0.6162017E-04)
 number of electron      68.0000001 magnetization 
 augmentation part        0.3994018 magnetization 

 Free energy of the ion-electron system (eV)
  ---------------------------------------------------
  alpha Z        PSCENC =        81.91423797
  Ewald energy   TEWEN  =     -2364.59881513
  -Hartree energ DENC   =     -1601.47548173
  -exchange      EXHF   =         0.00000000
  -V(xc)+E(xc)   XCENC  =       254.08832698
  PAW double counting   =     35106.59780166   -35091.76382430
  entropy T*S    EENTRO =        -0.00000000
  eigenvalues    EBANDS =      -602.99951295
  atomic energy  EATOM  =      4129.93638465
  ---------------------------------------------------
  free energy    TOTEN  =       -88.30088286 eV

  energy without entropy =      -88.30088286  energy(sigma->0) =      -88.30088286


--------------------------------------------------------------------------------------------------------




--------------------------------------- Iteration      1(  16)  ---------------------------------------


    POTLOK:  cpu time      0.5880: real time      0.5883
    SETDIJ:  cpu time      0.0660: real time      0.0660
    TRIAL :  cpu time      0.5678: real time      0.5679
    CORREC:  cpu time      1.0175: real time      1.0178
    CHARGE:  cpu time      0.0651: real time      0.0651
    --------------------------------------------
      LOOP:  cpu time      2.3177: real time      2.3356

 eigenvalue-minimisations  :     0
 total energy-change (2. order) :-0.6174319E-04  (-0.2675766E-04)
 number of electron      68.0000001 magnetization 
 augmentation part        0.3993113 magnetization 

 Free energy of the ion-electron system (eV)
  ---------------------------------------------------
  alpha Z        PSCENC =        81.91423797
  Ewald energy   TEWEN  =     -2364.59881513
  -Hartree energ DENC   =     -1601.49805615
  -exchange      EXHF   =         0.00000000
  -V(xc)+E(xc)   XCENC  =       254.08946008
  PAW double counting   =     35091.43991056   -35076.60631626
  entropy T*S    EENTRO =        -0.00000000
  eigenvalues    EBANDS =      -602.97775032
  atomic energy  EATOM  =      4129.93638465
  ---------------------------------------------------
  free energy    TOTEN  =       -88.30094460 eV

  energy without entropy =      -88.30094460  energy(sigma->0) =      -88.30094460


--------------------------------------------------------------------------------------------------------




--------------------------------------- Iteration      1(  17)  ---------------------------------------


    POTLOK:  cpu time      0.5881: real time      0.5884
    SETDIJ:  cpu time      0.0657: real time      0.0657
    TRIAL :  cpu time      0.5956: real time      0.5958
    CORREC:  cpu time      1.0145: real time      1.0148
    CHARGE:  cpu time      0.0665: real time      0.0665
    --------------------------------------------
      LOOP:  cpu time      2.3441: real time      2.3610

 eigenvalue-minimisations  :     0
 total energy-change (2. order) :-0.2656965E-04  (-0.9545359E-05)
 number of electron      68.0000001 magnetization 
 augmentation part        0.3992101 magnetization 

 Free energy of the ion-electron system (eV)
  ---------------------------------------------------
  alpha Z        PSCENC =        81.91423797
  Ewald energy   TEWEN  =     -2364.59881513
  -Hartree energ DENC   =     -1601.52056812
  -exchange      EXHF   =         0.00000000
  -V(xc)+E(xc)   XCENC  =       254.09082844
  PAW double counting   =     35098.22234093   -35083.38833185
  entropy T*S    EENTRO =        -0.00000000
  eigenvalues    EBANDS =      -602.95704806
  atomic energy  EATOM  =      4129.93638465
  ---------------------------------------------------
  free energy    TOTEN  =       -88.30097117 eV

  energy without entropy =      -88.30097117  energy(sigma->0) =      -88.30097117


--------------------------------------------------------------------------------------------------------




--------------------------------------- Iteration      1(  18)  ---------------------------------------


    POTLOK:  cpu time      0.5886: real time      0.5887
    SETDIJ:  cpu time      0.0658: real time      0.0658
    TRIAL :  cpu time      0.6345: real time      0.6349
    CORREC:  cpu time      1.0149: real time      1.0152
    CHARGE:  cpu time      0.0652: real time      0.0652
    --------------------------------------------
      LOOP:  cpu time      2.3834: real time      2.3996

 eigenvalue-minimisations  :     0
 total energy-change (2. order) :-0.9389976E-05  (-0.2738856E-05)
 number of electron      68.0000001 magnetization 
 augmentation part        0.3992028 magnetization 

 Free energy of the ion-electron system (eV)
  ---------------------------------------------------
  alpha Z        PSCENC =        81.91423797
  Ewald energy   TEWEN  =     -2364.59881513
  -Hartree energ DENC   =     -1601.51887409
  -exchange      EXHF   =         0.00000000
  -V(xc)+E(xc)   XCENC  =       254.09051292
  PAW double counting   =     35110.50925323   -35095.67444941
  entropy T*S    EENTRO =        -0.00000000
  eigenvalues    EBANDS =      -602.95923070
  atomic energy  EATOM  =      4129.93638465
  ---------------------------------------------------
  free energy    TOTEN  =       -88.30098056 eV

  energy without entropy =      -88.30098056  energy(sigma->0) =      -88.30098056


--------------------------------------------------------------------------------------------------------




--------------------------------------- Iteration      1(  19)  ---------------------------------------


    POTLOK:  cpu time      0.5873: real time      0.5875
    SETDIJ:  cpu time      0.1503: real time      0.1503
    TRIAL :  cpu time      0.5695: real time      0.5695
    CORREC:  cpu time      1.0143: real time      1.0146
    CHARGE:  cpu time      0.0655: real time      0.0655
    --------------------------------------------
      LOOP:  cpu time      2.3991: real time      2.4164

 eigenvalue-minimisations  :     0
 total energy-change (2. order) :-0.2690249E-05  (-0.7460392E-06)
 number of electron      68.0000001 magnetization 
 augmentation part        0.3991958 magnetization 

 Free energy of the ion-electron system (eV)
  ---------------------------------------------------
  alpha Z        PSCENC =        81.91423797
  Ewald energy   TEWEN  =     -2364.59881513
  -Hartree energ DENC   =     -1601.53452595
  -exchange      EXHF   =         0.00000000
  -V(xc)+E(xc)   XCENC  =       254.09151310
  PAW double counting   =     35115.23006550   -35100.39530601
  entropy T*S    EENTRO =        -0.00000000
  eigenvalues    EBANDS =      -602.94453738
  atomic energy  EATOM  =      4129.93638465
  ---------------------------------------------------
  free energy    TOTEN  =       -88.30098325 eV

  energy without entropy =      -88.30098325  energy(sigma->0) =      -88.30098325


--------------------------------------------------------------------------------------------------------




--------------------------------------- Iteration      1(  20)  ---------------------------------------


    POTLOK:  cpu time      0.5882: real time      0.5885
    SETDIJ:  cpu time      0.0655: real time      0.0655
    TRIAL :  cpu time      0.5670: real time      0.5673
    CORREC:  cpu time      1.0151: real time      1.0154
    CHARGE:  cpu time      0.0649: real time      0.0649
    --------------------------------------------
      LOOP:  cpu time      2.3184: real time      2.3319

 eigenvalue-minimisations  :     0
 total energy-change (2. order) :-0.7517119E-06  (-0.2283175E-06)
 number of electron      68.0000001 magnetization 
 augmentation part        0.3992009 magnetization 

 Free energy of the ion-electron system (eV)
  ---------------------------------------------------
  alpha Z        PSCENC =        81.91423797
  Ewald energy   TEWEN  =     -2364.59881513
  -Hartree energ DENC   =     -1601.52762108
  -exchange      EXHF   =         0.00000000
  -V(xc)+E(xc)   XCENC  =       254.09107588
  PAW double counting   =     35115.30730812   -35100.47246893
  entropy T*S    EENTRO =        -0.00000000
  eigenvalues    EBANDS =      -602.95108548
  atomic energy  EATOM  =      4129.93638465
  ---------------------------------------------------
  free energy    TOTEN  =       -88.30098400 eV

  energy without entropy =      -88.30098400  energy(sigma->0) =      -88.30098400


--------------------------------------------------------------------------------------------------------




--------------------------------------- Iteration      1(  21)  ---------------------------------------


    POTLOK:  cpu time      0.5876: real time      0.5876
    SETDIJ:  cpu time      0.0664: real time      0.0664
    TRIAL :  cpu time      0.5689: real time      0.5692
    CORREC:  cpu time      1.0152: real time      1.0155
    CHARGE:  cpu time      0.0650: real time      0.0650
    --------------------------------------------
      LOOP:  cpu time      2.3166: real time      2.3336

 eigenvalue-minimisations  :     0
[...]
     23      -4.4689      2.00000
     24      -4.3598      2.00000
     25      -3.4821      2.00000
     26      -3.3213      2.00000
     27      -2.4500      2.00000
     28      -2.1390      2.00000
     29      -2.0723      2.00000
     30      -2.0226      2.00000
     31      -1.9454      2.00000
     32      -1.8736      2.00000
     33      -0.9080      2.00000
     34      -0.8493      2.00000
     35       2.9059      0.00000
     36       3.0125      0.00000
     37       6.5737      0.00000
     38       6.6242      0.00000
     39       7.4323      0.00000
     40       8.4980      0.00000
     41       9.1101      0.00000
     42       9.1415      0.00000
     43      10.2346      0.00000
     44      10.4574      0.00000

 k-point    56 :       0.1667    0.2500   -0.4000
  band No.  band energies     occupation 
      1     -22.4665      2.00000
      2     -22.3864      2.00000
      3     -21.6165      2.00000
      4     -21.5828      2.00000
      5     -20.1380      2.00000
      6     -20.1326      2.00000
      7     -19.4666      2.00000
      8     -19.4649      2.00000
      9     -12.0505      2.00000
     10     -12.0392      2.00000
     11      -9.4814      2.00000
     12      -9.4644      2.00000
     13      -7.3804      2.00000
     14      -7.3012      2.00000
     15      -6.8174      2.00000
     16      -6.7405      2.00000
     17      -6.2174      2.00000
     18      -6.0002      2.00000
     19      -5.8105      2.00000
     20      -5.4737      2.00000
     21      -4.7429      2.00000
     22      -4.6559      2.00000
     23      -4.4689      2.00000
     24      -4.3598      2.00000
     25      -3.4821      2.00000
     26      -3.3213      2.00000
     27      -2.4500      2.00000
     28      -2.1390      2.00000
     29      -2.0723      2.00000
     30      -2.0226      2.00000
     31      -1.9454      2.00000
     32      -1.8736      2.00000
     33      -0.9080      2.00000
     34      -0.8493      2.00000
     35       2.9059      0.00000
     36       3.0125      0.00000
     37       6.5737      0.00000
     38       6.6242      0.00000
     39       7.4323      0.00000
     40       8.4958      0.00000
     41       9.1073      0.00000
     42       9.1513      0.00000
     43      10.2223      0.00000
     44      10.5181      0.00000

 k-point    57 :       0.0000    0.5000    0.4000
  band No.  band energies     occupation 
      1     -22.4689      2.00000
      2     -22.4689      2.00000
      3     -21.5426      2.00000
      4     -21.5426      2.00000
      5     -20.1815      2.00000
      6     -20.1815      2.00000
      7     -19.4016      2.00000
      8     -19.4016      2.00000
      9     -12.2088      2.00000
     10     -12.2088      2.00000
     11      -9.5161      2.00000
     12      -9.5161      2.00000
     13      -7.0258      2.00000
     14      -7.0258      2.00000
     15      -6.8974      2.00000
     16      -6.8974      2.00000
     17      -6.0933      2.00000
     18      -6.0933      2.00000
     19      -5.6816      2.00000
     20      -5.6816      2.00000
     21      -4.6108      2.00000
     22      -4.6108      2.00000
     23      -4.0059      2.00000
     24      -4.0059      2.00000
     25      -3.7193      2.00000
     26      -3.7193      2.00000
     27      -2.3026      2.00000
     28      -2.3026      2.00000
     29      -2.1379      2.00000
     30      -2.1379      2.00000
     31      -1.9151      2.00000
     32      -1.9151      2.00000
     33      -0.8590      2.00000
     34      -0.8590      2.00000
     35       2.8220      0.00000
     36       2.8220      0.00000
     37       6.6812      0.00000
     38       6.6812      0.00000
     39       8.0531      0.00000
     40       8.0534      0.00000
     41       8.9945      0.00000
     42       8.9968      0.00000
     43       9.9433      0.00000
     44      10.0199      0.00000

 k-point    58 :       0.1667    0.5000    0.4000
  band No.  band energies     occupation 
      1     -22.4192      2.00000
      2     -22.4192      2.00000
      3     -21.6072      2.00000
      4     -21.6072      2.00000
      5     -20.1443      2.00000
      6     -20.1443      2.00000
      7     -19.4581      2.00000
      8     -19.4581      2.00000
      9     -12.0414      2.00000
     10     -12.0414      2.00000
     11      -9.4812      2.00000
     12      -9.4812      2.00000
     13      -7.3102      2.00000
     14      -7.3102      2.00000
     15      -6.7800      2.00000
     16      -6.7800      2.00000
     17      -6.0319      2.00000
     18      -6.0319      2.00000
     19      -5.8110      2.00000
     20      -5.8110      2.00000
     21      -4.6923      2.00000
     22      -4.6923      2.00000
     23      -4.3814      2.00000
     24      -4.3814      2.00000
     25      -3.3478      2.00000
     26      -3.3478      2.00000
     27      -2.2199      2.00000
     28      -2.2199      2.00000
     29      -2.0839      2.00000
     30      -2.0839      2.00000
     31      -1.9478      2.00000
     32      -1.9478      2.00000
     33      -0.8714      2.00000
     34      -0.8714      2.00000
     35       2.8945      0.00000
     36       2.8945      0.00000
     37       6.6154      0.00000
     38       6.6154      0.00000
     39       8.3481      0.00000
     40       8.3485      0.00000
     41       8.8955      0.00000
     42       8.8969      0.00000
     43       9.6789      0.00000
     44       9.7007      0.00000

 k-point    59 :       0.3333    0.5000    0.4000
  band No.  band energies     occupation 
      1     -22.2960      2.00000
      2     -22.2960      2.00000
      3     -21.7603      2.00000
      4     -21.7603      2.00000
      5     -20.0267      2.00000
      6     -20.0267      2.00000
      7     -19.6124      2.00000
      8     -19.6124      2.00000
      9     -11.6418      2.00000
     10     -11.6418      2.00000
     11      -9.5064      2.00000
     12      -9.5064      2.00000
     13      -7.6703      2.00000
     14      -7.6703      2.00000
     15      -6.6483      2.00000
     16      -6.6483      2.00000
     17      -6.1600      2.00000
     18      -6.1600      2.00000
     19      -5.8262      2.00000
     20      -5.8262      2.00000
     21      -4.9670      2.00000
     22      -4.9670      2.00000
     23      -4.6193      2.00000
     24      -4.6193      2.00000
     25      -3.0548      2.00000
     26      -3.0548      2.00000
     27      -2.1434      2.00000
     28      -2.1434      2.00000
     29      -2.1216      2.00000
     30      -2.1216      2.00000
     31      -1.9448      2.00000
     32      -1.9448      2.00000
     33      -0.7555      2.00000
     34      -0.7555      2.00000
     35       3.1066      0.00000
     36       3.1066      0.00000
     37       6.4391      0.00000
     38       6.4391      0.00000
     39       8.4430      0.00000
     40       8.4433      0.00000
     41       8.9304      0.00000
     42       8.9341      0.00000
     43       9.8300      0.00000
     44       9.8403      0.00000

 k-point    60 :       0.5000    0.5000    0.4000
  band No.  band energies     occupation 
      1     -22.2040      2.00000
      2     -22.2040      2.00000
      3     -21.8673      2.00000
      4     -21.8673      2.00000
      5     -19.8770      2.00000
      6     -19.8770      2.00000
      7     -19.7795      2.00000
      8     -19.7795      2.00000
      9     -11.3828      2.00000
     10     -11.3828      2.00000
     11      -9.6191      2.00000
     12      -9.6191      2.00000
     13      -7.7434      2.00000
     14      -7.7434      2.00000
     15      -6.5900      2.00000
     16      -6.5900      2.00000
     17      -6.4026      2.00000
     18      -6.4026      2.00000
     19      -5.6632      2.00000
     20      -5.6632      2.00000
     21      -5.1032      2.00000
     22      -5.1032      2.00000
     23      -4.7308      2.00000
     24      -4.7308      2.00000
     25      -2.9496      2.00000
     26      -2.9496      2.00000
     27      -2.2214      2.00000
     28      -2.2214      2.00000
     29      -2.0858      2.00000
     30      -2.0858      2.00000
     31      -1.9645      2.00000
     32      -1.9645      2.00000
     33      -0.6345      2.00000
     34      -0.6345      2.00000
     35       3.2524      0.00000
     36       3.2524      0.00000
     37       6.3212      0.00000
     38       6.3212      0.00000
     39       8.1789      0.00000
     40       8.1790      0.00000
     41       9.1191      0.00000
     42       9.1217      0.00000
     43      10.3966      0.00000
     44      10.7681      0.00000

 k-point    61 :      -0.3333    0.5000    0.4000
  band No.  band energies     occupation 
      1     -22.3065      2.00000
      2     -22.3065      2.00000
      3     -21.7492      2.00000
      4     -21.7492      2.00000
      5     -20.0125      2.00000
      6     -20.0125      2.00000
      7     -19.6263      2.00000
      8     -19.6263      2.00000
      9     -11.6462      2.00000
     10     -11.6462      2.00000
     11      -9.4979      2.00000
     12      -9.4979      2.00000
     13      -7.6787      2.00000
     14      -7.6787      2.00000
     15      -6.5603      2.00000
     16      -6.5603      2.00000
     17      -6.3722      2.00000
     18      -6.3722      2.00000
     19      -5.6431      2.00000
     20      -5.6431      2.00000
     21      -4.9853      2.00000
     22      -4.9853      2.00000
     23      -4.6528      2.00000
     24      -4.6528      2.00000
     25      -3.0726      2.00000
     26      -3.0726      2.00000
     27      -2.2812      2.00000
     28      -2.2812      2.00000
     29      -2.0361      2.00000
     30      -2.0361      2.00000
     31      -1.8944      2.00000
     32      -1.8944      2.00000
     33      -0.7617      2.00000
     34      -0.7617      2.00000
     35       3.1700      0.00000
     36       3.1700      0.00000
     37       6.3971      0.00000
     38       6.3971      0.00000
     39       8.1595      0.00000
     40       8.1596      0.00000
     41       9.0382      0.00000
     42       9.0389      0.00000
     43      10.6140      0.00000
     44      10.6665      0.00000

 k-point    62 :      -0.1667    0.5000    0.4000
  band No.  band energies     occupation 
      1     -22.4262      2.00000
      2     -22.4262      2.00000
      3     -21.5995      2.00000
      4     -21.5995      2.00000
      5     -20.1362      2.00000
      6     -20.1362      2.00000
      7     -19.4660      2.00000
      8     -19.4660      2.00000
      9     -12.0445      2.00000
     10     -12.0445      2.00000
     11      -9.4734      2.00000
     12      -9.4734      2.00000
     13      -7.3742      2.00000
     14      -7.3742      2.00000
     15      -6.6727      2.00000
     16      -6.6727      2.00000
     17      -6.1638      2.00000
     18      -6.1638      2.00000
     19      -5.6846      2.00000
     20      -5.6846      2.00000
     21      -4.7409      2.00000
     22      -4.7408      2.00000
     23      -4.3692      2.00000
     24      -4.3692      2.00000
     25      -3.3667      2.00000
     26      -3.3667      2.00000
     27      -2.3220      2.00000
     28      -2.3220      2.00000
     29      -2.0401      2.00000
     30      -2.0401      2.00000
     31      -1.8938      2.00000
     32      -1.8938      2.00000
     33      -0.8788      2.00000
     34      -0.8788      2.00000
     35       2.9532      0.00000
     36       2.9532      0.00000
     37       6.5791      0.00000
     38       6.5791      0.00000
     39       8.1153      0.00000
     40       8.1162      0.00000
     41       8.9757      0.00000
     42       8.9926      0.00000
     43      10.1903      0.00000
     44      10.5468      0.00000


--------------------------------------------------------------------------------------------------------


 soft charge-density along one line, spin component           1
         0         1         2         3         4         5         6         7         8         9
 total charge-density along one line

 pseudopotential strength for first ion, spin component:           1
 12.609  21.217  -0.003   0.004   0.009  -0.005   0.008   0.015
 21.217  35.701  -0.004   0.007   0.014  -0.008   0.013   0.026
 -0.003  -0.004  -3.229  -0.004   0.001  -5.785  -0.007   0.002
  0.004   0.007  -0.004  -3.226  -0.001  -0.007  -5.780  -0.002
  0.009   0.014   0.001  -0.001  -3.220   0.002  -0.002  -5.769
 -0.005  -0.008  -5.785  -0.007   0.002 -10.343  -0.013   0.003
  0.008   0.013  -0.007  -5.780  -0.002  -0.013 -10.334  -0.003
  0.015   0.026   0.002  -0.002  -5.769   0.003  -0.003 -10.314
 total augmentation occupancy for first ion, spin component:           1
  7.567  -2.804   0.475  -0.555   1.732  -0.210   0.245  -0.791
 -2.804   1.174  -0.206   0.235  -0.883   0.093  -0.108   0.377
  0.475  -0.206   4.533  -2.950   0.498  -1.470   1.247  -0.208
 -0.555   0.235  -2.950   6.759  -0.592   1.247  -2.412   0.251
  1.732  -0.883   0.498  -0.592   5.920  -0.208   0.250  -1.926
 -0.210   0.093  -1.470   1.247  -0.208   0.509  -0.519   0.089
  0.245  -0.108   1.247  -2.412   0.250  -0.519   0.901  -0.109
 -0.791   0.377  -0.208   0.251  -1.926   0.089  -0.109   0.665


------------------------ aborting loop because EDIFF is reached ----------------------------------------


    FORLOC:  cpu time      0.0045: real time      0.0045
    FORNL :  cpu time      0.1846: real time      0.1849
    FORCOR:  cpu time      0.6543: real time      0.6547
    OFIELD:  cpu time      0.0018: real time      0.0024

 VOLUME and BASIS-vectors are now :
 -----------------------------------------------------------------------------
  energy-cutoff  :     1000.00
  volume of cell :      156.87
      direct lattice vectors                 reciprocal lattice vectors
     5.330000000  0.000000000  0.000000000     0.187617261 -0.000000000  0.090819072
     0.000000000  6.015000000  0.000000000     0.000000000  0.166251039 -0.000000000
    -2.368480000  0.000000000  4.892890000     0.000000000  0.000000000  0.204378190

  length of vectors
     5.330000000  6.015000000  5.435997614     0.208442655  0.166251039  0.204378190


 FORCES acting on ions:
    Electron-Ion                     Ewald-Force                    Non-Local-Force
 -----------------------------------------------------------------------------------------------
   0.552E+02 0.128E+02 -.110E+02   -.601E+02 -.109E+02 0.803E+01   0.493E+01 -.202E+01 0.313E+01
   -.552E+02 -.128E+02 0.110E+02   0.601E+02 0.109E+02 -.803E+01   -.493E+01 0.202E+01 -.313E+01
   -.552E+02 0.128E+02 0.110E+02   0.601E+02 -.109E+02 -.803E+01   -.493E+01 -.202E+01 -.313E+01
   0.552E+02 -.128E+02 -.110E+02   -.601E+02 0.109E+02 0.803E+01   0.493E+01 0.202E+01 0.313E+01
   -.516E+02 0.338E+01 -.104E+02   0.584E+02 -.329E+01 0.103E+02   -.676E+01 -.846E-01 0.644E-01
   0.516E+02 -.338E+01 0.104E+02   -.584E+02 0.329E+01 -.103E+02   0.676E+01 0.846E-01 -.644E-01
   0.516E+02 0.338E+01 0.104E+02   -.584E+02 -.329E+01 -.103E+02   0.676E+01 -.846E-01 -.644E-01
   -.516E+02 -.338E+01 -.104E+02   0.584E+02 0.329E+01 0.103E+02   -.676E+01 0.846E-01 0.644E-01
   -.791E+02 -.930E+02 0.154E+03   0.970E+02 0.119E+03 -.192E+03   -.180E+02 -.261E+02 0.376E+02
   -.307E+02 0.910E+02 -.151E+03   0.145E+02 -.116E+03 0.189E+03   0.163E+02 0.252E+02 -.373E+02
   0.791E+02 0.930E+02 -.154E+03   -.970E+02 -.119E+03 0.192E+03   0.180E+02 0.261E+02 -.376E+02
   0.307E+02 -.910E+02 0.151E+03   -.145E+02 0.116E+03 -.189E+03   -.163E+02 -.252E+02 0.373E+02
   0.791E+02 -.930E+02 -.154E+03   -.970E+02 0.119E+03 0.192E+03   0.180E+02 -.261E+02 -.376E+02
   -.791E+02 0.930E+02 0.154E+03   0.970E+02 -.119E+03 -.192E+03   -.180E+02 0.261E+02 0.376E+02
   0.307E+02 0.910E+02 0.151E+03   -.145E+02 -.116E+03 -.189E+03   -.163E+02 0.252E+02 0.373E+02
   -.307E+02 -.910E+02 -.151E+03   0.145E+02 0.116E+03 0.189E+03   0.163E+02 -.252E+02 -.373E+02
 -----------------------------------------------------------------------------------------------
   0.545E-06 0.850E-05 -.311E-05   -.533E-13 0.142E-13 0.568E-13   0.000E+00 0.000E+00 -.711E-14


 POSITION                                       TOTAL-FORCE (eV/Angst)
 -----------------------------------------------------------------------------------
     -1.59862      0.01834      4.88466         0.007426      0.000763     -0.002597
      4.56014      5.99666      0.00823        -0.007426     -0.000763      0.002597
      3.37590      3.02584      2.45467        -0.007389      0.000739      0.002559
     -0.41438      2.98916      2.43822         0.007389     -0.000739     -0.002559
      2.31294      5.40473      0.93895         0.010288      0.002275      0.004178
      0.64858      0.61027      3.95394        -0.010288     -0.002275     -0.004178
      1.83282      2.39723      1.50749        -0.010275      0.002274     -0.004180
      1.12870      3.61777      3.38540         0.010275     -0.002274      0.004180
     -0.98134      0.63432      4.01775        -0.009676     -0.010396      0.011023
      1.29558      5.36572      0.99010        -0.008132      0.006278     -0.002017
      3.94286      5.38068      0.87514         0.009676      0.010396     -0.011023
      1.66594      0.64928      3.90279         0.008132     -0.006278      0.002017
      2.75862      3.64182      3.32158         0.009664     -0.010379     -0.011003
      0.20290      2.37318      1.57131        -0.009664      0.010379      0.011003
      2.85018      2.35822      1.45634         0.008124      0.006279      0.002016
      0.11134      3.65678      3.43655        -0.008124     -0.006279     -0.002016
 -----------------------------------------------------------------------------------
    total drift:                                0.000001      0.000008     -0.000003


--------------------------------------------------------------------------------------------------------



  FREE ENERGIE OF THE ION-ELECTRON SYSTEM (eV)
  ---------------------------------------------------
  free  energy   TOTEN  =       -88.30098432 eV

  energy  without entropy=      -88.30098432  energy(sigma->0) =      -88.30098432



--------------------------------------------------------------------------------------------------------


    POTLOK:  cpu time      0.6700: real time      0.6701


--------------------------------------------------------------------------------------------------------


 stress matrix after NEB project (eV)
      0.00000      0.00000      0.00000
      0.00000      0.00000      0.00000
      0.00000      0.00000      0.00000
  FORCES: max atom, RMS     0.017978    0.012477
  FORCE total and by dimension    0.049907    0.011023
  Stress total and by dimension    0.000000    0.000000
     LOOP+:  cpu time     50.7238: real time     51.0867
    4ORBIT:  cpu time      0.0000: real time      0.0000

 total amount of memory used by VASP MPI-rank0    48565. kBytes
=======================================================================

   base      :      30000. kBytes
   nonl-proj :       4426. kBytes
   fftplans  :        741. kBytes
   grid      :       1218. kBytes
   one-center:          3. kBytes
   wavefun   :      12177. kBytes

  
  
 General timing and accounting informations for this job:
 ========================================================
  
                  Total CPU time used (sec):       59.276
                            User time (sec):       57.528
                          System time (sec):        1.748
                         Elapsed time (sec):       63.111
  
                   Maximum memory used (kb):      300276.
                   Average memory used (kb):          N/A
  
                          Minor page faults:       101209
                          Major page faults:          478
                 Voluntary context switches:         3651
