 vasp.6.4.1 05Apr23 (build Jun  6 2023 14:36:51) complex                         
 executed on        HPECrayEX_GCC date 2024.08.20  14:27:26
 running  256 mpi-ranks, with    1 threads/rank, on    2 nodes
 distrk:  each k-point on  256 cores,    1 groups
 distr:  one band on NCORE=   2 cores,  128 groups


--------------------------------------------------------------------------------------------------------


 INCAR:
   ALGO = Conjugate
   NCORE = 2
   PREC = Accurate
   EDIFF = 1E-7
   ENCUT = 1000
   ISMEAR = 0
   SIGMA = 0.01
   ISIF = 0
   SYMPREC = 1E-7
   GGA = B5
   ALDAX = 1.0
   AGGAX = 1.0
   AGGAC = 1.0
   ALDAC = 0.0
   IVDW = 11
   VDW_S8 = 1.682
   VDW_SR = 1.094
   LWAVE = .FALSE.
   LCHARGE = .FALSE.
   LWAVE = .FALSE.
   LCHARGE = .FALSE.

 POTCAR:    PAW_PBE C_h 06Feb2004                 
 POTCAR:    PAW_PBE H_h 06Feb2004                 
 POTCAR:    PAW_PBE O_h 06Feb2004                 
 POTCAR:    PAW_PBE C_h 06Feb2004                 
   VRHFIN =C: s2p2                                                                                  
   LEXCH  = PE                                                                                      
   EATOM  =   147.1560 eV,   10.8157 Ry                                                             
                                                                                                    
   TITEL  = PAW_PBE C_h 06Feb2004                                                                   
   LULTRA =        F    use ultrasoft PP ?                                                          
   IUNSCR =        1    unscreen: 0-lin 1-nonlin 2-no                                               
   RPACOR =    0.800    partial core radius                                                         
   POMASS =   12.011; ZVAL   =    4.000    mass and valenz                                          
   RCORE  =    1.100    outmost cutoff radius                                                       
   RWIGS  =    1.630; RWIGS  =    0.863    wigner-seitz radius (au A)                               
   ENMAX  =  700.000; ENMIN  =  500.000 eV                                                          
   ICORE  =        2    local potential                                                             
   LCOR   =        T    correct aug charges                                                         
   LPAW   =        T    paw PP                                                                      
   EAUG   =  946.768                                                                                
   DEXC   =    0.000                                                                                
   RMAX   =    1.128    core radius for proj-oper                                                   
   RAUG   =    1.300    factor for augmentation sphere                                              
   RDEP   =    1.162    radius for radial grids                                                     
   RDEPT  =    1.088    core radius for aug-charge                                                  
                                                                                                    
   Atomic configuration                                                                             
    4 entries                                                                                       
     n  l   j            E        occ.                                                              
     1  0  0.50      -273.3789   2.0000                                                             
     2  0  0.50       -13.7508   2.0000                                                             
     2  1  0.50        -5.2854   2.0000                                                             
     3  2  1.50        -5.4423   0.0000                                                             
   Description                                                                                      
     l       E           TYP  RCUT    TYP  RCUT                                                     
     0    -13.7508458     23  1.100                                                                 
     0     -8.2022199     23  1.100                                                                 
     1     -5.2854383     23  1.100                                                                 
     1      1.1560700     23  1.100                                                                 
     2     -5.4423304      7  1.100                                                                 
  local pseudopotential read in
  partial core-charges read in
  partial kinetic energy density read in
  atomic valenz-charges read in
  non local Contribution for L=           0  read in
    real space projection operators read in
  non local Contribution for L=           0  read in
    real space projection operators read in
  non local Contribution for L=           1  read in
    real space projection operators read in
  non local Contribution for L=           1  read in
    real space projection operators read in
    PAW grid and wavefunctions read in

   number of l-projection  operators is LMAX  =           4
   number of lm-projection operators is LMMAX =           8

 POTCAR:    PAW_PBE H_h 06Feb2004                 
   VRHFIN =H: ultrasoft test                                                                        
   LEXCH  = PE                                                                                      
   EATOM  =    12.4884 eV,    0.9179 Ry                                                             
                                                                                                    
   TITEL  = PAW_PBE H_h 06Feb2004                                                                   
   LULTRA =        F    use ultrasoft PP ?                                                          
   IUNSCR =        0    unscreen: 0-lin 1-nonlin 2-no                                               
   RPACOR =    0.000    partial core radius                                                         
   POMASS =    1.000; ZVAL   =    1.000    mass and valenz                                          
   RCORE  =    0.800    outmost cutoff radius                                                       
   RWIGS  =    0.700; RWIGS  =    0.370    wigner-seitz radius (au A)                               
   ENMAX  =  700.000; ENMIN  =  350.000 eV                                                          
   RCLOC  =    0.701    cutoff for local pot                                                        
   LCOR   =        T    correct aug charges                                                         
   LPAW   =        T    paw PP                                                                      
   EAUG   = 1000.000                                                                                
   RMAX   =    0.819    core radius for proj-oper                                                   
   RAUG   =    1.000    factor for augmentation sphere                                              
   RDEP   =    0.817    radius for radial grids                                                     
   RDEPT  =    0.817    core radius for aug-charge                                                  
                                                                                                    
   Atomic configuration                                                                             
    2 entries                                                                                       
     n  l   j            E        occ.                                                              
     1  0  0.50        -6.4927   1.0000                                                             
     2  1  0.50        -3.4015   0.0000                                                             
   Description                                                                                      
     l       E           TYP  RCUT    TYP  RCUT                                                     
     0     -6.4927493     23  0.800                                                                 
     0      6.8029130     23  0.800                                                                 
     1     -6.8029130     23  0.800                                                                 
  local pseudopotential read in
  atomic valenz-charges read in
  non local Contribution for L=           0  read in
    real space projection operators read in
  non local Contribution for L=           0  read in
    real space projection operators read in
  non local Contribution for L=           1  read in
    real space projection operators read in
    PAW grid and wavefunctions read in

   number of l-projection  operators is LMAX  =           3
   number of lm-projection operators is LMMAX =           5

 POTCAR:    PAW_PBE O_h 06Feb2004                 
   VRHFIN =O: s2p4                                                                                  
   LEXCH  = PE                                                                                      
   EATOM  =   432.3788 eV,   31.7789 Ry                                                             
                                                                                                    
   TITEL  = PAW_PBE O_h 06Feb2004                                                                   
   LULTRA =        F    use ultrasoft PP ?                                                          
   IUNSCR =        1    unscreen: 0-lin 1-nonlin 2-no                                               
   RPACOR =    0.800    partial core radius                                                         
   POMASS =   16.000; ZVAL   =    6.000    mass and valenz                                          
   RCORE  =    1.100    outmost cutoff radius                                                       
   RWIGS  =    1.400; RWIGS  =    0.741    wigner-seitz radius (au A)                               
   ENMAX  =  700.000; ENMIN  =  500.000 eV                                                          
   ICORE  =        2    local potential                                                             
   LCOR   =        T    correct aug charges                                                         
   LPAW   =        T    paw PP                                                                      
   EAUG   =  888.804                                                                                
   DEXC   =    0.000                                                                                
   RMAX   =    1.128    core radius for proj-oper                                                   
   RAUG   =    1.300    factor for augmentation sphere                                              
   RDEP   =    1.125    radius for radial grids                                                     
   RDEPT  =    1.088    core radius for aug-charge                                                  
                                                                                                    
   Atomic configuration                                                                             
    4 entries                                                                                       
     n  l   j            E        occ.                                                              
     1  0  0.50      -514.6923   2.0000                                                             
     2  0  0.50       -23.9615   2.0000                                                             
     2  1  0.50        -9.0305   4.0000                                                             
     3  2  1.50        -9.5241   0.0000                                                             
   Description                                                                                      
     l       E           TYP  RCUT    TYP  RCUT                                                     
     0    -23.9615319     23  1.100                                                                 
     0    -25.3221145     23  1.100                                                                 
     1     -9.0304911     23  1.100                                                                 
     1     -5.4802209     23  1.100                                                                 
     2     -9.5240782      7  1.100                                                                 
  local pseudopotential read in
  partial core-charges read in
  partial kinetic energy density read in
  atomic valenz-charges read in
  non local Contribution for L=           0  read in
    real space projection operators read in
  non local Contribution for L=           0  read in
    real space projection operators read in
  non local Contribution for L=           1  read in
    real space projection operators read in
  non local Contribution for L=           1  read in
    real space projection operators read in
    PAW grid and wavefunctions read in

   number of l-projection  operators is LMAX  =           4
   number of lm-projection operators is LMMAX =           8

 -----------------------------------------------------------------------------
|                                                                             |
|               ----> ADVICE to this user running VASP <----                  |
|                                                                             |
|     You enforced a specific xc type in the INCAR file but a different       |
|     type was found in the POTCAR file.                                      |
|     I HOPE YOU KNOW WHAT YOU ARE DOING!                                     |
|                                                                             |
 -----------------------------------------------------------------------------

  PAW_PBE C_h 06Feb2004                 :
 energy of atom  1       EATOM= -147.1560
 kinetic energy error for atom=    0.0031 (will be added to EATOM!!)
  PAW_PBE H_h 06Feb2004                 :
 energy of atom  2       EATOM=  -12.4884
 kinetic energy error for atom=    0.0006 (will be added to EATOM!!)
  PAW_PBE O_h 06Feb2004                 :
 energy of atom  3       EATOM= -432.3788
 kinetic energy error for atom=    0.0171 (will be added to EATOM!!)


 POSCAR:  C  H  O
  positions in cartesian coordinates
  No initial velocities read in
 exchange correlation table for  LEXCH =       12
   RHO(1)=    0.500       N(1)  =     2000
   RHO(2)=  100.500       N(2)  =     4000

 VTST: version 4.1, (05/19/21)

 CHAIN: initializing optimizer
 
 OPT: Using VASP Dynamics algorithm
 CHAIN: Read ICHAIN            0

 POSCAR:  C  H  O
  positions in cartesian coordinates
  No initial velocities read in



--------------------------------------------------------------------------------------------------------


 ion  position               nearest neighbor table
   1  0.144  0.003  0.998-   9 1.23  10 1.31   2 1.54
   2  0.856  0.997  0.002-  11 1.23  12 1.31   1 1.54
   3  0.856  0.503  0.502-  13 1.23  15 1.31   4 1.54
   4  0.144  0.497  0.498-  14 1.23  16 1.31   3 1.54
   5  0.519  0.899  0.192-  10 1.02
   6  0.481  0.101  0.808-  12 1.02
   7  0.481  0.399  0.308-  15 1.02
   8  0.519  0.601  0.692-  16 1.02
   9  0.181  0.105  0.821-   1 1.23
  10  0.333  0.892  0.202-   5 1.02   1 1.31
  11  0.819  0.895  0.179-   2 1.23
  12  0.667  0.108  0.798-   6 1.02   2 1.31
  13  0.819  0.605  0.679-   3 1.23
  14  0.181  0.395  0.321-   4 1.23
  15  0.667  0.392  0.298-   7 1.02   3 1.31
  16  0.333  0.608  0.702-   8 1.02   4 1.31

  LATTYP: Found a simple monoclinic cell.
 ALAT       =     5.3300000000
 B/A-ratio  =     1.1285178236
 C/A-ratio  =     1.0198869820
 COS(beta)  =    -0.4357029138
  
  Lattice vectors:
  
 A1 = (   5.3300000000,   0.0000000000,   0.0000000000)
 A2 = (   0.0000000000,   6.0150000000,   0.0000000000)
 A3 = (  -2.3684800000,   0.0000000000,   4.8928900000)


Analysis of symmetry for initial positions (statically):
=====================================================================
 Subroutine PRICEL returns:
 Original cell was already a primitive cell.
 

 Routine SETGRP: Setting up the symmetry group for a 
 simple monoclinic supercell.


 Subroutine GETGRP returns: Found  2 space group operations
 (whereof  2 operations were pure point group operations)
 out of a pool of  4 trial point group operations.


The static configuration has the point symmetry S_2 .


Analysis of symmetry for dynamics (positions and initial velocities):
=====================================================================
 Subroutine PRICEL returns:
 Original cell was already a primitive cell.
 

 Routine SETGRP: Setting up the symmetry group for a 
 simple monoclinic supercell.


 Subroutine GETGRP returns: Found  2 space group operations
 (whereof  2 operations were pure point group operations)
 out of a pool of  4 trial point group operations.


The dynamic configuration has the point symmetry S_2 .


 Subroutine INISYM returns: Found  2 space group operations
 (whereof  2 operations are pure point group operations),
 and found     1 'primitive' translations


----------------------------------------------------------------------------------------

                                     Primitive cell                                     

  volume of cell :     156.8658

  direct lattice vectors                    reciprocal lattice vectors
     5.330000000  0.000000000  0.000000000     0.187617261 -0.000000000  0.090819072
     0.000000000  6.015000000  0.000000000     0.000000000  0.166251039 -0.000000000
    -2.368480000  0.000000000  4.892890000     0.000000000  0.000000000  0.204378190

  length of vectors
     5.330000000  6.015000000  5.435997614     0.208442655  0.166251039  0.204378190

  position of ions in fractional coordinates (direct lattice)
     0.143691759  0.003048989  0.998318707
     0.856308241  0.996951011  0.001681293
     0.856308238  0.503048993  0.501681414
     0.143691762  0.496951006  0.498318586
     0.519222146  0.898542098  0.191901324
     0.480777854  0.101457902  0.808098676
     0.480777830  0.398542067  0.308098767
     0.519222170  0.601457933  0.691901233
     0.180772503  0.105456181  0.821140772
     0.332993439  0.892056331  0.202355363
     0.819227497  0.894543819  0.178859228
     0.667006561  0.107943669  0.797644637
     0.819227565  0.605456176  0.678859303
     0.180772436  0.394543824  0.321140697
     0.667006610  0.392056290  0.297644791
     0.332993390  0.607943710  0.702355209

  ion indices of the primitive-cell ions
   primitive index   ion index
                 1           1
                 2           2
                 3           3
                 4           4
                 5           5
                 6           6
                 7           7
                 8           8
                 9           9
                10          10
                11          11
                12          12
                13          13
                14          14
                15          15
                16          16

----------------------------------------------------------------------------------------



 KPOINTS: auto                                    

Automatic generation of k-mesh.
 Grid dimensions read from file:
 generate k-points for:    6    4    5

 Generating k-lattice:

  Cartesian coordinates                     Fractional coordinates (reciprocal lattice)
     0.031269543 -0.000000000  0.015136512     0.166666667  0.000000000 -0.000000000
     0.000000000  0.041562760 -0.000000000     0.000000000  0.250000000  0.000000000
     0.000000000  0.000000000  0.040875638     0.000000000  0.000000000  0.200000000

  Length of vectors
     0.034740442  0.041562760  0.040875638

  Shift w.r.t. Gamma in fractional coordinates (k-lattice)
     0.000000000  0.000000000  0.000000000

 
 Subroutine IBZKPT returns following result:
 ===========================================
 
 Found     62 irreducible k-points:
 
 Following reciprocal coordinates:
            Coordinates               Weight
  0.000000  0.000000  0.000000      1.000000
  0.166667  0.000000  0.000000      2.000000
  0.333333  0.000000  0.000000      2.000000
  0.500000  0.000000  0.000000      1.000000
  0.000000  0.250000  0.000000      2.000000
  0.166667  0.250000  0.000000      2.000000
 -0.166667  0.250000  0.000000      2.000000
  0.333333  0.250000  0.000000      2.000000
 -0.333333  0.250000  0.000000      2.000000
  0.500000  0.250000  0.000000      2.000000
  0.000000  0.500000  0.000000      1.000000
  0.166667  0.500000  0.000000      2.000000
  0.333333  0.500000  0.000000      2.000000
  0.500000  0.500000  0.000000      1.000000
  0.000000  0.000000  0.200000      2.000000
  0.166667  0.000000  0.200000      2.000000
  0.333333  0.000000  0.200000      2.000000
  0.500000  0.000000  0.200000      2.000000
 -0.333333  0.000000  0.200000      2.000000
 -0.166667  0.000000  0.200000      2.000000
  0.000000  0.250000  0.200000      2.000000
  0.000000  0.250000 -0.200000      2.000000
  0.166667  0.250000  0.200000      2.000000
 -0.166667  0.250000 -0.200000      2.000000
  0.333333  0.250000  0.200000      2.000000
 -0.333333  0.250000 -0.200000      2.000000
  0.500000  0.250000  0.200000      2.000000
  0.500000  0.250000 -0.200000      2.000000
 -0.333333  0.250000  0.200000      2.000000
  0.333333  0.250000 -0.200000      2.000000
 -0.166667  0.250000  0.200000      2.000000
  0.166667  0.250000 -0.200000      2.000000
  0.000000  0.500000  0.200000      2.000000
  0.166667  0.500000  0.200000      2.000000
  0.333333  0.500000  0.200000      2.000000
  0.500000  0.500000  0.200000      2.000000
 -0.333333  0.500000  0.200000      2.000000
 -0.166667  0.500000  0.200000      2.000000
  0.000000  0.000000  0.400000      2.000000
  0.166667  0.000000  0.400000      2.000000
  0.333333  0.000000  0.400000      2.000000
  0.500000  0.000000  0.400000      2.000000
 -0.333333  0.000000  0.400000      2.000000
 -0.166667  0.000000  0.400000      2.000000
  0.000000  0.250000  0.400000      2.000000
  0.000000  0.250000 -0.400000      2.000000
  0.166667  0.250000  0.400000      2.000000
 -0.166667  0.250000 -0.400000      2.000000
  0.333333  0.250000  0.400000      2.000000
 -0.333333  0.250000 -0.400000      2.000000
  0.500000  0.250000  0.400000      2.000000
  0.500000  0.250000 -0.400000      2.000000
 -0.333333  0.250000  0.400000      2.000000
  0.333333  0.250000 -0.400000      2.000000
 -0.166667  0.250000  0.400000      2.000000
  0.166667  0.250000 -0.400000      2.000000
  0.000000  0.500000  0.400000      2.000000
  0.166667  0.500000  0.400000      2.000000
  0.333333  0.500000  0.400000      2.000000
  0.500000  0.500000  0.400000      2.000000
 -0.333333  0.500000  0.400000      2.000000
 -0.166667  0.500000  0.400000      2.000000
 
 Following cartesian coordinates:
            Coordinates               Weight
  0.000000  0.000000  0.000000      1.000000
  0.031270  0.000000  0.015137      2.000000
  0.062539  0.000000  0.030273      2.000000
  0.093809  0.000000  0.045410      1.000000
  0.000000  0.041563  0.000000      2.000000
  0.031270  0.041563  0.015137      2.000000
 -0.031270  0.041563 -0.015137      2.000000
  0.062539  0.041563  0.030273      2.000000
 -0.062539  0.041563 -0.030273      2.000000
  0.093809  0.041563  0.045410      2.000000
  0.000000  0.083126  0.000000      1.000000
  0.031270  0.083126  0.015137      2.000000
  0.062539  0.083126  0.030273      2.000000
  0.093809  0.083126  0.045410      1.000000
  0.000000  0.000000  0.040876      2.000000
  0.031270  0.000000  0.056012      2.000000
  0.062539  0.000000  0.071149      2.000000
  0.093809  0.000000  0.086285      2.000000
 -0.062539  0.000000  0.010603      2.000000
 -0.031270  0.000000  0.025739      2.000000
  0.000000  0.041563  0.040876      2.000000
  0.000000  0.041563 -0.040876      2.000000
  0.031270  0.041563  0.056012      2.000000
 -0.031270  0.041563 -0.056012      2.000000
  0.062539  0.041563  0.071149      2.000000
 -0.062539  0.041563 -0.071149      2.000000
  0.093809  0.041563  0.086285      2.000000
  0.093809  0.041563  0.004534      2.000000
 -0.062539  0.041563  0.010603      2.000000
  0.062539  0.041563 -0.010603      2.000000
 -0.031270  0.041563  0.025739      2.000000
  0.031270  0.041563 -0.025739      2.000000
  0.000000  0.083126  0.040876      2.000000
  0.031270  0.083126  0.056012      2.000000
  0.062539  0.083126  0.071149      2.000000
  0.093809  0.083126  0.086285      2.000000
 -0.062539  0.083126  0.010603      2.000000
 -0.031270  0.083126  0.025739      2.000000
  0.000000  0.000000  0.081751      2.000000
  0.031270  0.000000  0.096888      2.000000
  0.062539  0.000000  0.112024      2.000000
  0.093809  0.000000  0.127161      2.000000
 -0.062539  0.000000  0.051478      2.000000
 -0.031270  0.000000  0.066615      2.000000
  0.000000  0.041563  0.081751      2.000000
  0.000000  0.041563 -0.081751      2.000000
  0.031270  0.041563  0.096888      2.000000
 -0.031270  0.041563 -0.096888      2.000000
  0.062539  0.041563  0.112024      2.000000
 -0.062539  0.041563 -0.112024      2.000000
  0.093809  0.041563  0.127161      2.000000
  0.093809  0.041563 -0.036342      2.000000
 -0.062539  0.041563  0.051478      2.000000
  0.062539  0.041563 -0.051478      2.000000
 -0.031270  0.041563  0.066615      2.000000
  0.031270  0.041563 -0.066615      2.000000
  0.000000  0.083126  0.081751      2.000000
  0.031270  0.083126  0.096888      2.000000
  0.062539  0.083126  0.112024      2.000000
  0.093809  0.083126  0.127161      2.000000
 -0.062539  0.083126  0.051478      2.000000
 -0.031270  0.083126  0.066615      2.000000
 


--------------------------------------------------------------------------------------------------------




 Dimension of arrays:
   k-points           NKPTS =     62   k-points in BZ     NKDIM =     62   number of bands    NBANDS=    128
   number of dos      NEDOS =    301   number of ions     NIONS =     16
   non local maximal  LDIM  =      4   non local SUM 2l+1 LMDIM =      8
   total plane-waves  NPLWV = 200704
   max r-space proj   IRMAX =      1   max aug-charges    IRDMAX=   9530
   dimension x,y,z NGX =    56 NGY =   64 NGZ =   56
   dimension x,y,z NGXF=   112 NGYF=  128 NGZF=  112
   support grid    NGXF=   112 NGYF=  128 NGZF=  112
   ions per type =               4   4   8
   NGX,Y,Z   is equivalent  to a cutoff of  17.47, 17.69, 17.13 a.u.
   NGXF,Y,Z  is equivalent  to a cutoff of  34.93, 35.38, 34.25 a.u.

 SYSTEM =  unknown system                          
 POSCAR =   C  H  O                                

 Startparameter for this run:
   NWRITE =      2    write-flag & timer
   PREC   = accura    normal or accurate (medium, high low for compatibility)
   ISTART =      0    job   : 0-new  1-cont  2-samecut
   ICHARG =      2    charge: 1-file 2-atom 10-const
   ISPIN  =      1    spin polarized calculation?
   LNONCOLLINEAR =      F non collinear calculations
   LSORBIT =      F    spin-orbit coupling
   INIWAV =      1    electr: 0-lowe 1-rand  2-diag
   LASPH  =      F    aspherical Exc in radial PAW
 Electronic Relaxation 1
   ENCUT  = 1000.0 eV  73.50 Ry    8.57 a.u.  13.74 15.51 14.02*2*pi/ulx,y,z
   ENINI  = 1000.0     initial cutoff
   ENAUG  = 1000.0 eV  augmentation charge cutoff
   NELM   =     60;   NELMIN=  2; NELMDL= -5     # of ELM steps 
   EDIFF  = 0.1E-06   stopping-criterion for ELM
   LREAL  =      F    real-space projection
   NLSPLINE    = F    spline interpolate recip. space projectors
   LCOMPAT=      F    compatible to vasp.4.4
   GGA_COMPAT  = T    GGA compatible to vasp.4.4-vasp.4.6
   LMAXPAW     = -100 max onsite density
   LMAXMIX     =    2 max onsite mixed and CHGCAR
   VOSKOWN=      0    Vosko Wilk Nusair interpolation
   ROPT   =    0.00000   0.00000   0.00000
 Ionic relaxation
   EDIFFG = 0.1E-05   stopping-criterion for IOM
   NSW    =      0    number of steps for IOM
   NBLOCK =      1;   KBLOCK =      1    inner block; outer block 
   IBRION =     -1    ionic relax: 0-MD 1-quasi-New 2-CG
   NFREE  =      0    steps in history (QN), initial steepest desc. (CG)
   ISIF   =      0    stress and relaxation
   IWAVPR =     10    prediction:  0-non 1-charg 2-wave 3-comb
   ISYM   =      2    0-nonsym 1-usesym 2-fastsym
   LCORR  =      T    Harris-Foulkes like correction to forces

   POTIM  = 0.5000    time-step for ionic-motion
   TEIN   =    0.0    initial temperature
   TEBEG  =    0.0;   TEEND  =   0.0 temperature during run
   SMASS  =  -3.00    Nose mass-parameter (am)
   estimated Nose-frequenzy (Omega)   =  0.10E-29 period in steps = 0.13E+47 mass=  -0.649E-27a.u.
   SCALEE = 1.0000    scale energy and forces
   NPACO  =    256;   APACO  = 10.0  distance and # of slots for P.C.
   PSTRESS=    0.0 pullay stress

  Mass of Ions in am
   POMASS =  12.01  1.00 16.00
  Ionic Valenz
   ZVAL   =   4.00  1.00  6.00
  Atomic Wigner-Seitz radii
   RWIGS  =  -1.00 -1.00 -1.00
  virtual crystal weights 
   VCA    =   1.00  1.00  1.00
   NELECT =      68.0000    total number of electrons
   NUPDOWN=      -1.0000    fix difference up-down

 DOS related values:
   EMIN   =  10.00;   EMAX   =-10.00  energy-range for DOS
   EFERMI =   0.00;   METHOD = LEGACY      
   ISMEAR =     0;   SIGMA  =   0.01  broadening in eV -4-tet -1-fermi 0-gaus

 Electronic relaxation 2 (details)
   IALGO  =     58    algorithm
   LDIAG  =      T    sub-space diagonalisation (order eigenvalues)
   LSUBROT=      F    optimize rotation matrix (better conditioning)
   TURBO    =      0    0=normal 1=particle mesh
   IRESTART =      0    0=no restart 2=restart with 2 vectors
   NREBOOT  =      0    no. of reboots
   NMIN     =      0    reboot dimension
   EREF     =   0.00    reference energy to select bands
   IMIX   =      4    mixing-type and parameters
     AMIX     =   0.40;   BMIX     =  1.00
     AMIX_MAG =   1.60;   BMIX_MAG =  1.00
     AMIN     =   0.10
     WC   =   100.;   INIMIX=   1;  MIXPRE=   1;  MAXMIX= -45

 Intra band minimization:
   WEIMIN = 0.0000     energy-eigenvalue tresh-hold
   EBREAK =  0.20E-09  absolut break condition
   DEPER  =   0.30     relativ break condition  

   TIME   =   0.40     timestep for ELM

  volume/ion in A,a.u.               =       9.80        66.16
  Fermi-wavevector in a.u.,A,eV,Ry     =   1.238992  2.341355 20.886307  1.535100
  Thomas-Fermi vector in A             =   2.373494

 Write flags
   LWAVE        =      F    write WAVECAR
   LDOWNSAMPLE  =      F    k-point downsampling of WAVECAR
   LCHARG       =      T    write CHGCAR
   LVTOT        =      F    write LOCPOT, total local potential
   LVHAR        =      F    write LOCPOT, Hartree potential only
   LELF         =      F    write electronic localiz. function (ELF)
   LORBIT       =      0    0 simple, 1 ext, 2 COOP (PROOUT), +10 PAW based schemes


 Dipole corrections
   LMONO  =      F    monopole corrections only (constant potential shift)
   LDIPOL =      F    correct potential (dipole corrections)
   IDIPOL =      0    1-x, 2-y, 3-z, 4-all directions 
   EPSILON=  1.0000000 bulk dielectric constant

 Exchange correlation treatment:
   GGA     =    B5    GGA type
   LEXCH   =    12    internal setting for exchange type
   LIBXC   =     F    Libxc                    
   VOSKOWN =     0    Vosko Wilk Nusair interpolation
   LHFCALC =     F    Hartree Fock is set to
   LHFONE  =     F    Hartree Fock one center treatment
   AEXX    =    0.0000 exact exchange contribution

 Linear response parameters
   LEPSILON=     F    determine dielectric tensor
   LRPA    =     F    only Hartree local field effects (RPA)
   LNABLA  =     F    use nabla operator in PAW spheres
   LVEL    =     F    velocity operator in full k-point grid
   CSHIFT  =0.1000    complex shift for real part using Kramers Kronig
   OMEGAMAX=  -1.0    maximum frequency
   DEG_THRESHOLD= 0.2000000E-02 threshold for treating states as degnerate
   RTIME   =   -0.100 relaxation time in fs
  (WPLASMAI=    0.000 imaginary part of plasma frequency in eV, 0.658/RTIME)
   DFIELD  = 0.0000000 0.0000000 0.0000000 field for delta impulse in time

  Optional k-point grid parameters
   LKPOINTS_OPT  =     F    use optional k-point grid
   KPOINTS_OPT_MODE=     1    mode for optional k-point grid

 Orbital magnetization related:
   ORBITALMAG=     F  switch on orbital magnetization
   LCHIMAG   =     F  perturbation theory with respect to B field
   DQ        =  0.001000  dq finite difference perturbation B field
   LLRAUG    =     F  two centre corrections for induced B field
   LBONE     =     F  B-component reconstruction in AE one-centre
   LVGVCALC  =     T  calculate vGv susceptibility
   LVGVAPPL  =     F  apply vGv susceptibility instead of pGv for G=0

 Random number generation:
   RANDOM_GENERATOR = DEFAULT
   PCG_SEED         = not used


--------------------------------------------------------------------------------------------------------


 Static calculation
 charge density and potential will be updated during run
 non-spin polarized calculation
 Conjugate gradient for all bands (Freysoldt, et al. PRB 79, 241103 (2009))
 preconditioned conjugated gradient                                        
 perform sub-space diagonalisation
    before iterative eigenvector-optimisation
 modified Broyden-mixing scheme, WC =      100.0
 initial mixing is a Kerker type mixing with AMIX =  0.4000 and BMIX =      1.0000
 Hartree-type preconditioning will be used
 using additional bands           94
 reciprocal scheme for non local part
 use partial core corrections
 no Harris-corrections to forces 
 use gradient corrections 
 use of overlap-Matrix (Vanderbilt PP)
 Gauss-broadening in eV      SIGMA  =   0.01


--------------------------------------------------------------------------------------------------------


  energy-cutoff  :     1000.00
  volume of cell :      156.87
      direct lattice vectors                 reciprocal lattice vectors
     5.330000000  0.000000000  0.000000000     0.187617261 -0.000000000  0.090819072
     0.000000000  6.015000000  0.000000000     0.000000000  0.166251039 -0.000000000
    -2.368480000  0.000000000  4.892890000     0.000000000  0.000000000  0.204378190

  length of vectors
     5.330000000  6.015000000  5.435997614     0.208442655  0.166251039  0.204378190



 k-points in units of 2pi/SCALE and weight: auto                                    
   0.00000000  0.00000000  0.00000000       0.008
   0.03126954  0.00000000  0.01513651       0.017
   0.06253909  0.00000000  0.03027302       0.017
   0.09380863  0.00000000  0.04540954       0.008
   0.00000000  0.04156276  0.00000000       0.017
   0.03126954  0.04156276  0.01513651       0.017
  -0.03126954  0.04156276 -0.01513651       0.017
   0.06253909  0.04156276  0.03027302       0.017
  -0.06253909  0.04156276 -0.03027302       0.017
   0.09380863  0.04156276  0.04540954       0.017
   0.00000000  0.08312552  0.00000000       0.008
   0.03126954  0.08312552  0.01513651       0.017
   0.06253909  0.08312552  0.03027302       0.017
   0.09380863  0.08312552  0.04540954       0.008
   0.00000000  0.00000000  0.04087564       0.017
   0.03126954  0.00000000  0.05601215       0.017
   0.06253909  0.00000000  0.07114866       0.017
   0.09380863  0.00000000  0.08628517       0.017
  -0.06253909  0.00000000  0.01060261       0.017
  -0.03126954  0.00000000  0.02573913       0.017
   0.00000000  0.04156276  0.04087564       0.017
   0.00000000  0.04156276 -0.04087564       0.017
   0.03126954  0.04156276  0.05601215       0.017
  -0.03126954  0.04156276 -0.05601215       0.017
   0.06253909  0.04156276  0.07114866       0.017
  -0.06253909  0.04156276 -0.07114866       0.017
   0.09380863  0.04156276  0.08628517       0.017
   0.09380863  0.04156276  0.00453390       0.017
  -0.06253909  0.04156276  0.01060261       0.017
   0.06253909  0.04156276 -0.01060261       0.017
  -0.03126954  0.04156276  0.02573913       0.017
   0.03126954  0.04156276 -0.02573913       0.017
   0.00000000  0.08312552  0.04087564       0.017
   0.03126954  0.08312552  0.05601215       0.017
   0.06253909  0.08312552  0.07114866       0.017
   0.09380863  0.08312552  0.08628517       0.017
  -0.06253909  0.08312552  0.01060261       0.017
  -0.03126954  0.08312552  0.02573913       0.017
   0.00000000  0.00000000  0.08175128       0.017
   0.03126954  0.00000000  0.09688779       0.017
   0.06253909  0.00000000  0.11202430       0.017
   0.09380863  0.00000000  0.12716081       0.017
  -0.06253909  0.00000000  0.05147825       0.017
  -0.03126954  0.00000000  0.06661476       0.017
   0.00000000  0.04156276  0.08175128       0.017
   0.00000000  0.04156276 -0.08175128       0.017
   0.03126954  0.04156276  0.09688779       0.017
  -0.03126954  0.04156276 -0.09688779       0.017
   0.06253909  0.04156276  0.11202430       0.017
  -0.06253909  0.04156276 -0.11202430       0.017
   0.09380863  0.04156276  0.12716081       0.017
   0.09380863  0.04156276 -0.03634174       0.017
  -0.06253909  0.04156276  0.05147825       0.017
   0.06253909  0.04156276 -0.05147825       0.017
  -0.03126954  0.04156276  0.06661476       0.017
   0.03126954  0.04156276 -0.06661476       0.017
   0.00000000  0.08312552  0.08175128       0.017
   0.03126954  0.08312552  0.09688779       0.017
   0.06253909  0.08312552  0.11202430       0.017
   0.09380863  0.08312552  0.12716081       0.017
  -0.06253909  0.08312552  0.05147825       0.017
  -0.03126954  0.08312552  0.06661476       0.017

 k-points in reciprocal lattice and weights: auto                                    
   0.00000000  0.00000000  0.00000000       0.008
   0.16666667  0.00000000  0.00000000       0.017
   0.33333333  0.00000000  0.00000000       0.017
   0.50000000  0.00000000  0.00000000       0.008
   0.00000000  0.25000000  0.00000000       0.017
   0.16666667  0.25000000  0.00000000       0.017
  -0.16666667  0.25000000  0.00000000       0.017
   0.33333333  0.25000000  0.00000000       0.017
  -0.33333333  0.25000000  0.00000000       0.017
   0.50000000  0.25000000  0.00000000       0.017
   0.00000000  0.50000000  0.00000000       0.008
   0.16666667  0.50000000  0.00000000       0.017
   0.33333333  0.50000000  0.00000000       0.017
   0.50000000  0.50000000  0.00000000       0.008
   0.00000000  0.00000000  0.20000000       0.017
   0.16666667  0.00000000  0.20000000       0.017
   0.33333333  0.00000000  0.20000000       0.017
   0.50000000  0.00000000  0.20000000       0.017
  -0.33333333  0.00000000  0.20000000       0.017
  -0.16666667  0.00000000  0.20000000       0.017
   0.00000000  0.25000000  0.20000000       0.017
   0.00000000  0.25000000 -0.20000000       0.017
   0.16666667  0.25000000  0.20000000       0.017
  -0.16666667  0.25000000 -0.20000000       0.017
   0.33333333  0.25000000  0.20000000       0.017
  -0.33333333  0.25000000 -0.20000000       0.017
   0.50000000  0.25000000  0.20000000       0.017
   0.50000000  0.25000000 -0.20000000       0.017
  -0.33333333  0.25000000  0.20000000       0.017
   0.33333333  0.25000000 -0.20000000       0.017
  -0.16666667  0.25000000  0.20000000       0.017
   0.16666667  0.25000000 -0.20000000       0.017
   0.00000000  0.50000000  0.20000000       0.017
   0.16666667  0.50000000  0.20000000       0.017
   0.33333333  0.50000000  0.20000000       0.017
   0.50000000  0.50000000  0.20000000       0.017
  -0.33333333  0.50000000  0.20000000       0.017
  -0.16666667  0.50000000  0.20000000       0.017
   0.00000000  0.00000000  0.40000000       0.017
   0.16666667  0.00000000  0.40000000       0.017
   0.33333333  0.00000000  0.40000000       0.017
   0.50000000  0.00000000  0.40000000       0.017
  -0.33333333  0.00000000  0.40000000       0.017
  -0.16666667  0.00000000  0.40000000       0.017
   0.00000000  0.25000000  0.40000000       0.017
   0.00000000  0.25000000 -0.40000000       0.017
   0.16666667  0.25000000  0.40000000       0.017
  -0.16666667  0.25000000 -0.40000000       0.017
   0.33333333  0.25000000  0.40000000       0.017
  -0.33333333  0.25000000 -0.40000000       0.017
   0.50000000  0.25000000  0.40000000       0.017
   0.50000000  0.25000000 -0.40000000       0.017
  -0.33333333  0.25000000  0.40000000       0.017
   0.33333333  0.25000000 -0.40000000       0.017
  -0.16666667  0.25000000  0.40000000       0.017
   0.16666667  0.25000000 -0.40000000       0.017
   0.00000000  0.50000000  0.40000000       0.017
   0.16666667  0.50000000  0.40000000       0.017
   0.33333333  0.50000000  0.40000000       0.017
   0.50000000  0.50000000  0.40000000       0.017
  -0.33333333  0.50000000  0.40000000       0.017
  -0.16666667  0.50000000  0.40000000       0.017

 position of ions in fractional coordinates (direct lattice) 
   0.14369176  0.00304899  0.99831871
   0.85630824  0.99695101  0.00168129
   0.85630824  0.50304899  0.50168141
   0.14369176  0.49695101  0.49831859
   0.51922215  0.89854210  0.19190132
   0.48077785  0.10145790  0.80809868
   0.48077783  0.39854207  0.30809877
   0.51922217  0.60145793  0.69190123
   0.18077250  0.10545618  0.82114077
   0.33299344  0.89205633  0.20235536
   0.81922750  0.89454382  0.17885923
   0.66700656  0.10794367  0.79764464
   0.81922756  0.60545618  0.67885930
   0.18077244  0.39454382  0.32114070
   0.66700661  0.39205629  0.29764479
   0.33299339  0.60794371  0.70235521

 position of ions in cartesian coordinates  (Angst):
  -1.59862081  0.01833967  4.88466362
   4.56014081  5.99666033  0.00822638
   3.37590051  3.02583970  2.45467197
  -0.41438051  2.98916030  2.43821803
   2.31293959  5.40473072  0.93895207
   0.64858041  0.61026928  3.95393793
   1.83282006  2.39723053  1.50749338
   1.12869994  3.61776947  3.38539662
  -0.98133805  0.63431893  4.01775147
   1.29558040  5.36571883  0.99010253
   3.94285805  5.38068107  0.87513853
   1.66593960  0.64928117  3.90278747
   2.75861824  3.64181890  3.32158390
   0.20290176  2.37318110  1.57130611
   2.85017950  2.35821859  1.45634322
   0.11134050  3.65678142  3.43654678



--------------------------------------------------------------------------------------------------------


 k-point   1 :   0.0000 0.0000 0.0000  plane waves:   11235
 k-point   2 :   0.1667 0.0000 0.0000  plane waves:   11231
 k-point   3 :   0.3333 0.0000 0.0000  plane waves:   11253
 k-point   4 :   0.5000 0.0000 0.0000  plane waves:   11230
 k-point   5 :   0.0000 0.2500 0.0000  plane waves:   11269
 k-point   6 :   0.1667 0.2500 0.0000  plane waves:   11264
 k-point   7 :  -0.1667 0.2500 0.0000  plane waves:   11264
 k-point   8 :   0.3333 0.2500 0.0000  plane waves:   11247
 k-point   9 :  -0.3333 0.2500 0.0000  plane waves:   11247
 k-point  10 :   0.5000 0.2500 0.0000  plane waves:   11246
 k-point  11 :   0.0000 0.5000 0.0000  plane waves:   11232
 k-point  12 :   0.1667 0.5000 0.0000  plane waves:   11238
 k-point  13 :   0.3333 0.5000 0.0000  plane waves:   11252
 k-point  14 :   0.5000 0.5000 0.0000  plane waves:   11256
 k-point  15 :   0.0000 0.0000 0.2000  plane waves:   11280
 k-point  16 :   0.1667 0.0000 0.2000  plane waves:   11253
 k-point  17 :   0.3333 0.0000 0.2000  plane waves:   11254
 k-point  18 :   0.5000 0.0000 0.2000  plane waves:   11276
 k-point  19 :  -0.3333 0.0000 0.2000  plane waves:   11272
 k-point  20 :  -0.1667 0.0000 0.2000  plane waves:   11295
 k-point  21 :   0.0000 0.2500 0.2000  plane waves:   11270
 k-point  22 :   0.0000 0.2500-0.2000  plane waves:   11270
 k-point  23 :   0.1667 0.2500 0.2000  plane waves:   11273
 k-point  24 :  -0.1667 0.2500-0.2000  plane waves:   11273
 k-point  25 :   0.3333 0.2500 0.2000  plane waves:   11279
 k-point  26 :  -0.3333 0.2500-0.2000  plane waves:   11279
 k-point  27 :   0.5000 0.2500 0.2000  plane waves:   11254
 k-point  28 :   0.5000 0.2500-0.2000  plane waves:   11254
 k-point  29 :  -0.3333 0.2500 0.2000  plane waves:   11256
 k-point  30 :   0.3333 0.2500-0.2000  plane waves:   11256
 k-point  31 :  -0.1667 0.2500 0.2000  plane waves:   11267
 k-point  32 :   0.1667 0.2500-0.2000  plane waves:   11267
 k-point  33 :   0.0000 0.5000 0.2000  plane waves:   11264
 k-point  34 :   0.1667 0.5000 0.2000  plane waves:   11256
 k-point  35 :   0.3333 0.5000 0.2000  plane waves:   11266
 k-point  36 :   0.5000 0.5000 0.2000  plane waves:   11262
 k-point  37 :  -0.3333 0.5000 0.2000  plane waves:   11262
 k-point  38 :  -0.1667 0.5000 0.2000  plane waves:   11242
 k-point  39 :   0.0000 0.0000 0.4000  plane waves:   11268
 k-point  40 :   0.1667 0.0000 0.4000  plane waves:   11286
 k-point  41 :   0.3333 0.0000 0.4000  plane waves:   11270
 k-point  42 :   0.5000 0.0000 0.4000  plane waves:   11292
 k-point  43 :  -0.3333 0.0000 0.4000  plane waves:   11289
 k-point  44 :  -0.1667 0.0000 0.4000  plane waves:   11295
 k-point  45 :   0.0000 0.2500 0.4000  plane waves:   11272
 k-point  46 :   0.0000 0.2500-0.4000  plane waves:   11272
 k-point  47 :   0.1667 0.2500 0.4000  plane waves:   11277
 k-point  48 :  -0.1667 0.2500-0.4000  plane waves:   11277
 k-point  49 :   0.3333 0.2500 0.4000  plane waves:   11263
 k-point  50 :  -0.3333 0.2500-0.4000  plane waves:   11263
 k-point  51 :   0.5000 0.2500 0.4000  plane waves:   11271
 k-point  52 :   0.5000 0.2500-0.4000  plane waves:   11271
 k-point  53 :  -0.3333 0.2500 0.4000  plane waves:   11261
 k-point  54 :   0.3333 0.2500-0.4000  plane waves:   11261
 k-point  55 :  -0.1667 0.2500 0.4000  plane waves:   11262
 k-point  56 :   0.1667 0.2500-0.4000  plane waves:   11262
 k-point  57 :   0.0000 0.5000 0.4000  plane waves:   11262
 k-point  58 :   0.1667 0.5000 0.4000  plane waves:   11250
 k-point  59 :   0.3333 0.5000 0.4000  plane waves:   11272
 k-point  60 :   0.5000 0.5000 0.4000  plane waves:   11250
 k-point  61 :  -0.3333 0.5000 0.4000  plane waves:   11254
 k-point  62 :  -0.1667 0.5000 0.4000  plane waves:   11250

 maximum and minimum number of plane-waves per node :      5662     5612

 maximum number of plane-waves:     11295
 maximum index in each direction: 
   IXMAX=   14   IYMAX=   15   IZMAX=   14
   IXMIN=  -14   IYMIN=  -16   IZMIN=  -14


 parallel 3D FFT for wavefunctions:
    minimum data exchange during FFTs selected (reduces bandwidth)
 parallel 3D FFT for charge:
    minimum data exchange during FFTs selected (reduces bandwidth)


 total amount of memory used by VASP MPI-rank0   126046. kBytes
=======================================================================

   base      :      30000. kBytes
   nonl-proj :      70041. kBytes
   fftplans  :       3489. kBytes
   grid      :       4972. kBytes
   one-center:         24. kBytes
   wavefun   :      17520. kBytes

     INWAV:  cpu time      0.0002: real time      0.0004
 Broyden mixing: mesh for mixing (old mesh)
   NGX = 27   NGY = 31   NGZ = 29
  (NGX  =112   NGY  =128   NGZ  =112)
  gives a total of  24273 points

 initial charge density was supplied:
 charge density of overlapping atoms calculated
 number of electron      68.0000000 magnetization 
 keeping initial charge density in first step


--------------------------------------------------------------------------------------------------------


 Maximum index for augmentation-charges            0 (set IRDMAX)


--------------------------------------------------------------------------------------------------------


 First call to EWALD:  gamma=   0.329
 Maximum number of real-space cells 3x 3x 3
 Maximum number of reciprocal cells 3x 3x 3

    FEWALD:  cpu time      0.0017: real time      0.0017


--------------------------------------- Ionic step        1  -------------------------------------------




--------------------------------------- Iteration      1(   1)  ---------------------------------------


    POTLOK:  cpu time      0.0881: real time      0.0891
    SETDIJ:  cpu time      0.0096: real time      0.0097
    TRIAL :  cpu time     33.4116: real time     33.4280
    CORREC:  cpu time      0.0014: real time      0.0014
    --------------------------------------------
      LOOP:  cpu time     33.5376: real time     33.5552

 eigenvalue-minimisations  : 15872
 total energy-change (2. order) : 0.2477496E+03  (-0.7150530E+04)
 number of electron      68.0000000 magnetization 
 augmentation part       68.0000000 magnetization 

 Free energy of the ion-electron system (eV)
  ---------------------------------------------------
  alpha Z        PSCENC =        81.91423797
  Ewald energy   TEWEN  =     -2364.59881513
  -Hartree energ DENC   =     -1465.29363950
  -exchange      EXHF   =         0.00000000
  -V(xc)+E(xc)   XCENC  =       240.69018347
  PAW double counting   =      3243.14687999    -3235.24561810
  entropy T*S    EENTRO =        -0.00000002
  eigenvalues    EBANDS =      -354.40641691
  atomic energy  EATOM  =      4101.54279593
  ---------------------------------------------------
  free energy    TOTEN  =       247.74960770 eV

  energy without entropy =      247.74960773  energy(sigma->0) =      247.74960771


--------------------------------------------------------------------------------------------------------




--------------------------------------- Iteration      1(   2)  ---------------------------------------


    TRIAL :  cpu time     93.5456: real time     93.6076
    CORREC:  cpu time      0.0004: real time      0.0004
    --------------------------------------------
      LOOP:  cpu time     93.5591: real time     93.6366

 eigenvalue-minimisations  : 23808
 total energy-change (2. order) :-0.3540122E+03  (-0.3538477E+03)
 number of electron      68.0000000 magnetization 
 augmentation part       68.0000000 magnetization 

 Free energy of the ion-electron system (eV)
  ---------------------------------------------------
  alpha Z        PSCENC =        81.91423797
  Ewald energy   TEWEN  =     -2364.59881513
  -Hartree energ DENC   =     -1465.29363950
  -exchange      EXHF   =         0.00000000
  -V(xc)+E(xc)   XCENC  =       240.69018347
  PAW double counting   =      3243.14687999    -3235.24561810
  entropy T*S    EENTRO =        -0.00000000
  eigenvalues    EBANDS =      -708.41859844
  atomic energy  EATOM  =      4101.54279593
  ---------------------------------------------------
  free energy    TOTEN  =      -106.26257381 eV

  energy without entropy =     -106.26257381  energy(sigma->0) =     -106.26257381


--------------------------------------------------------------------------------------------------------




--------------------------------------- Iteration      1(   3)  ---------------------------------------


    TRIAL :  cpu time     36.3995: real time     36.4206
    CORREC:  cpu time      0.0004: real time      0.0004
    --------------------------------------------
      LOOP:  cpu time     36.4145: real time     36.4508

 eigenvalue-minimisations  : 15872
 total energy-change (2. order) :-0.3646836E+01  (-0.3646836E+01)
 number of electron      68.0000000 magnetization 
 augmentation part       68.0000000 magnetization 

 Free energy of the ion-electron system (eV)
  ---------------------------------------------------
  alpha Z        PSCENC =        81.91423797
  Ewald energy   TEWEN  =     -2364.59881513
  -Hartree energ DENC   =     -1465.29363950
  -exchange      EXHF   =         0.00000000
  -V(xc)+E(xc)   XCENC  =       240.69018347
  PAW double counting   =      3243.14687999    -3235.24561810
  entropy T*S    EENTRO =        -0.00000000
  eigenvalues    EBANDS =      -712.06543432
  atomic energy  EATOM  =      4101.54279593
  ---------------------------------------------------
  free energy    TOTEN  =      -109.90940968 eV

  energy without entropy =     -109.90940968  energy(sigma->0) =     -109.90940968


--------------------------------------------------------------------------------------------------------




--------------------------------------- Iteration      1(   4)  ---------------------------------------


    TRIAL :  cpu time    198.1700: real time    198.2747
    CORREC:  cpu time      0.0004: real time      0.0004
    --------------------------------------------
      LOOP:  cpu time    198.1991: real time    198.3040

 eigenvalue-minimisations  : 31744
 total energy-change (2. order) :-0.6158446E-02  (-0.6158446E-02)
 number of electron      68.0000000 magnetization 
 augmentation part       68.0000000 magnetization 

 Free energy of the ion-electron system (eV)
  ---------------------------------------------------
  alpha Z        PSCENC =        81.91423797
  Ewald energy   TEWEN  =     -2364.59881513
  -Hartree energ DENC   =     -1465.29363950
  -exchange      EXHF   =         0.00000000
  -V(xc)+E(xc)   XCENC  =       240.69018347
  PAW double counting   =      3243.14687999    -3235.24561810
  entropy T*S    EENTRO =        -0.00000000
  eigenvalues    EBANDS =      -712.07159276
  atomic energy  EATOM  =      4101.54279593
  ---------------------------------------------------
  free energy    TOTEN  =      -109.91556813 eV

  energy without entropy =     -109.91556813  energy(sigma->0) =     -109.91556813


--------------------------------------------------------------------------------------------------------




--------------------------------------- Iteration      1(   5)  ---------------------------------------


    TRIAL :  cpu time     35.7781: real time     35.7980
    CORREC:  cpu time      0.0005: real time      0.0005
    CHARGE:  cpu time      0.1175: real time      0.1177
    --------------------------------------------
      LOOP:  cpu time     35.9101: real time     35.9462

 eigenvalue-minimisations  : 15872
 total energy-change (2. order) :-0.2497654E-07  (-0.2498130E-07)
 number of electron      68.0000001 magnetization 
 augmentation part        0.6651900 magnetization 

 Free energy of the ion-electron system (eV)
  ---------------------------------------------------
  alpha Z        PSCENC =        81.91423797
  Ewald energy   TEWEN  =     -2364.59881513
  -Hartree energ DENC   =     -1465.29363950
  -exchange      EXHF   =         0.00000000
  -V(xc)+E(xc)   XCENC  =       240.69018347
  PAW double counting   =      3243.14687999    -3235.24561810
  entropy T*S    EENTRO =        -0.00000000
  eigenvalues    EBANDS =      -712.07159279
  atomic energy  EATOM  =      4101.54279593
  ---------------------------------------------------
  free energy    TOTEN  =      -109.91556815 eV

  energy without entropy =     -109.91556815  energy(sigma->0) =     -109.91556815


--------------------------------------------------------------------------------------------------------




--------------------------------------- Iteration      1(   6)  ---------------------------------------


    POTLOK:  cpu time      0.0610: real time      0.0610
    SETDIJ:  cpu time      0.0041: real time      0.0041
    TRIAL :  cpu time      4.6516: real time      4.6557
    CORREC:  cpu time      1.9744: real time      1.9753
    CHARGE:  cpu time      0.0920: real time      0.0920
    --------------------------------------------
      LOOP:  cpu time      6.8052: real time      6.8169

 eigenvalue-minimisations  :     0
 total energy-change (2. order) : 0.1993329E+02  (-0.1113625E+02)
 number of electron      68.0000001 magnetization 
 augmentation part        0.4078017 magnetization 

 Free energy of the ion-electron system (eV)
  ---------------------------------------------------
  alpha Z        PSCENC =        81.91423797
  Ewald energy   TEWEN  =     -2364.59881513
  -Hartree energ DENC   =     -1778.55052756
  -exchange      EXHF   =         0.00000000
  -V(xc)+E(xc)   XCENC  =       261.87397398
  PAW double counting   =     26914.75918610   -26913.30087405
  entropy T*S    EENTRO =        -0.00000000
  eigenvalues    EBANDS =      -393.62225775
  atomic energy  EATOM  =      4101.54279593
  ---------------------------------------------------
  free energy    TOTEN  =       -89.98228051 eV

  energy without entropy =      -89.98228051  energy(sigma->0) =      -89.98228051


--------------------------------------------------------------------------------------------------------




--------------------------------------- Iteration      1(   7)  ---------------------------------------


    POTLOK:  cpu time      0.0605: real time      0.0605
    SETDIJ:  cpu time      0.0041: real time      0.0041
    TRIAL :  cpu time      3.3602: real time      3.3625
    CORREC:  cpu time      1.9854: real time      1.9865
    CHARGE:  cpu time      0.0923: real time      0.0923
    --------------------------------------------
      LOOP:  cpu time      5.5325: real time      5.5362

 eigenvalue-minimisations  :     0
 total energy-change (2. order) :-0.1110015E+02  (-0.1028909E+01)
 number of electron      68.0000001 magnetization 
 augmentation part        0.3992086 magnetization 

 Free energy of the ion-electron system (eV)
  ---------------------------------------------------
  alpha Z        PSCENC =        81.91423797
  Ewald energy   TEWEN  =     -2364.59881513
  -Hartree energ DENC   =     -1633.85224674
  -exchange      EXHF   =         0.00000000
  -V(xc)+E(xc)   XCENC  =       252.14693535
  PAW double counting   =     42169.72232935   -42164.79429781
  entropy T*S    EENTRO =        -0.00000000
  eigenvalues    EBANDS =      -543.16336867
  atomic energy  EATOM  =      4101.54279593
  ---------------------------------------------------
  free energy    TOTEN  =      -101.08242975 eV

  energy without entropy =     -101.08242975  energy(sigma->0) =     -101.08242975


--------------------------------------------------------------------------------------------------------




--------------------------------------- Iteration      1(   8)  ---------------------------------------


    POTLOK:  cpu time      0.0591: real time      0.0591
    SETDIJ:  cpu time      0.0041: real time      0.0041
    TRIAL :  cpu time      3.3744: real time      3.3767
    CORREC:  cpu time      1.9589: real time      1.9598
    CHARGE:  cpu time      0.0916: real time      0.0916
    --------------------------------------------
      LOOP:  cpu time      5.5029: real time      5.5214

 eigenvalue-minimisations  :     0
 total energy-change (2. order) :-0.1023080E+01  (-0.9686572E-01)
 number of electron      68.0000001 magnetization 
 augmentation part        0.4054242 magnetization 

 Free energy of the ion-electron system (eV)
  ---------------------------------------------------
  alpha Z        PSCENC =        81.91423797
  Ewald energy   TEWEN  =     -2364.59881513
  -Hartree energ DENC   =     -1610.87927608
  -exchange      EXHF   =         0.00000000
  -V(xc)+E(xc)   XCENC  =       250.57737519
  PAW double counting   =     34834.43865702   -34829.46851982
  entropy T*S    EENTRO =        -0.00000000
  eigenvalues    EBANDS =      -565.63196456
  atomic energy  EATOM  =      4101.54279593
  ---------------------------------------------------
  free energy    TOTEN  =      -102.10550948 eV

  energy without entropy =     -102.10550948  energy(sigma->0) =     -102.10550948


--------------------------------------------------------------------------------------------------------




--------------------------------------- Iteration      1(   9)  ---------------------------------------


    POTLOK:  cpu time      0.0598: real time      0.0598
    SETDIJ:  cpu time      0.0041: real time      0.0041
    TRIAL :  cpu time      3.3443: real time      3.3467
    CORREC:  cpu time      1.9550: real time      1.9562
    CHARGE:  cpu time      0.0913: real time      0.0913
    --------------------------------------------
      LOOP:  cpu time      5.4679: real time      5.4873

 eigenvalue-minimisations  :     0
 total energy-change (2. order) :-0.9686141E-01  (-0.1158126E-01)
 number of electron      68.0000001 magnetization 
 augmentation part        0.4031985 magnetization 

 Free energy of the ion-electron system (eV)
  ---------------------------------------------------
  alpha Z        PSCENC =        81.91423797
  Ewald energy   TEWEN  =     -2364.59881513
  -Hartree energ DENC   =     -1605.84519743
  -exchange      EXHF   =         0.00000000
  -V(xc)+E(xc)   XCENC  =       250.26876604
  PAW double counting   =     34406.06117520   -34401.11759223
  entropy T*S    EENTRO =        -0.00000000
  eigenvalues    EBANDS =      -570.42774124
  atomic energy  EATOM  =      4101.54279593
  ---------------------------------------------------
  free energy    TOTEN  =      -102.20237089 eV

  energy without entropy =     -102.20237089  energy(sigma->0) =     -102.20237089


--------------------------------------------------------------------------------------------------------




--------------------------------------- Iteration      1(  10)  ---------------------------------------


    POTLOK:  cpu time      0.0592: real time      0.0592
    SETDIJ:  cpu time      0.0041: real time      0.0041
    TRIAL :  cpu time      3.3531: real time      3.3553
    CORREC:  cpu time      1.9583: real time      1.9594
    CHARGE:  cpu time      0.0914: real time      0.0915
    --------------------------------------------
      LOOP:  cpu time      5.4821: real time      5.5001

 eigenvalue-minimisations  :     0
 total energy-change (2. order) :-0.1158802E-01  (-0.1344106E-02)
 number of electron      68.0000001 magnetization 
 augmentation part        0.4015901 magnetization 

 Free energy of the ion-electron system (eV)
  ---------------------------------------------------
  alpha Z        PSCENC =        81.91423797
  Ewald energy   TEWEN  =     -2364.59881513
  -Hartree energ DENC   =     -1604.56261063
  -exchange      EXHF   =         0.00000000
  -V(xc)+E(xc)   XCENC  =       250.19777108
  PAW double counting   =     34691.38267137   -34686.41503256
  entropy T*S    EENTRO =        -0.00000000
  eigenvalues    EBANDS =      -571.67497693
  atomic energy  EATOM  =      4101.54279593
  ---------------------------------------------------
  free energy    TOTEN  =      -102.21395891 eV

  energy without entropy =     -102.21395891  energy(sigma->0) =     -102.21395891


--------------------------------------------------------------------------------------------------------




--------------------------------------- Iteration      1(  11)  ---------------------------------------


    POTLOK:  cpu time      0.0592: real time      0.0592
    SETDIJ:  cpu time      0.0041: real time      0.0041
    TRIAL :  cpu time      3.3789: real time      3.3804
    CORREC:  cpu time      1.9582: real time      1.9593
    CHARGE:  cpu time      0.0939: real time      0.0939
    --------------------------------------------
      LOOP:  cpu time      5.5115: real time      5.5281

 eigenvalue-minimisations  :     0
 total energy-change (2. order) :-0.1338767E-02  (-0.2431343E-03)
 number of electron      68.0000001 magnetization 
 augmentation part        0.4021386 magnetization 

 Free energy of the ion-electron system (eV)
  ---------------------------------------------------
  alpha Z        PSCENC =        81.91423797
  Ewald energy   TEWEN  =     -2364.59881513
  -Hartree energ DENC   =     -1604.56190726
  -exchange      EXHF   =         0.00000000
  -V(xc)+E(xc)   XCENC  =       250.19222016
  PAW double counting   =     34728.63091382   -34723.65486415
  entropy T*S    EENTRO =        -0.00000000
  eigenvalues    EBANDS =      -571.67987901
  atomic energy  EATOM  =      4101.54279593
  ---------------------------------------------------
  free energy    TOTEN  =      -102.21529768 eV

  energy without entropy =     -102.21529768  energy(sigma->0) =     -102.21529768


--------------------------------------------------------------------------------------------------------




--------------------------------------- Iteration      1(  12)  ---------------------------------------


    POTLOK:  cpu time      0.0590: real time      0.0590
    SETDIJ:  cpu time      0.0041: real time      0.0041
    TRIAL :  cpu time      3.3486: real time      3.3514
    CORREC:  cpu time      1.9552: real time      1.9564
    CHARGE:  cpu time      0.0910: real time      0.0911
    --------------------------------------------
      LOOP:  cpu time      5.4711: real time      5.4921

 eigenvalue-minimisations  :     0
 total energy-change (2. order) :-0.2458576E-03  (-0.2618321E-04)
 number of electron      68.0000001 magnetization 
 augmentation part        0.4022075 magnetization 

 Free energy of the ion-electron system (eV)
  ---------------------------------------------------
  alpha Z        PSCENC =        81.91423797
  Ewald energy   TEWEN  =     -2364.59881513
  -Hartree energ DENC   =     -1604.63369647
  -exchange      EXHF   =         0.00000000
  -V(xc)+E(xc)   XCENC  =       250.19384412
  PAW double counting   =     34703.92256054   -34698.95062169
  entropy T*S    EENTRO =        -0.00000000
  eigenvalues    EBANDS =      -571.60584881
  atomic energy  EATOM  =      4101.54279593
  ---------------------------------------------------
  free energy    TOTEN  =      -102.21554353 eV

  energy without entropy =     -102.21554353  energy(sigma->0) =     -102.21554353


--------------------------------------------------------------------------------------------------------




--------------------------------------- Iteration      1(  13)  ---------------------------------------


    POTLOK:  cpu time      0.0584: real time      0.0584
    SETDIJ:  cpu time      0.0041: real time      0.0041
    TRIAL :  cpu time      3.3425: real time      3.3444
    CORREC:  cpu time      1.9539: real time      1.9551
    CHARGE:  cpu time      0.1156: real time      0.1156
    --------------------------------------------
      LOOP:  cpu time      5.4877: real time      5.5081

 eigenvalue-minimisations  :     0
 total energy-change (2. order) :-0.2672785E-04  (-0.3995693E-05)
 number of electron      68.0000001 magnetization 
 augmentation part        0.4021878 magnetization 

 Free energy of the ion-electron system (eV)
  ---------------------------------------------------
  alpha Z        PSCENC =        81.91423797
  Ewald energy   TEWEN  =     -2364.59881513
  -Hartree energ DENC   =     -1604.61312373
  -exchange      EXHF   =         0.00000000
  -V(xc)+E(xc)   XCENC  =       250.19187776
  PAW double counting   =     34699.39231350   -34694.42028031
  entropy T*S    EENTRO =        -0.00000000
  eigenvalues    EBANDS =      -571.62457625
  atomic energy  EATOM  =      4101.54279593
  ---------------------------------------------------
  free energy    TOTEN  =      -102.21557026 eV

  energy without entropy =     -102.21557026  energy(sigma->0) =     -102.21557026


--------------------------------------------------------------------------------------------------------




--------------------------------------- Iteration      1(  14)  ---------------------------------------


    POTLOK:  cpu time      0.0841: real time      0.0841
    SETDIJ:  cpu time      0.0051: real time      0.0051
    TRIAL :  cpu time      3.3615: real time      3.3635
    CORREC:  cpu time      1.9573: real time      1.9583
    CHARGE:  cpu time      0.0944: real time      0.0945
    --------------------------------------------
      LOOP:  cpu time      5.5166: real time      5.5366

 eigenvalue-minimisations  :     0
 total energy-change (2. order) :-0.3663121E-05  (-0.6964442E-06)
 number of electron      68.0000001 magnetization 
 augmentation part        0.4021608 magnetization 

 Free energy of the ion-electron system (eV)
  ---------------------------------------------------
  alpha Z        PSCENC =        81.91423797
  Ewald energy   TEWEN  =     -2364.59881513
  -Hartree energ DENC   =     -1604.63556545
  -exchange      EXHF   =         0.00000000
  -V(xc)+E(xc)   XCENC  =       250.19349177
  PAW double counting   =     34698.90325137   -34693.93124585
  entropy T*S    EENTRO =        -0.00000000
  eigenvalues    EBANDS =      -571.60372453
  atomic energy  EATOM  =      4101.54279593
  ---------------------------------------------------
  free energy    TOTEN  =      -102.21557392 eV

  energy without entropy =     -102.21557392  energy(sigma->0) =     -102.21557392


--------------------------------------------------------------------------------------------------------




--------------------------------------- Iteration      1(  15)  ---------------------------------------


    POTLOK:  cpu time      0.0593: real time      0.0593
    SETDIJ:  cpu time      0.0041: real time      0.0040
    TRIAL :  cpu time      3.3458: real time      3.3474
    CORREC:  cpu time      1.9576: real time      1.9587
    CHARGE:  cpu time      0.0916: real time      0.0916
    --------------------------------------------
      LOOP:  cpu time      5.4728: real time      5.4913

 eigenvalue-minimisations  :     0
 total energy-change (2. order) :-0.6545124E-06  (-0.9203753E-07)
 number of electron      68.0000001 magnetization 
 augmentation part        0.4021674 magnetization 

 Free energy of the ion-electron system (eV)
  ---------------------------------------------------
  alpha Z        PSCENC =        81.91423797
  Ewald energy   TEWEN  =     -2364.59881513
  -Hartree energ DENC   =     -1604.63262773
  -exchange      EXHF   =         0.00000000
  -V(xc)+E(xc)   XCENC  =       250.19322470
  PAW double counting   =     34700.74103767   -34695.76878727
  entropy T*S    EENTRO =        -0.00000000
  eigenvalues    EBANDS =      -571.60664071
  atomic energy  EATOM  =      4101.54279593
  ---------------------------------------------------
  free energy    TOTEN  =      -102.21557458 eV

  energy without entropy =     -102.21557458  energy(sigma->0) =     -102.21557458


--------------------------------------------------------------------------------------------------------




--------------------------------------- Iteration      1(  16)  ---------------------------------------


    POTLOK:  cpu time      0.0591: real time      0.0591
    SETDIJ:  cpu time      0.0041: real time      0.0041
    TRIAL :  cpu time      3.3408: real time      3.3435
    CORREC:  cpu time      1.9554: real time      1.9564
    EDDIAG:  cpu time      1.8920: real time      1.8935
    CHARGE:  cpu time      0.0904: real time      0.0905
    --------------------------------------------
      LOOP:  cpu time      7.3556: real time      7.3774

 eigenvalue-minimisations  :     0
 total energy-change (2. order) :-0.9424912E-07  (-0.1743526E-07)
 number of electron      68.0000001 magnetization 
 augmentation part        0.4021715 magnetization 

 Free energy of the ion-electron system (eV)
  ---------------------------------------------------
  alpha Z        PSCENC =        81.91423797
  Ewald energy   TEWEN  =     -2364.59881513
  -Hartree energ DENC   =     -1604.63235006
  -exchange      EXHF   =         0.00000000
  -V(xc)+E(xc)   XCENC  =       250.19319719
  PAW double counting   =     34700.66057624   -34695.68836817
  entropy T*S    EENTRO =        -0.00000000
  eigenvalues    EBANDS =      -571.60684864
  atomic energy  EATOM  =      4101.54279593
  ---------------------------------------------------
  free energy    TOTEN  =      -102.21557467 eV

  energy without entropy =     -102.21557467  energy(sigma->0) =     -102.21557467


--------------------------------------------------------------------------------------------------------


  average scaling for gradient   1.2734


 average (electrostatic) potential at core
  the test charge radii are     0.5770  0.4325  0.5955
  (the norm of the test charge is              1.0000)
       1 -84.1546       2 -84.1546       3 -84.1546       4 -84.1546       5 -41.6738
       6 -41.6738       7 -41.6738       8 -41.6738       9-113.7064      10-114.6245
      11-113.7064      12-114.6245      13-113.7064      14-113.7064      15-114.6245
      16-114.6245



 E-fermi :   0.0893     XC(G=0):  -8.5674     alpha+bet : -7.5594

 Fermi energy:         0.0892664583

 k-point     1 :       0.0000    0.0000    0.0000
  band No.  band energies     occupation 
      1     -22.1261      2.00000
      2     -21.9076      2.00000
      3     -21.0703      2.00000
      4     -21.0479      2.00000
      5     -19.7064      2.00000
      6     -19.6863      2.00000
      7     -18.9700      2.00000
      8     -18.9540      2.00000
      9     -11.7731      2.00000
     10     -11.7321      2.00000
     11      -9.0970      2.00000
     12      -9.0016      2.00000
     13      -6.6100      2.00000
     14      -6.5704      2.00000
     15      -6.4716      2.00000
     16      -6.4309      2.00000
     17      -5.7673      2.00000
     18      -5.3767      2.00000
     19      -5.2416      2.00000
     20      -5.2038      2.00000
     21      -4.2456      2.00000
     22      -4.1557      2.00000
     23      -3.5820      2.00000
     24      -3.5606      2.00000
     25      -3.2662      2.00000
     26      -3.1642      2.00000
     27      -2.5603      2.00000
     28      -1.6524      2.00000
     29      -1.6178      2.00000
     30      -1.5950      2.00000
     31      -1.3591      2.00000
     32      -1.2265      2.00000
     33      -0.5226      2.00000
     34      -0.3788      2.00000
     35       3.2435      0.00000
     36       3.7121      0.00000
     37       6.9909      0.00000
     38       7.0070      0.00000
     39       7.2139      0.00000
     40       9.3097      0.00000
     41       9.3646      0.00000
     42      10.0996      0.00000
     43      10.6934      0.00000
     44      11.0741      0.00000
     45      11.2269      0.00000
     46      11.3498      0.00000
     47      12.0811      0.00000
     48      12.7277      0.00000
     49      12.7312      0.00000
     50      13.4457      0.00000
     51      13.6761      0.00000
     52      13.7909      0.00000
     53      14.0547      0.00000
     54      14.1073      0.00000
     55      14.1080      0.00000
     56      14.4086      0.00000
     57      14.6629      0.00000
     58      14.7091      0.00000
     59      15.2330      0.00000
     60      15.9450      0.00000
     61      16.0536      0.00000
     62      16.2673      0.00000
     63      16.7249      0.00000
     64      17.6297      0.00000
     65      18.2210      0.00000
     66      18.6173      0.00000
     67      19.7719      0.00000
     68      19.9339      0.00000
     69      20.5106      0.00000
     70      20.8900      0.00000
     71      21.1455      0.00000
     72      21.2092      0.00000
     73      21.3595      0.00000
     74      21.8505      0.00000
     75      22.3801      0.00000
     76      22.5886      0.00000
     77      22.7609      0.00000
     78      23.0127      0.00000
     79      23.6945      0.00000
     80      23.8645      0.00000
     81      24.4717      0.00000
     82      24.4874      0.00000
     83      24.4936      0.00000
     84      25.0596      0.00000
     85      25.3380      0.00000
     86      25.9881      0.00000
     87      26.3928      0.00000
     88      26.4565      0.00000
     89      26.5185      0.00000
     90      26.8447      0.00000
     91      27.4705      0.00000
     92      27.5203      0.00000
     93      28.0556      0.00000
     94      28.4322      0.00000
     95      28.6495      0.00000
     96      28.6636      0.00000
     97      30.0479      0.00000
     98      30.0790      0.00000
     99      30.4098      0.00000
    100      30.5706      0.00000
    101      30.6456      0.00000
    102      30.9406      0.00000
    103      31.6470      0.00000
    104      32.1633      0.00000
    105      32.3025      0.00000
    106      32.4132      0.00000
    107      32.7652      0.00000
    108      33.3137      0.00000
    109      33.6443      0.00000
    110      34.0458      0.00000
    111      34.2338      0.00000
    112      34.4019      0.00000
    113      34.8644      0.00000
    114      35.1587      0.00000
    115      35.3063      0.00000
    116      36.1798      0.00000
    117      36.3419      0.00000
    118      36.8454      0.00000
    119      36.8833      0.00000
    120      36.9705      0.00000
    121      37.3024      0.00000
    122      37.4609      0.00000
    123      37.6956      0.00000
    124      37.7952      0.00000
    125      38.3568      0.00000
    126      38.4433      0.00000
    127      38.5959      0.00000
    128      38.8437      0.00000

 k-point     2 :       0.1667    0.0000    0.0000
  band No.  band energies     occupation 
      1     -22.0700      2.00000
      2     -21.8655      2.00000
      3     -21.1457      2.00000
      4     -21.1020      2.00000
      5     -19.6670      2.00000
      6     -19.6488      2.00000
      7     -19.0275      2.00000
      8     -19.0107      2.00000
      9     -11.6159      2.00000
     10     -11.5574      2.00000
     11      -9.0598      2.00000
     12      -8.9643      2.00000
     13      -6.9091      2.00000
     14      -6.8742      2.00000
     15      -6.3078      2.00000
     16      -6.2566      2.00000
     17      -5.7929      2.00000
     18      -5.5122      2.00000
     19      -5.3040      2.00000
     20      -5.1592      2.00000
     21      -4.3612      2.00000
     22      -4.2079      2.00000
     23      -3.9543      2.00000
     24      -3.9218      2.00000
     25      -2.8701      2.00000
     26      -2.8408      2.00000
     27      -2.4828      2.00000
     28      -1.5818      2.00000
     29      -1.5606      2.00000
     30      -1.5454      2.00000
     31      -1.4113      2.00000
     32      -1.2458      2.00000
     33      -0.4812      2.00000
     34      -0.4270      2.00000
     35       3.2898      0.00000
     36       3.7849      0.00000
     37       6.9359      0.00000
     38       7.0831      0.00000
     39       7.1823      0.00000
     40       9.5615      0.00000
     41       9.6375      0.00000
     42      10.0777      0.00000
     43      10.1328      0.00000
     44      11.2652      0.00000
     45      11.4592      0.00000
     46      11.5448      0.00000
     47      12.1311      0.00000
     48      12.3963      0.00000
     49      12.7900      0.00000
     50      12.9997      0.00000
     51      13.4186      0.00000
     52      13.9811      0.00000
     53      13.9889      0.00000
     54      14.1059      0.00000
     55      14.2279      0.00000
     56      14.4148      0.00000
     57      14.5828      0.00000
     58      15.1543      0.00000
     59      15.2991      0.00000
     60      15.6874      0.00000
     61      16.3334      0.00000
     62      16.5406      0.00000
     63      16.8840      0.00000
     64      17.5787      0.00000
     65      18.5314      0.00000
     66      18.9546      0.00000
     67      19.1730      0.00000
     68      19.5832      0.00000
     69      20.3149      0.00000
     70      20.7444      0.00000
     71      20.8136      0.00000
     72      21.1761      0.00000
     73      21.3392      0.00000
     74      22.0307      0.00000
     75      22.0967      0.00000
     76      22.4072      0.00000
     77      22.7030      0.00000
     78      22.7544      0.00000
     79      23.6135      0.00000
     80      23.8151      0.00000
     81      24.0878      0.00000
     82      24.3531      0.00000
     83      24.9347      0.00000
     84      25.1395      0.00000
     85      25.4994      0.00000
     86      25.8240      0.00000
     87      25.8955      0.00000
     88      26.0025      0.00000
     89      26.6792      0.00000
     90      27.1774      0.00000
     91      27.6793      0.00000
     92      28.0611      0.00000
     93      28.2509      0.00000
     94      28.6802      0.00000
[...]
     65      18.6929      0.00000
     66      18.6929      0.00000
     67      19.0287      0.00000
     68      19.0287      0.00000
     69      20.2563      0.00000
     70      20.2563      0.00000
     71      20.9244      0.00000
     72      20.9244      0.00000
     73      21.2493      0.00000
     74      21.2493      0.00000
     75      22.0506      0.00000
     76      22.0506      0.00000
     77      22.6739      0.00000
     78      22.6739      0.00000
     79      23.2723      0.00000
     80      23.2723      0.00000
     81      24.0498      0.00000
     82      24.0498      0.00000
     83      24.7348      0.00000
     84      24.7349      0.00000
     85      25.2261      0.00000
     86      25.2261      0.00000
     87      25.9528      0.00000
     88      25.9528      0.00000
     89      26.5664      0.00000
     90      26.5664      0.00000
     91      28.0350      0.00000
     92      28.0350      0.00000
     93      29.2050      0.00000
     94      29.2050      0.00000
     95      29.6876      0.00000
     96      29.6876      0.00000
     97      30.2679      0.00000
     98      30.2679      0.00000
     99      30.8774      0.00000
    100      30.8774      0.00000
    101      31.4564      0.00000
    102      31.4564      0.00000
    103      31.8735      0.00000
    104      31.8735      0.00000
    105      32.4912      0.00000
    106      32.4912      0.00000
    107      32.9119      0.00000
    108      32.9119      0.00000
    109      33.5440      0.00000
    110      33.5441      0.00000
    111      34.2580      0.00000
    112      34.2580      0.00000
    113      34.5404      0.00000
    114      34.5404      0.00000
    115      35.0869      0.00000
    116      35.0869      0.00000
    117      35.8439      0.00000
    118      35.8440      0.00000
    119      36.4945      0.00000
    120      36.4945      0.00000
    121      37.2078      0.00000
    122      37.2078      0.00000
    123      37.7610      0.00000
    124      37.7610      0.00000
    125      38.4522      0.00000
    126      38.4525      0.00000
    127      39.1795      0.00000
    128      39.1818      0.00000

 k-point    61 :      -0.3333    0.5000    0.4000
  band No.  band energies     occupation 
      1     -21.8375      2.00000
      2     -21.8374      2.00000
      3     -21.2826      2.00000
      4     -21.2826      2.00000
      5     -19.5521      2.00000
      6     -19.5521      2.00000
      7     -19.1669      2.00000
      8     -19.1669      2.00000
      9     -11.1922      2.00000
     10     -11.1922      2.00000
     11      -9.0439      2.00000
     12      -9.0438      2.00000
     13      -7.2264      2.00000
     14      -7.2264      2.00000
     15      -6.1050      2.00000
     16      -6.1050      2.00000
     17      -5.9079      2.00000
     18      -5.9079      2.00000
     19      -5.1737      2.00000
     20      -5.1737      2.00000
     21      -4.5275      2.00000
     22      -4.5275      2.00000
     23      -4.1770      2.00000
     24      -4.1770      2.00000
     25      -2.6242      2.00000
     26      -2.6242      2.00000
     27      -1.8106      2.00000
     28      -1.8106      2.00000
     29      -1.5714      2.00000
     30      -1.5714      2.00000
     31      -1.4322      2.00000
     32      -1.4322      2.00000
     33      -0.3099      2.00000
     34      -0.3099      2.00000
     35       3.6451      0.00000
     36       3.6452      0.00000
     37       6.8721      0.00000
     38       6.8721      0.00000
     39       8.6737      0.00000
     40       8.6737      0.00000
     41       9.5383      0.00000
     42       9.5383      0.00000
     43      11.1144      0.00000
     44      11.1144      0.00000
     45      11.3754      0.00000
     46      11.3754      0.00000
     47      11.8997      0.00000
     48      11.8997      0.00000
     49      12.8718      0.00000
     50      12.8718      0.00000
     51      13.1777      0.00000
     52      13.1777      0.00000
     53      14.1255      0.00000
     54      14.1255      0.00000
     55      14.7294      0.00000
     56      14.7294      0.00000
     57      14.9655      0.00000
     58      14.9655      0.00000
     59      15.6809      0.00000
     60      15.6809      0.00000
     61      16.5406      0.00000
     62      16.5406      0.00000
     63      17.8032      0.00000
     64      17.8032      0.00000
     65      18.5272      0.00000
     66      18.5272      0.00000
     67      19.4083      0.00000
     68      19.4083      0.00000
     69      20.2326      0.00000
     70      20.2326      0.00000
     71      20.6909      0.00000
     72      20.6909      0.00000
     73      21.5175      0.00000
     74      21.5175      0.00000
     75      22.3907      0.00000
     76      22.3907      0.00000
     77      23.0357      0.00000
     78      23.0357      0.00000
     79      23.2181      0.00000
     80      23.2181      0.00000
     81      24.1007      0.00000
     82      24.1007      0.00000
     83      24.9994      0.00000
     84      24.9994      0.00000
     85      25.4362      0.00000
     86      25.4362      0.00000
     87      25.8980      0.00000
     88      25.8980      0.00000
     89      26.7309      0.00000
     90      26.7309      0.00000
     91      28.1522      0.00000
     92      28.1522      0.00000
     93      28.9743      0.00000
     94      28.9744      0.00000
     95      29.5144      0.00000
     96      29.5144      0.00000
     97      30.3706      0.00000
     98      30.3706      0.00000
     99      30.8337      0.00000
    100      30.8337      0.00000
    101      31.0867      0.00000
    102      31.0867      0.00000
    103      31.7192      0.00000
    104      31.7192      0.00000
    105      32.3545      0.00000
    106      32.3545      0.00000
    107      32.8982      0.00000
    108      32.8982      0.00000
    109      33.0368      0.00000
    110      33.0368      0.00000
    111      34.0434      0.00000
    112      34.0434      0.00000
    113      34.6559      0.00000
    114      34.6559      0.00000
    115      35.3541      0.00000
    116      35.3541      0.00000
    117      35.5336      0.00000
    118      35.5336      0.00000
    119      36.7579      0.00000
    120      36.7579      0.00000
    121      37.2635      0.00000
    122      37.2635      0.00000
    123      37.6442      0.00000
    124      37.6443      0.00000
    125      38.5445      0.00000
    126      38.5449      0.00000
    127      38.7750      0.00000
    128      38.7762      0.00000

 k-point    62 :      -0.1667    0.5000    0.4000
  band No.  band energies     occupation 
      1     -21.9573      2.00000
      2     -21.9573      2.00000
      3     -21.1330      2.00000
      4     -21.1330      2.00000
      5     -19.6755      2.00000
      6     -19.6755      2.00000
      7     -19.0067      2.00000
      8     -19.0067      2.00000
      9     -11.5897      2.00000
     10     -11.5897      2.00000
     11      -9.0198      2.00000
     12      -9.0198      2.00000
     13      -6.9183      2.00000
     14      -6.9183      2.00000
     15      -6.2182      2.00000
     16      -6.2182      2.00000
     17      -5.6919      2.00000
     18      -5.6919      2.00000
     19      -5.2245      2.00000
     20      -5.2245      2.00000
     21      -4.2792      2.00000
     22      -4.2792      2.00000
     23      -3.9020      2.00000
     24      -3.9020      2.00000
     25      -2.9173      2.00000
     26      -2.9173      2.00000
     27      -1.8513      2.00000
     28      -1.8513      2.00000
     29      -1.5792      2.00000
     30      -1.5792      2.00000
     31      -1.4281      2.00000
     32      -1.4281      2.00000
     33      -0.4255      2.00000
     34      -0.4255      2.00000
     35       3.4313      0.00000
     36       3.4313      0.00000
     37       7.0501      0.00000
     38       7.0501      0.00000
     39       8.6353      0.00000
     40       8.6353      0.00000
     41       9.4611      0.00000
     42       9.4611      0.00000
     43      10.6701      0.00000
     44      10.6701      0.00000
     45      11.2534      0.00000
     46      11.2534      0.00000
     47      12.2300      0.00000
     48      12.2300      0.00000
     49      12.4409      0.00000
     50      12.4409      0.00000
     51      13.4645      0.00000
     52      13.4645      0.00000
     53      14.2236      0.00000
     54      14.2236      0.00000
     55      14.8158      0.00000
     56      14.8158      0.00000
     57      14.9492      0.00000
     58      14.9492      0.00000
     59      15.5898      0.00000
     60      15.5898      0.00000
     61      16.6288      0.00000
     62      16.6288      0.00000
     63      17.1829      0.00000
     64      17.1829      0.00000
     65      18.6030      0.00000
     66      18.6030      0.00000
     67      19.3789      0.00000
     68      19.3789      0.00000
     69      20.2027      0.00000
     70      20.2027      0.00000
     71      21.0769      0.00000
     72      21.0769      0.00000
     73      21.3198      0.00000
     74      21.3198      0.00000
     75      22.6166      0.00000
     76      22.6166      0.00000
     77      23.4886      0.00000
     78      23.4886      0.00000
     79      23.9868      0.00000
     80      23.9868      0.00000
     81      24.7350      0.00000
     82      24.7350      0.00000
     83      25.1879      0.00000
     84      25.1879      0.00000
     85      25.7476      0.00000
     86      25.7476      0.00000
     87      26.3403      0.00000
     88      26.3403      0.00000
     89      27.0190      0.00000
     90      27.0190      0.00000
     91      28.1387      0.00000
     92      28.1387      0.00000
     93      28.7604      0.00000
     94      28.7604      0.00000
     95      29.3565      0.00000
     96      29.3565      0.00000
     97      30.0243      0.00000
     98      30.0243      0.00000
     99      30.3791      0.00000
    100      30.3791      0.00000
    101      30.8609      0.00000
    102      30.8609      0.00000
    103      31.6730      0.00000
    104      31.6730      0.00000
    105      31.9909      0.00000
    106      31.9909      0.00000
    107      32.2565      0.00000
    108      32.2565      0.00000
    109      33.2020      0.00000
    110      33.2020      0.00000
    111      33.3864      0.00000
    112      33.3864      0.00000
    113      34.1646      0.00000
    114      34.1646      0.00000
    115      35.4023      0.00000
    116      35.4023      0.00000
    117      35.8697      0.00000
    118      35.8697      0.00000
    119      36.0321      0.00000
    120      36.0321      0.00000
    121      36.5840      0.00000
    122      36.5840      0.00000
    123      37.6848      0.00000
    124      37.6850      0.00000
    125      38.1712      0.00000
    126      38.1714      0.00000
    127      38.8862      0.00000
    128      38.8891      0.00000


--------------------------------------------------------------------------------------------------------


 soft charge-density along one line, spin component           1
         0         1         2         3         4         5         6         7         8         9
 total charge-density along one line

 pseudopotential strength for first ion, spin component:           1
 12.582  21.172  -0.003   0.005   0.008  -0.005   0.008   0.014
 21.172  35.625  -0.005   0.008   0.014  -0.009   0.014   0.024
 -0.003  -0.005  -3.238   0.000  -0.000  -5.800   0.000  -0.000
  0.005   0.008   0.000  -3.238   0.000   0.000  -5.800   0.000
  0.008   0.014  -0.000   0.000  -3.236  -0.000   0.000  -5.797
 -0.005  -0.009  -5.800   0.000  -0.000 -10.369   0.001  -0.000
  0.008   0.014   0.000  -5.800   0.000   0.001 -10.370   0.000
  0.014   0.024  -0.000   0.000  -5.797  -0.000   0.000 -10.364
 total augmentation occupancy for first ion, spin component:           1
  7.203  -2.642   0.470  -0.551   1.697  -0.207   0.243  -0.770
 -2.642   1.111  -0.203   0.232  -0.863   0.091  -0.107   0.365
  0.470  -0.203   4.413  -2.888   0.483  -1.416   1.215  -0.201
 -0.551   0.232  -2.888   6.593  -0.574   1.215  -2.334   0.242
  1.697  -0.863   0.483  -0.574   5.728  -0.201   0.242  -1.839
 -0.207   0.091  -1.416   1.215  -0.201   0.488  -0.504   0.086
  0.243  -0.107   1.215  -2.334   0.242  -0.504   0.868  -0.105
 -0.770   0.365  -0.201   0.242  -1.839   0.086  -0.105   0.631


------------------------ aborting loop because EDIFF is reached ----------------------------------------


    FORLOC:  cpu time      0.0047: real time      0.0047
    FORNL :  cpu time      0.7135: real time      0.7138
    FORCOR:  cpu time      0.0620: real time      0.0624
    OFIELD:  cpu time      0.0003: real time      0.0003
 WARNING: Using user supplied parameters
     VDW_S8 = 1.682
     VDW_SR = 1.094
     because the xc functional is not supported. Required parameters not
     defined in the INCAR file will be replaced with PBE defaults ones.


 ---------------------------------------------------------------------------------------------

         DFTD3 V3.0 Rev 1        
 IVDW         = 11
 DF unknown   
 parameters
 VDW_S6       =    1.0000
 VDW_S8       =    1.6820
 VDW_SR       =    1.0940
 rs18     =    1.0000
 alpha6   =   14.0000
 alpha8   =   16.0000
 k1-k3    =   16.0000    1.3333   -4.0000
 VDW_RADIUS   =   50.2022 A
 VDW_CNRADIUS =   21.1671 A
 Edisp (eV)   -1.81858

 E6    (eV) :    -0.8915
 E8    (eV) :    -0.9270
 % E8        : 50.98
    FORVDW:  cpu time      0.1979: real time      0.1979

 VOLUME and BASIS-vectors are now :
 -----------------------------------------------------------------------------
  energy-cutoff  :     1000.00
  volume of cell :      156.87
      direct lattice vectors                 reciprocal lattice vectors
     5.330000000  0.000000000  0.000000000     0.187617261 -0.000000000  0.090819072
     0.000000000  6.015000000  0.000000000     0.000000000  0.166251039 -0.000000000
    -2.368480000  0.000000000  4.892890000     0.000000000  0.000000000  0.204378190

  length of vectors
     5.330000000  6.015000000  5.435997614     0.208442655  0.166251039  0.204378190


 FORCES acting on ions:
    Electron-Ion                     Ewald-Force                    Non-Local-Force
 -----------------------------------------------------------------------------------------------
   0.551E+02 0.128E+02 -.110E+02   -.601E+02 -.109E+02 0.803E+01   0.499E+01 -.201E+01 0.312E+01
   -.551E+02 -.128E+02 0.110E+02   0.601E+02 0.109E+02 -.803E+01   -.499E+01 0.201E+01 -.312E+01
   -.551E+02 0.128E+02 0.110E+02   0.601E+02 -.109E+02 -.803E+01   -.499E+01 -.201E+01 -.312E+01
   0.551E+02 -.128E+02 -.110E+02   -.601E+02 0.109E+02 0.803E+01   0.499E+01 0.201E+01 0.312E+01
   -.517E+02 0.337E+01 -.103E+02   0.584E+02 -.329E+01 0.103E+02   -.679E+01 -.862E-01 0.661E-01
   0.517E+02 -.337E+01 0.103E+02   -.584E+02 0.329E+01 -.103E+02   0.679E+01 0.862E-01 -.661E-01
   0.517E+02 0.337E+01 0.103E+02   -.584E+02 -.329E+01 -.103E+02   0.679E+01 -.862E-01 -.661E-01
   -.517E+02 -.337E+01 -.103E+02   0.584E+02 0.329E+01 0.103E+02   -.679E+01 0.862E-01 0.661E-01
   -.790E+02 -.929E+02 0.154E+03   0.970E+02 0.119E+03 -.192E+03   -.180E+02 -.261E+02 0.377E+02
   -.307E+02 0.909E+02 -.151E+03   0.145E+02 -.116E+03 0.189E+03   0.164E+02 0.252E+02 -.374E+02
   0.790E+02 0.929E+02 -.154E+03   -.970E+02 -.119E+03 0.192E+03   0.180E+02 0.261E+02 -.377E+02
   0.307E+02 -.909E+02 0.151E+03   -.145E+02 0.116E+03 -.189E+03   -.164E+02 -.252E+02 0.374E+02
   0.790E+02 -.929E+02 -.154E+03   -.970E+02 0.119E+03 0.192E+03   0.180E+02 -.261E+02 -.377E+02
   -.790E+02 0.929E+02 0.154E+03   0.970E+02 -.119E+03 -.192E+03   -.180E+02 0.261E+02 0.377E+02
   0.307E+02 0.909E+02 0.151E+03   -.145E+02 -.116E+03 -.189E+03   -.164E+02 0.252E+02 0.374E+02
   -.307E+02 -.909E+02 -.151E+03   0.145E+02 0.116E+03 0.189E+03   0.164E+02 -.252E+02 -.374E+02
 -----------------------------------------------------------------------------------------------
   0.548E-06 0.851E-05 -.311E-05   -.533E-13 0.142E-13 0.568E-13   0.355E-14 -.355E-14 0.711E-14


 POSITION                                       TOTAL-FORCE (eV/Angst)
 -----------------------------------------------------------------------------------
     -1.59862      0.01834      4.88466         0.009668      0.014429     -0.034115
      4.56014      5.99666      0.00823        -0.009668     -0.014429      0.034115
      3.37590      3.02584      2.45467        -0.009639      0.014416      0.034092
     -0.41438      2.98916      2.43822         0.009639     -0.014416     -0.034092
      2.31294      5.40473      0.93895        -0.051269     -0.044315      0.060470
      0.64858      0.61027      3.95394         0.051269      0.044315     -0.060470
      1.83282      2.39723      1.50749         0.051277     -0.044316     -0.060471
      1.12870      3.61777      3.38540        -0.051277      0.044316      0.060471
     -0.98134      0.63432      4.01775         0.081739      0.053648     -0.089280
      1.29558      5.36572      0.99010         0.172168     -0.085148      0.134856
      3.94286      5.38068      0.87514        -0.081739     -0.053648      0.089280
      1.66594      0.64928      3.90279        -0.172168      0.085148     -0.134856
      2.75862      3.64182      3.32158        -0.081753      0.053660      0.089299
      0.20290      2.37318      1.57131         0.081753     -0.053660     -0.089299
      2.85018      2.35822      1.45634        -0.172182     -0.085149     -0.134860
      0.11134      3.65678      3.43655         0.172182      0.085149      0.134860
 -----------------------------------------------------------------------------------
    total drift:                                0.000001      0.000009     -0.000003


--------------------------------------------------------------------------------------------------------



  FREE ENERGIE OF THE ION-ELECTRON SYSTEM (eV)
  ---------------------------------------------------
  free  energy   TOTEN  =      -104.03415777 eV

  energy  without entropy=     -104.03415777  energy(sigma->0) =     -104.03415777



--------------------------------------------------------------------------------------------------------


    POTLOK:  cpu time      0.1206: real time      0.1206


--------------------------------------------------------------------------------------------------------


 stress matrix after NEB project (eV)
     -1.45467     -0.00000     -0.00858
     -0.00000     -2.79974      0.00000
     -0.00858      0.00000     -2.37367
  FORCES: max atom, RMS     0.234700    0.143465
  FORCE total and by dimension    0.573859    0.172182
  Stress total and by dimension    3.948304    2.799742
     LOOP+:  cpu time    464.7808: real time    465.2524
    4ORBIT:  cpu time      0.0000: real time      0.0000

 total amount of memory used by VASP MPI-rank0   126046. kBytes
=======================================================================

   base      :      30000. kBytes
   nonl-proj :      70041. kBytes
   fftplans  :       3489. kBytes
   grid      :       4972. kBytes
   one-center:         24. kBytes
   wavefun   :      17520. kBytes

  
  
 General timing and accounting informations for this job:
 ========================================================
  
                  Total CPU time used (sec):      489.169
                            User time (sec):      487.214
                          System time (sec):        1.955
                         Elapsed time (sec):      492.984
  
                   Maximum memory used (kb):      357540.
                   Average memory used (kb):          N/A
  
                          Minor page faults:        72892
                          Major page faults:         1167
                 Voluntary context switches:         5975
