 vasp.6.4.1 05Apr23 (build Jun  6 2023 14:46:38) gamma-only                      
 executed on        HPECrayEX_GCC date 2024.08.21  20:11:38
 running  512 mpi-ranks, with    1 threads/rank, on    4 nodes
 distrk:  each k-point on  512 cores,    1 groups
 distr:  one band on NCORE= 128 cores,    4 groups


--------------------------------------------------------------------------------------------------------


 INCAR:
   NPAR = 4
   ALGO = Conjugate
   ISMEAR = 0
   SIGMA = 0.01
   PREC = Accurate
   EDIFF = 1E-7
   ENCUT = 1000
   ISIF = 0
   GGA = ML
   LUSE_VDW = .TRUE.
   ZAB_VDW = -1.8867
   AGGAC = 0.0000
   LASPH = .TRUE.
   SYMPREC = 1E-7
   LWAVE = .FALSE.
   LCHARG = .FALSE.

 POTCAR:    PAW_PBE C_h 06Feb2004                 
 POTCAR:    PAW_PBE H_h 06Feb2004                 
 POTCAR:    PAW_PBE N_h 06Feb2004                 
 -----------------------------------------------------------------------------
|                                                                             |
|               ----> ADVICE to this user running VASP <----                  |
|                                                                             |
|     You have switched on vdW-DFT.                                           |
|     This routine was written and supplied by Jiri Klimes. We recommend      |
|     that you carefully read and cite the following publications:            |
|       J. Klimes, D.R. Bowler, A. Michelides                                 |
|          J. Phys.: Cond Matt. 22 022201 (2010)                              |
|       J. Klimes, D.R. Bowler, A. Michelides                                 |
|          Phys. Rev. B. 83, 195131 (2011)                                    |
|     and references therein.                                                 |
|                                                                             |
 -----------------------------------------------------------------------------

 POTCAR:    PAW_PBE C_h 06Feb2004                 
   VRHFIN =C: s2p2                                                                                  
   LEXCH  = PE                                                                                      
   EATOM  =   147.1560 eV,   10.8157 Ry                                                             
                                                                                                    
   TITEL  = PAW_PBE C_h 06Feb2004                                                                   
   LULTRA =        F    use ultrasoft PP ?                                                          
   IUNSCR =        1    unscreen: 0-lin 1-nonlin 2-no                                               
   RPACOR =    0.800    partial core radius                                                         
   POMASS =   12.011; ZVAL   =    4.000    mass and valenz                                          
   RCORE  =    1.100    outmost cutoff radius                                                       
   RWIGS  =    1.630; RWIGS  =    0.863    wigner-seitz radius (au A)                               
   ENMAX  =  700.000; ENMIN  =  500.000 eV                                                          
   ICORE  =        2    local potential                                                             
   LCOR   =        T    correct aug charges                                                         
   LPAW   =        T    paw PP                                                                      
   EAUG   =  946.768                                                                                
   DEXC   =    0.000                                                                                
   RMAX   =    1.128    core radius for proj-oper                                                   
   RAUG   =    1.300    factor for augmentation sphere                                              
   RDEP   =    1.162    radius for radial grids                                                     
   RDEPT  =    1.088    core radius for aug-charge                                                  
                                                                                                    
   Atomic configuration                                                                             
    4 entries                                                                                       
     n  l   j            E        occ.                                                              
     1  0  0.50      -273.3789   2.0000                                                             
     2  0  0.50       -13.7508   2.0000                                                             
     2  1  0.50        -5.2854   2.0000                                                             
     3  2  1.50        -5.4423   0.0000                                                             
   Description                                                                                      
     l       E           TYP  RCUT    TYP  RCUT                                                     
     0    -13.7508458     23  1.100                                                                 
     0     -8.2022199     23  1.100                                                                 
     1     -5.2854383     23  1.100                                                                 
     1      1.1560700     23  1.100                                                                 
     2     -5.4423304      7  1.100                                                                 
  local pseudopotential read in
  partial core-charges read in
  partial kinetic energy density read in
  atomic valenz-charges read in
  non local Contribution for L=           0  read in
    real space projection operators read in
  non local Contribution for L=           0  read in
    real space projection operators read in
  non local Contribution for L=           1  read in
    real space projection operators read in
  non local Contribution for L=           1  read in
    real space projection operators read in
    PAW grid and wavefunctions read in

   number of l-projection  operators is LMAX  =           4
   number of lm-projection operators is LMMAX =           8

 POTCAR:    PAW_PBE H_h 06Feb2004                 
   VRHFIN =H: ultrasoft test                                                                        
   LEXCH  = PE                                                                                      
   EATOM  =    12.4884 eV,    0.9179 Ry                                                             
                                                                                                    
   TITEL  = PAW_PBE H_h 06Feb2004                                                                   
   LULTRA =        F    use ultrasoft PP ?                                                          
   IUNSCR =        0    unscreen: 0-lin 1-nonlin 2-no                                               
   RPACOR =    0.000    partial core radius                                                         
   POMASS =    1.000; ZVAL   =    1.000    mass and valenz                                          
   RCORE  =    0.800    outmost cutoff radius                                                       
   RWIGS  =    0.700; RWIGS  =    0.370    wigner-seitz radius (au A)                               
   ENMAX  =  700.000; ENMIN  =  350.000 eV                                                          
   RCLOC  =    0.701    cutoff for local pot                                                        
   LCOR   =        T    correct aug charges                                                         
   LPAW   =        T    paw PP                                                                      
   EAUG   = 1000.000                                                                                
   RMAX   =    0.819    core radius for proj-oper                                                   
   RAUG   =    1.000    factor for augmentation sphere                                              
   RDEP   =    0.817    radius for radial grids                                                     
   RDEPT  =    0.817    core radius for aug-charge                                                  
                                                                                                    
   Atomic configuration                                                                             
    2 entries                                                                                       
     n  l   j            E        occ.                                                              
     1  0  0.50        -6.4927   1.0000                                                             
     2  1  0.50        -3.4015   0.0000                                                             
   Description                                                                                      
     l       E           TYP  RCUT    TYP  RCUT                                                     
     0     -6.4927493     23  0.800                                                                 
     0      6.8029130     23  0.800                                                                 
     1     -6.8029130     23  0.800                                                                 
  local pseudopotential read in
  atomic valenz-charges read in
  non local Contribution for L=           0  read in
    real space projection operators read in
  non local Contribution for L=           0  read in
    real space projection operators read in
  non local Contribution for L=           1  read in
    real space projection operators read in
    PAW grid and wavefunctions read in

   number of l-projection  operators is LMAX  =           3
   number of lm-projection operators is LMMAX =           5

 POTCAR:    PAW_PBE N_h 06Feb2004                 
   VRHFIN =N: s2p3                                                                                  
   LEXCH  = PE                                                                                      
   EATOM  =   264.5486 eV,   19.4438 Ry                                                             
                                                                                                    
   TITEL  = PAW_PBE N_h 06Feb2004                                                                   
   LULTRA =        F    use ultrasoft PP ?                                                          
   IUNSCR =        1    unscreen: 0-lin 1-nonlin 2-no                                               
   RPACOR =    0.800    partial core radius                                                         
   POMASS =   14.001; ZVAL   =    5.000    mass and valenz                                          
   RCORE  =    1.100    outmost cutoff radius                                                       
   RWIGS  =    1.480; RWIGS  =    0.783    wigner-seitz radius (au A)                               
   ENMAX  =  700.000; ENMIN  =  500.000 eV                                                          
   ICORE  =        2    local potential                                                             
   LCOR   =        T    correct aug charges                                                         
   LPAW   =        T    paw PP                                                                      
   EAUG   =  904.640                                                                                
   DEXC   =    0.000                                                                                
   RMAX   =    1.127    core radius for proj-oper                                                   
   RAUG   =    1.300    factor for augmentation sphere                                              
   RDEP   =    1.115    radius for radial grids                                                     
   RDEPT  =    1.106    core radius for aug-charge                                                  
                                                                                                    
   Atomic configuration                                                                             
    4 entries                                                                                       
     n  l   j            E        occ.                                                              
     1  0  0.50      -384.7179   2.0000                                                             
     2  0  0.50       -18.5828   2.0000                                                             
     2  1  0.50        -7.0898   3.0000                                                             
     3  2  1.50        -6.8029   0.0000                                                             
   Description                                                                                      
     l       E           TYP  RCUT    TYP  RCUT                                                     
     0    -18.5828117     23  1.100                                                                 
     0    -15.0750597     23  1.100                                                                 
     1     -7.0897851     23  1.100                                                                 
     1     -1.9663412     23  1.100                                                                 
     2     -6.8029130      7  1.100                                                                 
  local pseudopotential read in
  partial core-charges read in
  partial kinetic energy density read in
  kinetic energy density of atom read in
  atomic valenz-charges read in
  non local Contribution for L=           0  read in
    real space projection operators read in
  non local Contribution for L=           0  read in
    real space projection operators read in
  non local Contribution for L=           1  read in
    real space projection operators read in
  non local Contribution for L=           1  read in
    real space projection operators read in
    PAW grid and wavefunctions read in

   number of l-projection  operators is LMAX  =           4
   number of lm-projection operators is LMMAX =           8

 -----------------------------------------------------------------------------
|                                                                             |
|               ----> ADVICE to this user running VASP <----                  |
|                                                                             |
|     You enforced a specific xc type in the INCAR file but a different       |
|     type was found in the POTCAR file.                                      |
|     I HOPE YOU KNOW WHAT YOU ARE DOING!                                     |
|                                                                             |
 -----------------------------------------------------------------------------

  PAW_PBE C_h 06Feb2004                 :
 energy of atom  1       EATOM= -147.1560
 kinetic energy error for atom=    0.0031 (will be added to EATOM!!)
  PAW_PBE H_h 06Feb2004                 :
 energy of atom  2       EATOM=  -12.4884
 kinetic energy error for atom=    0.0006 (will be added to EATOM!!)
  PAW_PBE N_h 06Feb2004                 :
 energy of atom  3       EATOM= -264.5486
 kinetic energy error for atom=    0.0081 (will be added to EATOM!!)


 POSCAR:  C  H  N
  positions in cartesian coordinates
  No initial velocities read in
 exchange correlation table for  LEXCH =       44
   RHO(1)=    0.500       N(1)  =     2000
   RHO(2)=  100.500       N(2)  =     4000

 VTST: version 4.1, (05/19/21)

 CHAIN: initializing optimizer
 
 OPT: Using VASP Dynamics algorithm
 CHAIN: Read ICHAIN            0

 POSCAR:  C  H  N
  positions in cartesian coordinates
  No initial velocities read in



--------------------------------------------------------------------------------------------------------


 ion  position               nearest neighbor table
   1  0.470  0.447  0.500-   5 1.08   9 1.32   8 1.37
   2  0.548  0.506  0.500-   6 1.08   3 1.37   9 1.38
   3  0.498  0.544  0.500-   7 1.08   2 1.37   8 1.38
   4  0.404  0.518  0.500-   8 1.01
   5  0.441  0.408  0.500-   1 1.08
   6  0.596  0.519  0.500-   2 1.08
   7  0.493  0.592  0.500-   3 1.08
   8  0.449  0.505  0.500-   4 1.01   1 1.37   3 1.38
   9  0.530  0.446  0.500-   1 1.32   2 1.38

  LATTYP: Found a simple cubic cell.
 ALAT       =    22.0000000000
  
  Lattice vectors:
  
 A1 = (  22.0000000000,   0.0000000000,   0.0000000000)
 A2 = (   0.0000000000,  22.0000000000,   0.0000000000)
 A3 = (   0.0000000000,   0.0000000000,  22.0000000000)


Analysis of symmetry for initial positions (statically):
=====================================================================
 Subroutine PRICEL returns:
 Original cell was already a primitive cell.
 

 Routine SETGRP: Setting up the symmetry group for a 
 simple cubic supercell.


 Subroutine GETGRP returns: Found  1 space group operations
 (whereof  1 operations were pure point group operations)
 out of a pool of 48 trial point group operations.


The static configuration has the point symmetry C_1 .


Analysis of symmetry for dynamics (positions and initial velocities):
=====================================================================
 Subroutine PRICEL returns:
 Original cell was already a primitive cell.
 

 Routine SETGRP: Setting up the symmetry group for a 
 simple cubic supercell.


 Subroutine GETGRP returns: Found  1 space group operations
 (whereof  1 operations were pure point group operations)
 out of a pool of 48 trial point group operations.


The dynamic configuration has the point symmetry C_1 .


 Subroutine INISYM returns: Found  1 space group operations
 (whereof  1 operations are pure point group operations),
 and found     1 'primitive' translations


----------------------------------------------------------------------------------------

                                     Primitive cell                                     

  volume of cell :   10648.0000

  direct lattice vectors                    reciprocal lattice vectors
    22.000000000  0.000000000  0.000000000     0.045454545  0.000000000  0.000000000
     0.000000000 22.000000000  0.000000000     0.000000000  0.045454545  0.000000000
     0.000000000  0.000000000 22.000000000     0.000000000  0.000000000  0.045454545

  length of vectors
    22.000000000 22.000000000 22.000000000     0.045454545  0.045454545  0.045454545

  position of ions in fractional coordinates (direct lattice)
     0.470403864  0.446802045  0.500007045
     0.548042045  0.505964773  0.499974318
     0.498210682  0.543586591  0.499993864
     0.404446591  0.517832955  0.499973409
     0.440732045  0.407547500  0.499984318
     0.595553409  0.518697955  0.499961591
     0.493330682  0.592452500  0.499961591
     0.448651136  0.505100227  0.500038409
     0.530320682  0.445842955  0.499989318

  ion indices of the primitive-cell ions
   primitive index   ion index
                 1           1
                 2           2
                 3           3
                 4           4
                 5           5
                 6           6
                 7           7
                 8           8
                 9           9

----------------------------------------------------------------------------------------



 KPOINTS: auto                                    

Automatic generation of k-mesh.
 Grid dimensions read from file:
 generate k-points for:    1    1    1

 Generating k-lattice:

  Cartesian coordinates                     Fractional coordinates (reciprocal lattice)
     0.045454545  0.000000000  0.000000000     1.000000000  0.000000000  0.000000000
     0.000000000  0.045454545  0.000000000     0.000000000  1.000000000  0.000000000
     0.000000000  0.000000000  0.045454545     0.000000000  0.000000000  1.000000000

  Length of vectors
     0.045454545  0.045454545  0.045454545

  Shift w.r.t. Gamma in fractional coordinates (k-lattice)
     0.000000000  0.000000000  0.000000000

 
 Subroutine IBZKPT returns following result:
 ===========================================
 
 Found      1 irreducible k-points:
 
 Following reciprocal coordinates:
            Coordinates               Weight
  0.000000  0.000000  0.000000      1.000000
 
 Following cartesian coordinates:
            Coordinates               Weight
  0.000000  0.000000  0.000000      1.000000
 


--------------------------------------------------------------------------------------------------------




 Dimension of arrays:
   k-points           NKPTS =      1   k-points in BZ     NKDIM =      1   number of bands    NBANDS=     20
   number of dos      NEDOS =    301   number of ions     NIONS =      9
   non local maximal  LDIM  =      4   non local SUM 2l+1 LMDIM =      8
   total plane-waves  NPLWV = ******
   max r-space proj   IRMAX =      1   max aug-charges    IRDMAX=   9419
   dimension x,y,z NGX =   240 NGY =  240 NGZ =  240
   dimension x,y,z NGXF=   480 NGYF=  480 NGZF=  480
   support grid    NGXF=   480 NGYF=  480 NGZF=  480
   ions per type =               3   4   2
   NGX,Y,Z   is equivalent  to a cutoff of  18.14, 18.14, 18.14 a.u.
   NGXF,Y,Z  is equivalent  to a cutoff of  36.27, 36.27, 36.27 a.u.

 SYSTEM =  unknown system                          
 POSCAR =   C  H  N                                

 Startparameter for this run:
   NWRITE =      2    write-flag & timer
   PREC   = accura    normal or accurate (medium, high low for compatibility)
   ISTART =      0    job   : 0-new  1-cont  2-samecut
   ICHARG =      2    charge: 1-file 2-atom 10-const
   ISPIN  =      1    spin polarized calculation?
   LNONCOLLINEAR =      F non collinear calculations
   LSORBIT =      F    spin-orbit coupling
   INIWAV =      1    electr: 0-lowe 1-rand  2-diag
   LASPH  =      T    aspherical Exc in radial PAW
 Electronic Relaxation 1
   ENCUT  = 1000.0 eV  73.50 Ry    8.57 a.u.  56.73 56.73 56.73*2*pi/ulx,y,z
   ENINI  = 1000.0     initial cutoff
   ENAUG  = 1000.0 eV  augmentation charge cutoff
   NELM   =     60;   NELMIN=  2; NELMDL= -5     # of ELM steps 
   EDIFF  = 0.1E-06   stopping-criterion for ELM
   LREAL  =      F    real-space projection
   NLSPLINE    = F    spline interpolate recip. space projectors
   LCOMPAT=      F    compatible to vasp.4.4
   GGA_COMPAT  = T    GGA compatible to vasp.4.4-vasp.4.6
   LMAXPAW     = -100 max onsite density
   LMAXMIX     =    2 max onsite mixed and CHGCAR
   VOSKOWN=      0    Vosko Wilk Nusair interpolation
   ROPT   =    0.00000   0.00000   0.00000
 Ionic relaxation
   EDIFFG = 0.1E-05   stopping-criterion for IOM
   NSW    =      0    number of steps for IOM
   NBLOCK =      1;   KBLOCK =      1    inner block; outer block 
   IBRION =     -1    ionic relax: 0-MD 1-quasi-New 2-CG
   NFREE  =      0    steps in history (QN), initial steepest desc. (CG)
   ISIF   =      0    stress and relaxation
   IWAVPR =     10    prediction:  0-non 1-charg 2-wave 3-comb
   ISYM   =      2    0-nonsym 1-usesym 2-fastsym
   LCORR  =      T    Harris-Foulkes like correction to forces

   POTIM  = 0.5000    time-step for ionic-motion
   TEIN   =    0.0    initial temperature
   TEBEG  =    0.0;   TEEND  =   0.0 temperature during run
   SMASS  =  -3.00    Nose mass-parameter (am)
   estimated Nose-frequenzy (Omega)   =  0.10E-29 period in steps = 0.13E+47 mass=  -0.111E-25a.u.
   SCALEE = 1.0000    scale energy and forces
   NPACO  =    256;   APACO  = 10.0  distance and # of slots for P.C.
   PSTRESS=    0.0 pullay stress

  Mass of Ions in am
   POMASS =  12.01  1.00 14.00
  Ionic Valenz
   ZVAL   =   4.00  1.00  5.00
  Atomic Wigner-Seitz radii
   RWIGS  =  -1.00 -1.00 -1.00
  virtual crystal weights 
   VCA    =   1.00  1.00  1.00
   NELECT =      26.0000    total number of electrons
   NUPDOWN=      -1.0000    fix difference up-down

 DOS related values:
   EMIN   =  10.00;   EMAX   =-10.00  energy-range for DOS
   EFERMI =   0.00;   METHOD = LEGACY      
   ISMEAR =     0;   SIGMA  =   0.01  broadening in eV -4-tet -1-fermi 0-gaus

 Electronic relaxation 2 (details)
   IALGO  =     58    algorithm
   LDIAG  =      T    sub-space diagonalisation (order eigenvalues)
   LSUBROT=      F    optimize rotation matrix (better conditioning)
   TURBO    =      0    0=normal 1=particle mesh
   IRESTART =      0    0=no restart 2=restart with 2 vectors
   NREBOOT  =      0    no. of reboots
   NMIN     =      0    reboot dimension
   EREF     =   0.00    reference energy to select bands
   IMIX   =      4    mixing-type and parameters
     AMIX     =   0.40;   BMIX     =  1.00
     AMIX_MAG =   1.60;   BMIX_MAG =  1.00
     AMIN     =   0.10
     WC   =   100.;   INIMIX=   1;  MIXPRE=   1;  MAXMIX= -45

 Intra band minimization:
   WEIMIN = 0.0000     energy-eigenvalue tresh-hold
   EBREAK =  0.13E-08  absolut break condition
   DEPER  =   0.30     relativ break condition  

   TIME   =   0.40     timestep for ELM

  volume/ion in A,a.u.               =    1183.11      7984.03
  Fermi-wavevector in a.u.,A,eV,Ry     =   0.220450  0.416590  0.661218  0.048598
  Thomas-Fermi vector in A             =   1.001172

 Write flags
   LWAVE        =      F    write WAVECAR
   LDOWNSAMPLE  =      F    k-point downsampling of WAVECAR
   LCHARG       =      F    write CHGCAR
   LVTOT        =      F    write LOCPOT, total local potential
   LVHAR        =      F    write LOCPOT, Hartree potential only
   LELF         =      F    write electronic localiz. function (ELF)
   LORBIT       =      0    0 simple, 1 ext, 2 COOP (PROOUT), +10 PAW based schemes


 Dipole corrections
   LMONO  =      F    monopole corrections only (constant potential shift)
   LDIPOL =      F    correct potential (dipole corrections)
   IDIPOL =      0    1-x, 2-y, 3-z, 4-all directions 
   EPSILON=  1.0000000 bulk dielectric constant

 Exchange correlation treatment:
   GGA     =    ML    GGA type
   LEXCH   =    44    internal setting for exchange type
   LIBXC   =     F    Libxc                    
   VOSKOWN =     0    Vosko Wilk Nusair interpolation
   LHFCALC =     F    Hartree Fock is set to
   LHFONE  =     F    Hartree Fock one center treatment
   AEXX    =    0.0000 exact exchange contribution

 vdW DFT:
   LUSE_VDW   =     T    switch on vdW DFT
   IVDW_NL    =     1    kernel type
   LSPIN_VDW  =     F    use spin-polarized vdW DFT
   Zab_VDW    =******    correlation parameter
   PARAM1     =0.1234
   PARAM2     =1.0000
   PARAM3     =0.0000
   -- rVV10 --
   BPARAM     = 6.3000
   CPARAM     = 0.0093

 Linear response parameters
   LEPSILON=     F    determine dielectric tensor
   LRPA    =     F    only Hartree local field effects (RPA)
   LNABLA  =     F    use nabla operator in PAW spheres
   LVEL    =     F    velocity operator in full k-point grid
   CSHIFT  =0.1000    complex shift for real part using Kramers Kronig
   OMEGAMAX=  -1.0    maximum frequency
   DEG_THRESHOLD= 0.2000000E-02 threshold for treating states as degnerate
   RTIME   =   -0.100 relaxation time in fs
  (WPLASMAI=    0.000 imaginary part of plasma frequency in eV, 0.658/RTIME)
   DFIELD  = 0.0000000 0.0000000 0.0000000 field for delta impulse in time

  Optional k-point grid parameters
   LKPOINTS_OPT  =     F    use optional k-point grid
   KPOINTS_OPT_MODE=     1    mode for optional k-point grid

 Orbital magnetization related:
   ORBITALMAG=     F  switch on orbital magnetization
   LCHIMAG   =     F  perturbation theory with respect to B field
   DQ        =  0.001000  dq finite difference perturbation B field
   LLRAUG    =     F  two centre corrections for induced B field
   LBONE     =     F  B-component reconstruction in AE one-centre
   LVGVCALC  =     T  calculate vGv susceptibility
   LVGVAPPL  =     F  apply vGv susceptibility instead of pGv for G=0

 Random number generation:
   RANDOM_GENERATOR = DEFAULT
   PCG_SEED         = not used


--------------------------------------------------------------------------------------------------------


 Static calculation
 charge density and potential will be updated during run
 non-spin polarized calculation
 Conjugate gradient for all bands (Freysoldt, et al. PRB 79, 241103 (2009))
 preconditioned conjugated gradient                                        
 perform sub-space diagonalisation
    before iterative eigenvector-optimisation
 modified Broyden-mixing scheme, WC =      100.0
 initial mixing is a Kerker type mixing with AMIX =  0.4000 and BMIX =      1.0000
 Hartree-type preconditioning will be used
 using additional bands            7
 reciprocal scheme for non local part
 use partial core corrections
 no Harris-corrections to forces 
 use gradient corrections 
 use of overlap-Matrix (Vanderbilt PP)
 Gauss-broadening in eV      SIGMA  =   0.01


--------------------------------------------------------------------------------------------------------


  energy-cutoff  :     1000.00
  volume of cell :    10648.00
      direct lattice vectors                 reciprocal lattice vectors
    22.000000000  0.000000000  0.000000000     0.045454545  0.000000000  0.000000000
     0.000000000 22.000000000  0.000000000     0.000000000  0.045454545  0.000000000
     0.000000000  0.000000000 22.000000000     0.000000000  0.000000000  0.045454545

  length of vectors
    22.000000000 22.000000000 22.000000000     0.045454545  0.045454545  0.045454545



 k-points in units of 2pi/SCALE and weight: auto                                    
   0.00000000  0.00000000  0.00000000       1.000

 k-points in reciprocal lattice and weights: auto                                    
   0.00000000  0.00000000  0.00000000       1.000

 position of ions in fractional coordinates (direct lattice) 
   0.47040386  0.44680205  0.50000705
   0.54804205  0.50596477  0.49997432
   0.49821068  0.54358659  0.49999386
   0.40444659  0.51783295  0.49997341
   0.44073205  0.40754750  0.49998432
   0.59555341  0.51869795  0.49996159
   0.49333068  0.59245250  0.49996159
   0.44865114  0.50510023  0.50003841
   0.53032068  0.44584295  0.49998932

 position of ions in cartesian coordinates  (Angst):
  10.34888500  9.82964500 11.00015500
  12.05692500 11.13122500 10.99943500
  10.96063500 11.95890500 10.99986500
   8.89782500 11.39232500 10.99941500
   9.69610500  8.96604500 10.99965500
  13.10217500 11.41135500 10.99915500
  10.85327500 13.03395500 10.99915500
   9.87032500 11.11220500 11.00084500
  11.66705500  9.80854500 10.99976500



--------------------------------------------------------------------------------------------------------


 use parallel FFT for orbitals z direction half grid
 k-point   1 :   0.0000 0.0000 0.0000  plane waves:  381993

 maximum and minimum number of plane-waves per node :      2992     2977

 maximum number of plane-waves:    381993
 maximum index in each direction: 
   IXMAX=   56   IYMAX=   56   IZMAX=   56
   IXMIN=  -56   IYMIN=  -56   IZMIN=    0


 parallel 3D FFT for wavefunctions:
    minimum data exchange during FFTs selected (reduces bandwidth)
 parallel 3D FFT for charge:
    minimum data exchange during FFTs selected (reduces bandwidth)


 total amount of memory used by VASP MPI-rank0    61522. kBytes
=======================================================================

   base      :      30000. kBytes
   nonl-proj :       1002. kBytes
   fftplans  :      10395. kBytes
   grid      :      19407. kBytes
   one-center:          1. kBytes
   wavefun   :        717. kBytes

     INWAV:  cpu time      0.0001: real time      0.0003
 Broyden mixing: mesh for mixing (old mesh)
   NGX =113   NGY =113   NGZ =113
  (NGX  =480   NGY  =480   NGZ  =480)
  gives a total of ****** points

 initial charge density was supplied:
 charge density of overlapping atoms calculated
 number of electron      26.0000000 magnetization 
 keeping initial charge density in first step


--------------------------------------------------------------------------------------------------------


 Maximum index for augmentation-charges            0 (set IRDMAX)


--------------------------------------------------------------------------------------------------------


 First call to EWALD:  gamma=   0.081
 Maximum number of real-space cells 3x 3x 3
 Maximum number of reciprocal cells 3x 3x 3

    FEWALD:  cpu time      0.0038: real time      0.0038


--------------------------------------- Ionic step        1  -------------------------------------------




--------------------------------------- Iteration      1(   1)  ---------------------------------------


vdW kernel read from vdw_kernel.bindat
  0.0000  0.2424  0.5071  0.7962  1.1119  1.4567  1.8333  2.2446  2.6937  3.1842
  3.7199  4.3049  4.9438  5.6415  6.4036  7.2358  8.1446  9.1372 10.2212 11.4050
 12.6979 14.1099 15.6519 17.3360 19.1751 21.1837 23.3773 25.7729 28.3892 31.2465
 34.3669 37.7748 41.4965 45.5611 50.0000

    POTLOK:  cpu time     11.1843: real time     11.1891
    SETDIJ:  cpu time      0.0777: real time      0.0782
    TRIAL :  cpu time      0.2645: real time      0.2663
    CORREC:  cpu time      0.0018: real time      0.0018
    --------------------------------------------
      LOOP:  cpu time     11.5330: real time     11.5406

 eigenvalue-minimisations  :    56
 total energy-change (2. order) : 0.2460715E+03  (-0.6459583E+03)
 number of electron      26.0000000 magnetization 
 augmentation part       26.0000000 magnetization 

 Free energy of the ion-electron system (eV)
  ---------------------------------------------------
  alpha Z        PSCENC =         0.19661355
  Ewald energy   TEWEN  =      1675.60574849
  -Hartree energ DENC   =     -2382.84811811
  -exchange      EXHF   =         0.00000000
  -V(xc)+E(xc)   XCENC  =        58.21339151
  PAW double counting   =       766.30061187     -746.37122856
  entropy T*S    EENTRO =        -0.00000027
  eigenvalues    EBANDS =      -166.85046596
  atomic energy  EATOM  =      1041.82494915
  ---------------------------------------------------
  free energy    TOTEN  =       246.07150168 eV

  energy without entropy =      246.07150195  energy(sigma->0) =      246.07150182


--------------------------------------------------------------------------------------------------------




--------------------------------------- Iteration      1(   2)  ---------------------------------------


    TRIAL :  cpu time      0.2365: real time      0.2369
    CORREC:  cpu time      0.0001: real time      0.0001
    --------------------------------------------
      LOOP:  cpu time      0.2490: real time      0.2641

 eigenvalue-minimisations  :    60
 total energy-change (2. order) :-0.1212517E+03  (-0.1195294E+03)
 number of electron      26.0000000 magnetization 
 augmentation part       26.0000000 magnetization 

 Free energy of the ion-electron system (eV)
  ---------------------------------------------------
  alpha Z        PSCENC =         0.19661355
  Ewald energy   TEWEN  =      1675.60574849
  -Hartree energ DENC   =     -2382.84811811
  -exchange      EXHF   =         0.00000000
  -V(xc)+E(xc)   XCENC  =        58.21339151
  PAW double counting   =       766.30061187     -746.37122856
  entropy T*S    EENTRO =        -0.00000000
  eigenvalues    EBANDS =      -288.10211810
  atomic energy  EATOM  =      1041.82494915
  ---------------------------------------------------
  free energy    TOTEN  =       124.81984981 eV

  energy without entropy =      124.81984981  energy(sigma->0) =      124.81984981


--------------------------------------------------------------------------------------------------------




--------------------------------------- Iteration      1(   3)  ---------------------------------------


    TRIAL :  cpu time      0.2926: real time      0.2926
    CORREC:  cpu time      0.0001: real time      0.0001
    --------------------------------------------
      LOOP:  cpu time      0.3072: real time      0.3303

 eigenvalue-minimisations  :    80
 total energy-change (2. order) :-0.1359587E+03  (-0.1350094E+03)
 number of electron      26.0000000 magnetization 
 augmentation part       26.0000000 magnetization 

 Free energy of the ion-electron system (eV)
  ---------------------------------------------------
  alpha Z        PSCENC =         0.19661355
  Ewald energy   TEWEN  =      1675.60574849
  -Hartree energ DENC   =     -2382.84811811
  -exchange      EXHF   =         0.00000000
  -V(xc)+E(xc)   XCENC  =        58.21339151
  PAW double counting   =       766.30061187     -746.37122856
  entropy T*S    EENTRO =        -0.00000000
  eigenvalues    EBANDS =      -424.06084193
  atomic energy  EATOM  =      1041.82494915
  ---------------------------------------------------
  free energy    TOTEN  =       -11.13887402 eV

  energy without entropy =      -11.13887402  energy(sigma->0) =      -11.13887402


--------------------------------------------------------------------------------------------------------




--------------------------------------- Iteration      1(   4)  ---------------------------------------


    TRIAL :  cpu time      0.1998: real time      0.1998
    CORREC:  cpu time      0.0001: real time      0.0001
    --------------------------------------------
      LOOP:  cpu time      0.2290: real time      0.2293

 eigenvalue-minimisations  :    48
 total energy-change (2. order) :-0.4233684E+02  (-0.4226515E+02)
 number of electron      26.0000000 magnetization 
 augmentation part       26.0000000 magnetization 

 Free energy of the ion-electron system (eV)
  ---------------------------------------------------
  alpha Z        PSCENC =         0.19661355
  Ewald energy   TEWEN  =      1675.60574849
  -Hartree energ DENC   =     -2382.84811811
  -exchange      EXHF   =         0.00000000
  -V(xc)+E(xc)   XCENC  =        58.21339151
  PAW double counting   =       766.30061187     -746.37122856
  entropy T*S    EENTRO =        -0.00000000
  eigenvalues    EBANDS =      -466.39767927
  atomic energy  EATOM  =      1041.82494915
  ---------------------------------------------------
  free energy    TOTEN  =       -53.47571136 eV

  energy without entropy =      -53.47571136  energy(sigma->0) =      -53.47571136


--------------------------------------------------------------------------------------------------------




--------------------------------------- Iteration      1(   5)  ---------------------------------------


    TRIAL :  cpu time      0.2222: real time      0.2222
    CORREC:  cpu time      0.0001: real time      0.0001
    CHARGE:  cpu time      0.0710: real time      0.0723
    --------------------------------------------
      LOOP:  cpu time      0.3063: real time      0.3262

 eigenvalue-minimisations  :    56
 total energy-change (2. order) :-0.3092503E+01  (-0.3091180E+01)
 number of electron      26.0000000 magnetization 
 augmentation part       -0.0206635 magnetization 

 Free energy of the ion-electron system (eV)
  ---------------------------------------------------
  alpha Z        PSCENC =         0.19661355
  Ewald energy   TEWEN  =      1675.60574849
  -Hartree energ DENC   =     -2382.84811811
  -exchange      EXHF   =         0.00000000
  -V(xc)+E(xc)   XCENC  =        58.21339151
  PAW double counting   =       766.30061187     -746.37122856
  entropy T*S    EENTRO =        -0.00000000
  eigenvalues    EBANDS =      -469.49018267
  atomic energy  EATOM  =      1041.82494915
  ---------------------------------------------------
  free energy    TOTEN  =       -56.56821475 eV

  energy without entropy =      -56.56821475  energy(sigma->0) =      -56.56821475


--------------------------------------------------------------------------------------------------------




--------------------------------------- Iteration      1(   6)  ---------------------------------------


    POTLOK:  cpu time     10.6374: real time     10.6407
    SETDIJ:  cpu time      0.0701: real time      0.0701
    TRIAL :  cpu time      0.1224: real time      0.1232
    CORREC:  cpu time     10.9584: real time     10.9617
    CHARGE:  cpu time      0.0426: real time      0.0426
    --------------------------------------------
      LOOP:  cpu time     21.8465: real time     21.8675

 eigenvalue-minimisations  :     0
 total energy-change (2. order) : 0.1279016E+02  (-0.5550529E+01)
 number of electron      26.0000000 magnetization 
 augmentation part       -0.0345390 magnetization 

 Free energy of the ion-electron system (eV)
  ---------------------------------------------------
  alpha Z        PSCENC =         0.19661355
  Ewald energy   TEWEN  =      1675.60574849
  -Hartree energ DENC   =     -2627.95909949
  -exchange      EXHF   =         0.00000000
  -V(xc)+E(xc)   XCENC  =        68.28712916
  PAW double counting   =      5237.71812639    -5220.46780197
  entropy T*S    EENTRO =        -0.00000000
  eigenvalues    EBANDS =      -218.98371792
  atomic energy  EATOM  =      1041.82494915
  ---------------------------------------------------
  free energy    TOTEN  =       -43.77805265 eV

  energy without entropy =      -43.77805265  energy(sigma->0) =      -43.77805265


--------------------------------------------------------------------------------------------------------




--------------------------------------- Iteration      1(   7)  ---------------------------------------


    POTLOK:  cpu time     10.5446: real time     10.5476
    SETDIJ:  cpu time      0.0712: real time      0.0712
    TRIAL :  cpu time      0.1044: real time      0.1044
    CORREC:  cpu time     10.8868: real time     10.8901
    CHARGE:  cpu time      0.0433: real time      0.0433
    --------------------------------------------
      LOOP:  cpu time     21.6826: real time     21.6892

 eigenvalue-minimisations  :     0
 total energy-change (2. order) :-0.5643155E+01  (-0.5207088E+00)
 number of electron      26.0000000 magnetization 
 augmentation part       -0.0485275 magnetization 

 Free energy of the ion-electron system (eV)
  ---------------------------------------------------
  alpha Z        PSCENC =         0.19661355
  Ewald energy   TEWEN  =      1675.60574849
  -Hartree energ DENC   =     -2509.48194617
  -exchange      EXHF   =         0.00000000
  -V(xc)+E(xc)   XCENC  =        63.71866877
  PAW double counting   =      7276.38937562    -7258.06434601
  entropy T*S    EENTRO =        -0.00000000
  eigenvalues    EBANDS =      -339.61027100
  atomic energy  EATOM  =      1041.82494915
  ---------------------------------------------------
  free energy    TOTEN  =       -49.42120760 eV

  energy without entropy =      -49.42120760  energy(sigma->0) =      -49.42120760


--------------------------------------------------------------------------------------------------------




--------------------------------------- Iteration      1(   8)  ---------------------------------------


    POTLOK:  cpu time     10.6881: real time     10.6910
    SETDIJ:  cpu time      0.0703: real time      0.0703
    TRIAL :  cpu time      0.1037: real time      0.1037
    CORREC:  cpu time     10.7660: real time     10.7692
    CHARGE:  cpu time      0.0431: real time      0.0431
    --------------------------------------------
      LOOP:  cpu time     21.6868: real time     21.7104

 eigenvalue-minimisations  :     0
 total energy-change (2. order) :-0.5221347E+00  (-0.2029604E+00)
 number of electron      26.0000000 magnetization 
 augmentation part       -0.0515532 magnetization 

 Free energy of the ion-electron system (eV)
  ---------------------------------------------------
  alpha Z        PSCENC =         0.19661355
  Ewald energy   TEWEN  =      1675.60574849
  -Hartree energ DENC   =     -2508.48225639
  -exchange      EXHF   =         0.00000000
  -V(xc)+E(xc)   XCENC  =        63.72939799
  PAW double counting   =      8003.87871916    -7985.41117300
  entropy T*S    EENTRO =        -0.00000000
  eigenvalues    EBANDS =      -341.28534121
  atomic energy  EATOM  =      1041.82494915
  ---------------------------------------------------
  free energy    TOTEN  =       -49.94334226 eV

  energy without entropy =      -49.94334226  energy(sigma->0) =      -49.94334226


--------------------------------------------------------------------------------------------------------




--------------------------------------- Iteration      1(   9)  ---------------------------------------


    POTLOK:  cpu time     10.7676: real time     10.7707
    SETDIJ:  cpu time      0.0705: real time      0.0705
    TRIAL :  cpu time      0.1030: real time      0.1030
    CORREC:  cpu time     10.9067: real time     10.9094
    CHARGE:  cpu time      0.0433: real time      0.0433
    --------------------------------------------
      LOOP:  cpu time     21.9067: real time     21.9311

 eigenvalue-minimisations  :     0
 total energy-change (2. order) :-0.2023023E+00  (-0.9515032E-01)
 number of electron      26.0000000 magnetization 
 augmentation part       -0.0519836 magnetization 

 Free energy of the ion-electron system (eV)
  ---------------------------------------------------
  alpha Z        PSCENC =         0.19661355
  Ewald energy   TEWEN  =      1675.60574849
  -Hartree energ DENC   =     -2505.79907319
  -exchange      EXHF   =         0.00000000
  -V(xc)+E(xc)   XCENC  =        63.65231740
  PAW double counting   =      8444.52237096    -8425.97569107
  entropy T*S    EENTRO =        -0.00000000
  eigenvalues    EBANDS =      -344.17287983
  atomic energy  EATOM  =      1041.82494915
  ---------------------------------------------------
  free energy    TOTEN  =       -50.14564454 eV

  energy without entropy =      -50.14564454  energy(sigma->0) =      -50.14564454


--------------------------------------------------------------------------------------------------------




--------------------------------------- Iteration      1(  10)  ---------------------------------------


    POTLOK:  cpu time     10.7078: real time     10.7103
    SETDIJ:  cpu time      0.0702: real time      0.0702
    TRIAL :  cpu time      0.1052: real time      0.1055
    CORREC:  cpu time     10.8871: real time     10.8896
    CHARGE:  cpu time      0.0431: real time      0.0433
    --------------------------------------------
      LOOP:  cpu time     21.8277: real time     21.8487

 eigenvalue-minimisations  :     0
 total energy-change (2. order) :-0.9382334E-01  (-0.3097535E-01)
 number of electron      26.0000000 magnetization 
 augmentation part       -0.0514580 magnetization 

 Free energy of the ion-electron system (eV)
  ---------------------------------------------------
  alpha Z        PSCENC =         0.19661355
  Ewald energy   TEWEN  =      1675.60574849
  -Hartree energ DENC   =     -2502.76859132
  -exchange      EXHF   =         0.00000000
  -V(xc)+E(xc)   XCENC  =        63.57371617
  PAW double counting   =      8456.19507869    -8437.62483768
  entropy T*S    EENTRO =        -0.00000000
  eigenvalues    EBANDS =      -347.24214493
  atomic energy  EATOM  =      1041.82494915
  ---------------------------------------------------
  free energy    TOTEN  =       -50.23946788 eV

  energy without entropy =      -50.23946788  energy(sigma->0) =      -50.23946788


--------------------------------------------------------------------------------------------------------




--------------------------------------- Iteration      1(  11)  ---------------------------------------


    POTLOK:  cpu time     10.5502: real time     10.5525
    SETDIJ:  cpu time      0.0703: real time      0.0703
    TRIAL :  cpu time      0.1059: real time      0.1059
    CORREC:  cpu time     10.8440: real time     10.8464
    CHARGE:  cpu time      0.0434: real time      0.0434
    --------------------------------------------
      LOOP:  cpu time     21.6273: real time     21.6485

 eigenvalue-minimisations  :     0
 total energy-change (2. order) :-0.3083224E-01  (-0.8703730E-02)
 number of electron      26.0000000 magnetization 
 augmentation part       -0.0507974 magnetization 

 Free energy of the ion-electron system (eV)
  ---------------------------------------------------
  alpha Z        PSCENC =         0.19661355
  Ewald energy   TEWEN  =      1675.60574849
  -Hartree energ DENC   =     -2502.46529600
  -exchange      EXHF   =         0.00000000
  -V(xc)+E(xc)   XCENC  =        63.57905780
  PAW double counting   =      8277.34368358    -8258.79202476
  entropy T*S    EENTRO =        -0.00000000
  eigenvalues    EBANDS =      -347.56303192
  atomic energy  EATOM  =      1041.82494915
  ---------------------------------------------------
  free energy    TOTEN  =       -50.27030012 eV

  energy without entropy =      -50.27030012  energy(sigma->0) =      -50.27030012


--------------------------------------------------------------------------------------------------------




--------------------------------------- Iteration      1(  12)  ---------------------------------------


    POTLOK:  cpu time     10.7360: real time     10.7393
    SETDIJ:  cpu time      0.0715: real time      0.0715
    TRIAL :  cpu time      0.1061: real time      0.1061
    CORREC:  cpu time     10.7543: real time     10.7572
    CHARGE:  cpu time      0.0430: real time      0.0430
    --------------------------------------------
      LOOP:  cpu time     21.7413: real time     21.7479

 eigenvalue-minimisations  :     0
 total energy-change (2. order) :-0.8692432E-02  (-0.2588019E-02)
 number of electron      26.0000000 magnetization 
 augmentation part       -0.0504728 magnetization 

 Free energy of the ion-electron system (eV)
  ---------------------------------------------------
  alpha Z        PSCENC =         0.19661355
  Ewald energy   TEWEN  =      1675.60574849
  -Hartree energ DENC   =     -2502.09860210
  -exchange      EXHF   =         0.00000000
  -V(xc)+E(xc)   XCENC  =        63.56063203
  PAW double counting   =      8164.31899987    -8145.78048196
  entropy T*S    EENTRO =        -0.00000000
  eigenvalues    EBANDS =      -347.90685158
  atomic energy  EATOM  =      1041.82494915
  ---------------------------------------------------
  free energy    TOTEN  =       -50.27899255 eV

  energy without entropy =      -50.27899255  energy(sigma->0) =      -50.27899255


--------------------------------------------------------------------------------------------------------




--------------------------------------- Iteration      1(  13)  ---------------------------------------


    POTLOK:  cpu time     10.7603: real time     10.7635
    SETDIJ:  cpu time      0.0705: real time      0.0705
    TRIAL :  cpu time      0.1033: real time      0.1033
    CORREC:  cpu time     10.7869: real time     10.7898
    CHARGE:  cpu time      0.0433: real time      0.0433
    --------------------------------------------
      LOOP:  cpu time     21.7811: real time     21.8025

 eigenvalue-minimisations  :     0
 total energy-change (2. order) :-0.2588259E-02  (-0.8114899E-03)
 number of electron      26.0000000 magnetization 
 augmentation part       -0.0503499 magnetization 

 Free energy of the ion-electron system (eV)
  ---------------------------------------------------
  alpha Z        PSCENC =         0.19661355
  Ewald energy   TEWEN  =      1675.60574849
  -Hartree energ DENC   =     -2501.87099095
  -exchange      EXHF   =         0.00000000
  -V(xc)+E(xc)   XCENC  =        63.54402826
  PAW double counting   =      8120.36239201    -8101.82954863
  entropy T*S    EENTRO =        -0.00000000
  eigenvalues    EBANDS =      -348.11477269
  atomic energy  EATOM  =      1041.82494915
  ---------------------------------------------------
  free energy    TOTEN  =       -50.28158081 eV

  energy without entropy =      -50.28158081  energy(sigma->0) =      -50.28158081


--------------------------------------------------------------------------------------------------------




--------------------------------------- Iteration      1(  14)  ---------------------------------------


    POTLOK:  cpu time     10.7564: real time     10.7593
    SETDIJ:  cpu time      0.0706: real time      0.0706
    TRIAL :  cpu time      0.1049: real time      0.1049
    CORREC:  cpu time     10.8052: real time     10.8076
    CHARGE:  cpu time      0.0429: real time      0.0431
    --------------------------------------------
      LOOP:  cpu time     21.7946: real time     21.8173

 eigenvalue-minimisations  :     0
 total energy-change (2. order) :-0.8127625E-03  (-0.2636887E-03)
 number of electron      26.0000000 magnetization 
 augmentation part       -0.0503552 magnetization 

 Free energy of the ion-electron system (eV)
  ---------------------------------------------------
  alpha Z        PSCENC =         0.19661355
  Ewald energy   TEWEN  =      1675.60574849
  -Hartree energ DENC   =     -2502.06224838
  -exchange      EXHF   =         0.00000000
  -V(xc)+E(xc)   XCENC  =        63.54716509
  PAW double counting   =      8109.72643492    -8091.19702167
  entropy T*S    EENTRO =        -0.00000000
  eigenvalues    EBANDS =      -347.92403473
  atomic energy  EATOM  =      1041.82494915
  ---------------------------------------------------
  free energy    TOTEN  =       -50.28239357 eV

  energy without entropy =      -50.28239357  energy(sigma->0) =      -50.28239357


--------------------------------------------------------------------------------------------------------




--------------------------------------- Iteration      1(  15)  ---------------------------------------


    POTLOK:  cpu time     10.5539: real time     10.5566
    SETDIJ:  cpu time      0.0706: real time      0.0706
    TRIAL :  cpu time      0.1034: real time      0.1034
    CORREC:  cpu time     10.8846: real time     10.8877
    CHARGE:  cpu time      0.0432: real time      0.0432
    --------------------------------------------
      LOOP:  cpu time     21.6699: real time     21.6921

 eigenvalue-minimisations  :     0
 total energy-change (2. order) :-0.2641239E-03  (-0.9581462E-04)
 number of electron      26.0000000 magnetization 
 augmentation part       -0.0503670 magnetization 

 Free energy of the ion-electron system (eV)
  ---------------------------------------------------
  alpha Z        PSCENC =         0.19661355
  Ewald energy   TEWEN  =      1675.60574849
  -Hartree energ DENC   =     -2502.09442988
  -exchange      EXHF   =         0.00000000
  -V(xc)+E(xc)   XCENC  =        63.54699905
  PAW double counting   =      8113.03600154    -8094.50658012
  entropy T*S    EENTRO =        -0.00000000
  eigenvalues    EBANDS =      -347.89195948
  atomic energy  EATOM  =      1041.82494915
  ---------------------------------------------------
  free energy    TOTEN  =       -50.28265769 eV

  energy without entropy =      -50.28265769  energy(sigma->0) =      -50.28265769


--------------------------------------------------------------------------------------------------------




--------------------------------------- Iteration      1(  16)  ---------------------------------------


    POTLOK:  cpu time     10.6499: real time     10.6526
    SETDIJ:  cpu time      0.0707: real time      0.0707
    TRIAL :  cpu time      0.1035: real time      0.1035
    CORREC:  cpu time     10.7295: real time     10.7326
    CHARGE:  cpu time      0.0437: real time      0.0437
    --------------------------------------------
      LOOP:  cpu time     21.6118: real time     21.6338

 eigenvalue-minimisations  :     0
 total energy-change (2. order) :-0.9594578E-04  (-0.3565884E-04)
 number of electron      26.0000000 magnetization 
 augmentation part       -0.0503471 magnetization 

 Free energy of the ion-electron system (eV)
  ---------------------------------------------------
  alpha Z        PSCENC =         0.19661355
  Ewald energy   TEWEN  =      1675.60574849
  -Hartree energ DENC   =     -2502.12687943
  -exchange      EXHF   =         0.00000000
  -V(xc)+E(xc)   XCENC  =        63.54767524
  PAW double counting   =      8116.18013651    -8097.65012979
  entropy T*S    EENTRO =        -0.00000000
  eigenvalues    EBANDS =      -347.86086736
  atomic energy  EATOM  =      1041.82494915
  ---------------------------------------------------
  free energy    TOTEN  =       -50.28275364 eV

  energy without entropy =      -50.28275364  energy(sigma->0) =      -50.28275364


--------------------------------------------------------------------------------------------------------




--------------------------------------- Iteration      1(  17)  ---------------------------------------


    POTLOK:  cpu time     10.7490: real time     10.7520
    SETDIJ:  cpu time      0.0705: real time      0.0705
    TRIAL :  cpu time      0.1037: real time      0.1037
    CORREC:  cpu time     10.7889: real time     10.7917
    CHARGE:  cpu time      0.0426: real time      0.0426
    --------------------------------------------
      LOOP:  cpu time     21.7675: real time     21.7908

 eigenvalue-minimisations  :     0
 total energy-change (2. order) :-0.3577824E-04  (-0.1232558E-04)
 number of electron      26.0000000 magnetization 
 augmentation part       -0.0503295 magnetization 

 Free energy of the ion-electron system (eV)
  ---------------------------------------------------
  alpha Z        PSCENC =         0.19661355
  Ewald energy   TEWEN  =      1675.60574849
  -Hartree energ DENC   =     -2502.18789684
  -exchange      EXHF   =         0.00000000
  -V(xc)+E(xc)   XCENC  =        63.54992934
  PAW double counting   =      8116.21284114    -8097.68272965
  entropy T*S    EENTRO =        -0.00000000
  eigenvalues    EBANDS =      -347.80224460
  atomic energy  EATOM  =      1041.82494915
  ---------------------------------------------------
  free energy    TOTEN  =       -50.28278942 eV

  energy without entropy =      -50.28278942  energy(sigma->0) =      -50.28278942


--------------------------------------------------------------------------------------------------------




--------------------------------------- Iteration      1(  18)  ---------------------------------------


    POTLOK:  cpu time     10.6403: real time     10.6431
    SETDIJ:  cpu time      0.0708: real time      0.0708
    TRIAL :  cpu time      0.1047: real time      0.1047
    CORREC:  cpu time     10.8311: real time     10.8341
    CHARGE:  cpu time      0.0434: real time      0.0434
    --------------------------------------------
      LOOP:  cpu time     21.7218: real time     21.7279

 eigenvalue-minimisations  :     0
 total energy-change (2. order) :-0.1241557E-04  (-0.4252792E-05)
 number of electron      26.0000000 magnetization 
 augmentation part       -0.0503135 magnetization 

 Free energy of the ion-electron system (eV)
  ---------------------------------------------------
  alpha Z        PSCENC =         0.19661355
  Ewald energy   TEWEN  =      1675.60574849
  -Hartree energ DENC   =     -2502.17603482
  -exchange      EXHF   =         0.00000000
  -V(xc)+E(xc)   XCENC  =        63.54966804
  PAW double counting   =      8116.00055438    -8097.47021692
  entropy T*S    EENTRO =        -0.00000000
  eigenvalues    EBANDS =      -347.81408370
  atomic energy  EATOM  =      1041.82494915
  ---------------------------------------------------
  free energy    TOTEN  =       -50.28280183 eV

  energy without entropy =      -50.28280183  energy(sigma->0) =      -50.28280183


--------------------------------------------------------------------------------------------------------




--------------------------------------- Iteration      1(  19)  ---------------------------------------


    POTLOK:  cpu time     10.5377: real time     10.5405
    SETDIJ:  cpu time      0.0708: real time      0.0708
    TRIAL :  cpu time      0.1035: real time      0.1035
    CORREC:  cpu time     10.8987: real time     10.9018
    CHARGE:  cpu time      0.0427: real time      0.0427
    --------------------------------------------
      LOOP:  cpu time     21.6712: real time     21.6932

 eigenvalue-minimisations  :     0
 total energy-change (2. order) :-0.4268856E-05  (-0.1483655E-05)
 number of electron      26.0000000 magnetization 
 augmentation part       -0.0503091 magnetization 

 Free energy of the ion-electron system (eV)
  ---------------------------------------------------
  alpha Z        PSCENC =         0.19661355
  Ewald energy   TEWEN  =      1675.60574849
  -Hartree energ DENC   =     -2502.18990211
  -exchange      EXHF   =         0.00000000
  -V(xc)+E(xc)   XCENC  =        63.55034381
  PAW double counting   =      8116.12715566    -8097.59691536
  entropy T*S    EENTRO =        -0.00000000
  eigenvalues    EBANDS =      -347.80079929
  atomic energy  EATOM  =      1041.82494915
  ---------------------------------------------------
  free energy    TOTEN  =       -50.28280610 eV

  energy without entropy =      -50.28280610  energy(sigma->0) =      -50.28280610


--------------------------------------------------------------------------------------------------------




--------------------------------------- Iteration      1(  20)  ---------------------------------------


    POTLOK:  cpu time     10.5862: real time     10.5891
    SETDIJ:  cpu time      0.0706: real time      0.0706
    TRIAL :  cpu time      0.1037: real time      0.1037
    CORREC:  cpu time     10.8244: real time     10.8271
    CHARGE:  cpu time      0.0428: real time      0.0428
    --------------------------------------------
      LOOP:  cpu time     21.6421: real time     21.6658

 eigenvalue-minimisations  :     0
 total energy-change (2. order) :-0.1494894E-05  (-0.5612981E-06)
 number of electron      26.0000000 magnetization 
 augmentation part       -0.0503075 magnetization 

 Free energy of the ion-electron system (eV)
  ---------------------------------------------------
  alpha Z        PSCENC =         0.19661355
  Ewald energy   TEWEN  =      1675.60574849
  -Hartree energ DENC   =     -2502.18285061
  -exchange      EXHF   =         0.00000000
  -V(xc)+E(xc)   XCENC  =        63.55013450
  PAW double counting   =      8116.80412748    -8098.27386064
  entropy T*S    EENTRO =        -0.00000000
  eigenvalues    EBANDS =      -347.80766951
  atomic energy  EATOM  =      1041.82494915
  ---------------------------------------------------
  free energy    TOTEN  =       -50.28280760 eV

  energy without entropy =      -50.28280760  energy(sigma->0) =      -50.28280760


--------------------------------------------------------------------------------------------------------




--------------------------------------- Iteration      1(  21)  ---------------------------------------


    POTLOK:  cpu time     10.7169: real time     10.7194
    SETDIJ:  cpu time      0.0705: real time      0.0707
    TRIAL :  cpu time      0.1035: real time      0.1035
    CORREC:  cpu time     10.7411: real time     10.7436
    CHARGE:  cpu time      0.0431: real time      0.0431
    --------------------------------------------
      LOOP:  cpu time     21.6890: real time     21.7124

 eigenvalue-minimisations  :     0
 total energy-change (2. order) :-0.5605789E-06  (-0.1984679E-06)
 number of electron      26.0000000 magnetization 
 augmentation part       -0.0503067 magnetization 

 Free energy of the ion-electron system (eV)
  ---------------------------------------------------
  alpha Z        PSCENC =         0.19661355
  Ewald energy   TEWEN  =      1675.60574849
  -Hartree energ DENC   =     -2502.18178583
  -exchange      EXHF   =         0.00000000
  -V(xc)+E(xc)   XCENC  =        63.55009846
  PAW double counting   =      8117.41641130    -8098.88615327
  entropy T*S    EENTRO =        -0.00000000
  eigenvalues    EBANDS =      -347.80869001
  atomic energy  EATOM  =      1041.82494915
  ---------------------------------------------------
  free energy    TOTEN  =       -50.28280816 eV

  energy without entropy =      -50.28280816  energy(sigma->0) =      -50.28280816


--------------------------------------------------------------------------------------------------------




--------------------------------------- Iteration      1(  22)  ---------------------------------------


    POTLOK:  cpu time     10.6052: real time     10.6079
    SETDIJ:  cpu time      0.0707: real time      0.0707
    TRIAL :  cpu time      0.1039: real time      0.1039
    CORREC:  cpu time     10.8329: real time     10.8355
    CHARGE:  cpu time      0.0432: real time      0.0432
    --------------------------------------------
      LOOP:  cpu time     21.6862: real time     21.6918

 eigenvalue-minimisations  :     0
 total energy-change (2. order) :-0.1991521E-06  (-0.6106608E-07)
 number of electron      26.0000000 magnetization 
 augmentation part       -0.0503063 magnetization 

 Free energy of the ion-electron system (eV)
  ---------------------------------------------------
  alpha Z        PSCENC =         0.19661355
  Ewald energy   TEWEN  =      1675.60574849
  -Hartree energ DENC   =     -2502.18104217
  -exchange      EXHF   =         0.00000000
  -V(xc)+E(xc)   XCENC  =        63.55006160
  PAW double counting   =      8117.68585741    -8099.15560628
  entropy T*S    EENTRO =        -0.00000000
  eigenvalues    EBANDS =      -347.80939011
  atomic energy  EATOM  =      1041.82494915
  ---------------------------------------------------
  free energy    TOTEN  =       -50.28280836 eV

  energy without entropy =      -50.28280836  energy(sigma->0) =      -50.28280836


--------------------------------------------------------------------------------------------------------




--------------------------------------- Iteration      1(  23)  ---------------------------------------


    POTLOK:  cpu time     10.6517: real time     10.6546
    SETDIJ:  cpu time      0.0709: real time      0.0709
    TRIAL :  cpu time      0.1032: real time      0.1032
    CORREC:  cpu time     10.8835: real time     10.8862
    EDDIAG:  cpu time      0.0584: real time      0.0591
    CHARGE:  cpu time      0.0439: real time      0.0439
    --------------------------------------------
      LOOP:  cpu time     21.8259: real time     21.8487

 eigenvalue-minimisations  :     0
 total energy-change (2. order) :-0.6198570E-07  (-0.2010947E-07)
 number of electron      26.0000000 magnetization 
 augmentation part       -0.0503060 magnetization 

 Free energy of the ion-electron system (eV)
  ---------------------------------------------------
  alpha Z        PSCENC =         0.19661355
  Ewald energy   TEWEN  =      1675.60574849
  -Hartree energ DENC   =     -2502.17987191
  -exchange      EXHF   =         0.00000000
  -V(xc)+E(xc)   XCENC  =        63.55001323
  PAW double counting   =      8117.70892229    -8099.17867031
  entropy T*S    EENTRO =        -0.00000000
  eigenvalues    EBANDS =      -347.81051291
  atomic energy  EATOM  =      1041.82494915
  ---------------------------------------------------
  free energy    TOTEN  =       -50.28280842 eV

  energy without entropy =      -50.28280842  energy(sigma->0) =      -50.28280842


--------------------------------------------------------------------------------------------------------


  average scaling for gradient   0.8916


 average (electrostatic) potential at core
  the test charge radii are     0.5770  0.4325  0.5902
  (the norm of the test charge is              1.0000)
       1 -88.7345       2 -87.6700       3 -88.1486       4 -50.2605       5 -48.1950
       6 -47.5213       7 -48.2307       8-105.6965       9-103.3975



 E-fermi :  -5.8599     XC(G=0):  -0.2005     alpha+bet : -0.0573

 Fermi energy:        -5.8598610463

 k-point     1 :       0.0000    0.0000    0.0000
  band No.  band energies     occupation 
      1     -25.5288      2.00000
      2     -21.8847      2.00000
      3     -18.6443      2.00000
      4     -15.5511      2.00000
      5     -14.8596      2.00000
      6     -14.1781      2.00000
      7     -11.1756      2.00000
      8     -11.1135      2.00000
      9     -10.8129      2.00000
     10     -10.3303      2.00000
     11      -7.2347      2.00000
     12      -6.6060      2.00000
     13      -5.9853      2.00000
     14      -1.2557      0.00000
     15      -0.9143      0.00000
     16      -0.3339      0.00000
     17      -0.1471      0.00000
     18      -0.0889      0.00000
     19       0.0315      0.00000
     20       0.1974      0.00000


--------------------------------------------------------------------------------------------------------


 soft charge-density along one line, spin component           1
         0         1         2         3         4         5         6         7         8         9
 total charge-density along one line

 pseudopotential strength for first ion, spin component:           1
 12.688  21.355   0.004   0.000   0.001   0.007   0.000   0.002
 21.355  35.942   0.006   0.000   0.002   0.012   0.000   0.003
  0.004   0.006  -3.373  -0.000   0.011  -6.047  -0.000   0.019
  0.000   0.000  -0.000  -3.380   0.000  -0.000  -6.059   0.000
  0.001   0.002   0.011   0.000  -3.360   0.019   0.000  -6.024
  0.007   0.012  -6.047  -0.000   0.019 -10.820  -0.000   0.034
  0.000   0.000  -0.000  -6.059   0.000  -0.000 -10.839   0.000
  0.002   0.003   0.019   0.000  -6.024   0.034   0.000 -10.777
 total augmentation occupancy for first ion, spin component:           1
  6.356  -2.127   1.123  -0.000   0.998  -0.526   0.000  -0.465
 -2.127   0.797  -0.608  -0.000  -0.474   0.261  -0.000   0.224
  1.123  -0.608   5.800   0.002  -0.160  -1.882  -0.001   0.125
 -0.000  -0.000   0.002   2.113  -0.001  -0.001  -0.381   0.000
  0.998  -0.474  -0.160  -0.001   6.521   0.125   0.000  -2.151
 -0.526   0.261  -1.882  -0.001   0.125   0.630   0.000  -0.061
  0.000  -0.000  -0.001  -0.381   0.000   0.000   0.088  -0.000
 -0.465   0.224   0.125   0.000  -2.151  -0.061  -0.000   0.740


------------------------ aborting loop because EDIFF is reached ----------------------------------------


    FORLOC:  cpu time      0.0165: real time      0.0165
    FORNL :  cpu time      0.0145: real time      0.0148
    FORCOR:  cpu time     10.6862: real time     10.6890
    OFIELD:  cpu time      0.0027: real time      0.0027

 VOLUME and BASIS-vectors are now :
 -----------------------------------------------------------------------------
  energy-cutoff  :     1000.00
  volume of cell :    10648.00
      direct lattice vectors                 reciprocal lattice vectors
    22.000000000  0.000000000  0.000000000     0.045454545  0.000000000  0.000000000
     0.000000000 22.000000000  0.000000000     0.000000000  0.045454545  0.000000000
     0.000000000  0.000000000 22.000000000     0.000000000  0.000000000  0.045454545

  length of vectors
    22.000000000 22.000000000 22.000000000     0.045454545  0.045454545  0.045454545


 FORCES acting on ions:
    Electron-Ion                     Ewald-Force                    Non-Local-Force
 -----------------------------------------------------------------------------------------------
   0.134E+03 0.188E+03 -.347E-01   -.132E+03 -.194E+03 0.249E-01   -.231E+01 0.626E+01 0.112E-01
   -.207E+03 -.795E+02 0.108E+00   0.208E+03 0.833E+02 -.116E+00   -.667E+00 -.361E+01 0.903E-02
   -.157E+02 -.223E+03 0.232E-01   0.250E+02 0.226E+03 -.335E-01   -.935E+01 -.296E+01 0.104E-01
   0.957E+02 -.279E+02 0.976E-01   -.103E+03 0.300E+02 -.107E+00   0.748E+01 -.215E+01 0.109E-01
   0.480E+02 0.678E+02 0.300E-01   -.516E+02 -.727E+02 -.316E-01   0.367E+01 0.509E+01 0.329E-02
   -.779E+02 -.226E+02 0.245E-01   0.837E+02 0.242E+02 -.263E-01   -.602E+01 -.157E+01 0.155E-02
   0.379E+01 -.811E+02 0.461E-01   -.428E+01 0.871E+02 -.490E-01   0.509E+00 -.621E+01 0.442E-02
   0.237E+03 -.758E+02 -.328E+00   -.237E+03 0.751E+02 0.382E+00   -.751E+00 0.833E+00 -.599E-01
   -.187E+03 0.229E+03 0.324E-01   0.211E+03 -.259E+03 -.435E-01   -.240E+02 0.296E+02 0.977E-02
 -----------------------------------------------------------------------------------------------
   0.314E+02 -.253E+02 -.680E-03   -.284E-13 0.000E+00 0.416E-16   -.314E+02 0.253E+02 0.644E-03


 POSITION                                       TOTAL-FORCE (eV/Angst)
 -----------------------------------------------------------------------------------
     10.34888      9.82965     11.00015        -0.235991     -0.490976      0.001069
     12.05692     11.13123     10.99944         0.391040      0.293967      0.001203
     10.96063     11.95891     10.99986         0.172147      0.456076     -0.000084
      8.89782     11.39232     10.99941         0.131784     -0.040179      0.001455
      9.69611      8.96604     10.99965         0.109904      0.149449      0.001656
     13.10218     11.41135     10.99915        -0.176275     -0.043135     -0.000276
     10.85327     13.03396     10.99915         0.024185     -0.185009      0.001465
      9.87033     11.11221     11.00085        -0.511158      0.120867     -0.005034
     11.66706      9.80855     10.99976         0.094365     -0.261058     -0.001454
 -----------------------------------------------------------------------------------
    total drift:                                0.000396      0.000044     -0.000036


--------------------------------------------------------------------------------------------------------



  FREE ENERGIE OF THE ION-ELECTRON SYSTEM (eV)
  ---------------------------------------------------
  free  energy   TOTEN  =       -50.28280842 eV

  energy  without entropy=      -50.28280842  energy(sigma->0) =      -50.28280842



--------------------------------------------------------------------------------------------------------


    POTLOK:  cpu time     10.8272: real time     10.8299


--------------------------------------------------------------------------------------------------------


 stress matrix after NEB project (eV)
      0.00000      0.00000      0.00000
      0.00000      0.00000      0.00000
      0.00000      0.00000      0.00000
  FORCES: max atom, RMS     0.544748    0.372356
  FORCE total and by dimension    1.117069    0.511158
  Stress total and by dimension    0.000000    0.000000
     LOOP+:  cpu time    425.3802: real time    425.8125
    4ORBIT:  cpu time      0.0000: real time      0.0000

 total amount of memory used by VASP MPI-rank0    61522. kBytes
=======================================================================

   base      :      30000. kBytes
   nonl-proj :       1002. kBytes
   fftplans  :      10395. kBytes
   grid      :      19407. kBytes
   one-center:          1. kBytes
   wavefun   :        717. kBytes

  
  
 General timing and accounting informations for this job:
 ========================================================
  
                  Total CPU time used (sec):      477.044
                            User time (sec):      472.073
                          System time (sec):        4.971
                         Elapsed time (sec):      497.306
  
                   Maximum memory used (kb):      455320.
                   Average memory used (kb):          N/A
  
                          Minor page faults:       165664
                          Major page faults:          284
                 Voluntary context switches:        11547
