 vasp.6.4.1 05Apr23 (build Jun  6 2023 14:46:38) gamma-only                      
 executed on        HPECrayEX_GCC date 2024.08.21  20:56:13
 running  512 mpi-ranks, with    1 threads/rank, on    4 nodes
 distrk:  each k-point on  256 cores,    2 groups
 distr:  one band on NCORE=  32 cores,    8 groups


--------------------------------------------------------------------------------------------------------


 INCAR:
   ALGO = Conjugate
   KPAR = 2
   NCORE = 32
   ISMEAR = 0
   SIGMA = 0.01
   PREC = Accurate
   EDIFF = 1E-7
   ENCUT = 1000
   ISIF = 0
   METAGGA = RSCAN
   LASPH = .TRUE.
   SYMPREC = 1E-7
   LWAVE = .FALSE.
   LCHARG = .FALSE.
   LWAVE = .FALSE.
   LCHARG = .FALSE.

 POTCAR:    PAW_PBE C_h 06Feb2004                 
 POTCAR:    PAW_PBE H_h 06Feb2004                 
 POTCAR:    PAW_PBE N_h 06Feb2004                 
 POTCAR:    PAW_PBE C_h 06Feb2004                 
   VRHFIN =C: s2p2                                                                                  
   LEXCH  = PE                                                                                      
   EATOM  =   147.1560 eV,   10.8157 Ry                                                             
                                                                                                    
   TITEL  = PAW_PBE C_h 06Feb2004                                                                   
   LULTRA =        F    use ultrasoft PP ?                                                          
   IUNSCR =        1    unscreen: 0-lin 1-nonlin 2-no                                               
   RPACOR =    0.800    partial core radius                                                         
   POMASS =   12.011; ZVAL   =    4.000    mass and valenz                                          
   RCORE  =    1.100    outmost cutoff radius                                                       
   RWIGS  =    1.630; RWIGS  =    0.863    wigner-seitz radius (au A)                               
   ENMAX  =  700.000; ENMIN  =  500.000 eV                                                          
   ICORE  =        2    local potential                                                             
   LCOR   =        T    correct aug charges                                                         
   LPAW   =        T    paw PP                                                                      
   EAUG   =  946.768                                                                                
   DEXC   =    0.000                                                                                
   RMAX   =    1.128    core radius for proj-oper                                                   
   RAUG   =    1.300    factor for augmentation sphere                                              
   RDEP   =    1.162    radius for radial grids                                                     
   RDEPT  =    1.088    core radius for aug-charge                                                  
                                                                                                    
   Atomic configuration                                                                             
    4 entries                                                                                       
     n  l   j            E        occ.                                                              
     1  0  0.50      -273.3789   2.0000                                                             
     2  0  0.50       -13.7508   2.0000                                                             
     2  1  0.50        -5.2854   2.0000                                                             
     3  2  1.50        -5.4423   0.0000                                                             
   Description                                                                                      
     l       E           TYP  RCUT    TYP  RCUT                                                     
     0    -13.7508458     23  1.100                                                                 
     0     -8.2022199     23  1.100                                                                 
     1     -5.2854383     23  1.100                                                                 
     1      1.1560700     23  1.100                                                                 
     2     -5.4423304      7  1.100                                                                 
  local pseudopotential read in
  partial core-charges read in
  partial kinetic energy density read in
  atomic valenz-charges read in
  non local Contribution for L=           0  read in
    real space projection operators read in
  non local Contribution for L=           0  read in
    real space projection operators read in
  non local Contribution for L=           1  read in
    real space projection operators read in
  non local Contribution for L=           1  read in
    real space projection operators read in
    PAW grid and wavefunctions read in

   number of l-projection  operators is LMAX  =           4
   number of lm-projection operators is LMMAX =           8

 POTCAR:    PAW_PBE H_h 06Feb2004                 
   VRHFIN =H: ultrasoft test                                                                        
   LEXCH  = PE                                                                                      
   EATOM  =    12.4884 eV,    0.9179 Ry                                                             
                                                                                                    
   TITEL  = PAW_PBE H_h 06Feb2004                                                                   
   LULTRA =        F    use ultrasoft PP ?                                                          
   IUNSCR =        0    unscreen: 0-lin 1-nonlin 2-no                                               
   RPACOR =    0.000    partial core radius                                                         
   POMASS =    1.000; ZVAL   =    1.000    mass and valenz                                          
   RCORE  =    0.800    outmost cutoff radius                                                       
   RWIGS  =    0.700; RWIGS  =    0.370    wigner-seitz radius (au A)                               
   ENMAX  =  700.000; ENMIN  =  350.000 eV                                                          
   RCLOC  =    0.701    cutoff for local pot                                                        
   LCOR   =        T    correct aug charges                                                         
   LPAW   =        T    paw PP                                                                      
   EAUG   = 1000.000                                                                                
   RMAX   =    0.819    core radius for proj-oper                                                   
   RAUG   =    1.000    factor for augmentation sphere                                              
   RDEP   =    0.817    radius for radial grids                                                     
   RDEPT  =    0.817    core radius for aug-charge                                                  
                                                                                                    
   Atomic configuration                                                                             
    2 entries                                                                                       
     n  l   j            E        occ.                                                              
     1  0  0.50        -6.4927   1.0000                                                             
     2  1  0.50        -3.4015   0.0000                                                             
   Description                                                                                      
     l       E           TYP  RCUT    TYP  RCUT                                                     
     0     -6.4927493     23  0.800                                                                 
     0      6.8029130     23  0.800                                                                 
     1     -6.8029130     23  0.800                                                                 
  local pseudopotential read in
  atomic valenz-charges read in
  non local Contribution for L=           0  read in
    real space projection operators read in
  non local Contribution for L=           0  read in
    real space projection operators read in
  non local Contribution for L=           1  read in
    real space projection operators read in
    PAW grid and wavefunctions read in

   number of l-projection  operators is LMAX  =           3
   number of lm-projection operators is LMMAX =           5

 POTCAR:    PAW_PBE N_h 06Feb2004                 
   VRHFIN =N: s2p3                                                                                  
   LEXCH  = PE                                                                                      
   EATOM  =   264.5486 eV,   19.4438 Ry                                                             
                                                                                                    
   TITEL  = PAW_PBE N_h 06Feb2004                                                                   
   LULTRA =        F    use ultrasoft PP ?                                                          
   IUNSCR =        1    unscreen: 0-lin 1-nonlin 2-no                                               
   RPACOR =    0.800    partial core radius                                                         
   POMASS =   14.001; ZVAL   =    5.000    mass and valenz                                          
   RCORE  =    1.100    outmost cutoff radius                                                       
   RWIGS  =    1.480; RWIGS  =    0.783    wigner-seitz radius (au A)                               
   ENMAX  =  700.000; ENMIN  =  500.000 eV                                                          
   ICORE  =        2    local potential                                                             
   LCOR   =        T    correct aug charges                                                         
   LPAW   =        T    paw PP                                                                      
   EAUG   =  904.640                                                                                
   DEXC   =    0.000                                                                                
   RMAX   =    1.127    core radius for proj-oper                                                   
   RAUG   =    1.300    factor for augmentation sphere                                              
   RDEP   =    1.115    radius for radial grids                                                     
   RDEPT  =    1.106    core radius for aug-charge                                                  
                                                                                                    
   Atomic configuration                                                                             
    4 entries                                                                                       
     n  l   j            E        occ.                                                              
     1  0  0.50      -384.7179   2.0000                                                             
     2  0  0.50       -18.5828   2.0000                                                             
     2  1  0.50        -7.0898   3.0000                                                             
     3  2  1.50        -6.8029   0.0000                                                             
   Description                                                                                      
     l       E           TYP  RCUT    TYP  RCUT                                                     
     0    -18.5828117     23  1.100                                                                 
     0    -15.0750597     23  1.100                                                                 
     1     -7.0897851     23  1.100                                                                 
     1     -1.9663412     23  1.100                                                                 
     2     -6.8029130      7  1.100                                                                 
  local pseudopotential read in
  partial core-charges read in
  partial kinetic energy density read in
  kinetic energy density of atom read in
  atomic valenz-charges read in
  non local Contribution for L=           0  read in
    real space projection operators read in
  non local Contribution for L=           0  read in
    real space projection operators read in
  non local Contribution for L=           1  read in
    real space projection operators read in
  non local Contribution for L=           1  read in
    real space projection operators read in
    PAW grid and wavefunctions read in

   number of l-projection  operators is LMAX  =           4
   number of lm-projection operators is LMMAX =           8

  PAW_PBE C_h 06Feb2004                 :
 energy of atom  1       EATOM= -147.1560
 kinetic energy error for atom=    0.0031 (will be added to EATOM!!)
  PAW_PBE H_h 06Feb2004                 :
 energy of atom  2       EATOM=  -12.4884
 kinetic energy error for atom=    0.0006 (will be added to EATOM!!)
  PAW_PBE N_h 06Feb2004                 :
 energy of atom  3       EATOM= -264.5486
 kinetic energy error for atom=    0.0081 (will be added to EATOM!!)


 POSCAR:  C  H  N
  positions in cartesian coordinates
  No initial velocities read in

 METAGGA = RSCAN                                       LMAXTAU =  6    LMIXTAU =  F

 exchange correlation table for  LEXCH =        8
   RHO(1)=    0.500       N(1)  =     2000
   RHO(2)=  100.500       N(2)  =     4000

 VTST: version 4.1, (05/19/21)

 CHAIN: initializing optimizer
 
 OPT: Using VASP Dynamics algorithm
 CHAIN: Read ICHAIN            0

 POSCAR:  C  H  N
  positions in cartesian coordinates
  No initial velocities read in



--------------------------------------------------------------------------------------------------------


 ion  position               nearest neighbor table
   1  0.470  0.447  0.500-   5 1.08   9 1.32   8 1.37
   2  0.548  0.506  0.500-   6 1.08   3 1.37   9 1.38
   3  0.498  0.544  0.500-   7 1.08   2 1.37   8 1.38
   4  0.404  0.518  0.500-   8 1.01
   5  0.441  0.408  0.500-   1 1.08
   6  0.596  0.519  0.500-   2 1.08
   7  0.493  0.592  0.500-   3 1.08
   8  0.449  0.505  0.500-   4 1.01   1 1.37   3 1.38
   9  0.530  0.446  0.500-   1 1.32   2 1.38

  LATTYP: Found a simple cubic cell.
 ALAT       =    22.0000000000
  
  Lattice vectors:
  
 A1 = (  22.0000000000,   0.0000000000,   0.0000000000)
 A2 = (   0.0000000000,  22.0000000000,   0.0000000000)
 A3 = (   0.0000000000,   0.0000000000,  22.0000000000)


Analysis of symmetry for initial positions (statically):
=====================================================================
 Subroutine PRICEL returns:
 Original cell was already a primitive cell.
 

 Routine SETGRP: Setting up the symmetry group for a 
 simple cubic supercell.


 Subroutine GETGRP returns: Found  1 space group operations
 (whereof  1 operations were pure point group operations)
 out of a pool of 48 trial point group operations.


The static configuration has the point symmetry C_1 .


Analysis of symmetry for dynamics (positions and initial velocities):
=====================================================================
 Subroutine PRICEL returns:
 Original cell was already a primitive cell.
 

 Routine SETGRP: Setting up the symmetry group for a 
 simple cubic supercell.


 Subroutine GETGRP returns: Found  1 space group operations
 (whereof  1 operations were pure point group operations)
 out of a pool of 48 trial point group operations.


The dynamic configuration has the point symmetry C_1 .


 Subroutine INISYM returns: Found  1 space group operations
 (whereof  1 operations are pure point group operations),
 and found     1 'primitive' translations


----------------------------------------------------------------------------------------

                                     Primitive cell                                     

  volume of cell :   10648.0000

  direct lattice vectors                    reciprocal lattice vectors
    22.000000000  0.000000000  0.000000000     0.045454545  0.000000000  0.000000000
     0.000000000 22.000000000  0.000000000     0.000000000  0.045454545  0.000000000
     0.000000000  0.000000000 22.000000000     0.000000000  0.000000000  0.045454545

  length of vectors
    22.000000000 22.000000000 22.000000000     0.045454545  0.045454545  0.045454545

  position of ions in fractional coordinates (direct lattice)
     0.470403864  0.446802045  0.500007045
     0.548042045  0.505964773  0.499974318
     0.498210682  0.543586591  0.499993864
     0.404446591  0.517832955  0.499973409
     0.440732045  0.407547500  0.499984318
     0.595553409  0.518697955  0.499961591
     0.493330682  0.592452500  0.499961591
     0.448651136  0.505100227  0.500038409
     0.530320682  0.445842955  0.499989318

  ion indices of the primitive-cell ions
   primitive index   ion index
                 1           1
                 2           2
                 3           3
                 4           4
                 5           5
                 6           6
                 7           7
                 8           8
                 9           9

----------------------------------------------------------------------------------------



 KPOINTS: auto                                    

Automatic generation of k-mesh.
 Grid dimensions read from file:
 generate k-points for:    1    1    1

 Generating k-lattice:

  Cartesian coordinates                     Fractional coordinates (reciprocal lattice)
     0.045454545  0.000000000  0.000000000     1.000000000  0.000000000  0.000000000
     0.000000000  0.045454545  0.000000000     0.000000000  1.000000000  0.000000000
     0.000000000  0.000000000  0.045454545     0.000000000  0.000000000  1.000000000

  Length of vectors
     0.045454545  0.045454545  0.045454545

  Shift w.r.t. Gamma in fractional coordinates (k-lattice)
     0.000000000  0.000000000  0.000000000

 
 Subroutine IBZKPT returns following result:
 ===========================================
 
 Found      1 irreducible k-points:
 
 Following reciprocal coordinates:
            Coordinates               Weight
  0.000000  0.000000  0.000000      1.000000
 
 Following cartesian coordinates:
            Coordinates               Weight
  0.000000  0.000000  0.000000      1.000000
 


--------------------------------------------------------------------------------------------------------




 Dimension of arrays:
   k-points           NKPTS =      1   k-points in BZ     NKDIM =      1   number of bands    NBANDS=     24
   number of dos      NEDOS =    301   number of ions     NIONS =      9
   non local maximal  LDIM  =      4   non local SUM 2l+1 LMDIM =      8
   total plane-waves  NPLWV = ******
   max r-space proj   IRMAX =      1   max aug-charges    IRDMAX=   9419
   dimension x,y,z NGX =   240 NGY =  240 NGZ =  240
   dimension x,y,z NGXF=   480 NGYF=  480 NGZF=  480
   support grid    NGXF=   480 NGYF=  480 NGZF=  480
   ions per type =               3   4   2
   NGX,Y,Z   is equivalent  to a cutoff of  18.14, 18.14, 18.14 a.u.
   NGXF,Y,Z  is equivalent  to a cutoff of  36.27, 36.27, 36.27 a.u.

 SYSTEM =  unknown system                          
 POSCAR =   C  H  N                                

 Startparameter for this run:
   NWRITE =      2    write-flag & timer
   PREC   = accura    normal or accurate (medium, high low for compatibility)
   ISTART =      0    job   : 0-new  1-cont  2-samecut
   ICHARG =      2    charge: 1-file 2-atom 10-const
   ISPIN  =      1    spin polarized calculation?
   LNONCOLLINEAR =      F non collinear calculations
   LSORBIT =      F    spin-orbit coupling
   INIWAV =      1    electr: 0-lowe 1-rand  2-diag
   LASPH  =      T    aspherical Exc in radial PAW
 Electronic Relaxation 1
   ENCUT  = 1000.0 eV  73.50 Ry    8.57 a.u.  56.73 56.73 56.73*2*pi/ulx,y,z
   ENINI  = 1000.0     initial cutoff
   ENAUG  = 1000.0 eV  augmentation charge cutoff
   NELM   =     60;   NELMIN=  2; NELMDL= -5     # of ELM steps 
   EDIFF  = 0.1E-06   stopping-criterion for ELM
   LREAL  =      F    real-space projection
   NLSPLINE    = F    spline interpolate recip. space projectors
   LCOMPAT=      F    compatible to vasp.4.4
   GGA_COMPAT  = T    GGA compatible to vasp.4.4-vasp.4.6
   LMAXPAW     = -100 max onsite density
   LMAXMIX     =    2 max onsite mixed and CHGCAR
   VOSKOWN=      0    Vosko Wilk Nusair interpolation
   ROPT   =    0.00000   0.00000   0.00000
 Ionic relaxation
   EDIFFG = 0.1E-05   stopping-criterion for IOM
   NSW    =      0    number of steps for IOM
   NBLOCK =      1;   KBLOCK =      1    inner block; outer block 
   IBRION =     -1    ionic relax: 0-MD 1-quasi-New 2-CG
   NFREE  =      0    steps in history (QN), initial steepest desc. (CG)
   ISIF   =      0    stress and relaxation
   IWAVPR =     10    prediction:  0-non 1-charg 2-wave 3-comb
   ISYM   =      2    0-nonsym 1-usesym 2-fastsym
   LCORR  =      T    Harris-Foulkes like correction to forces

   POTIM  = 0.5000    time-step for ionic-motion
   TEIN   =    0.0    initial temperature
   TEBEG  =    0.0;   TEEND  =   0.0 temperature during run
   SMASS  =  -3.00    Nose mass-parameter (am)
   estimated Nose-frequenzy (Omega)   =  0.10E-29 period in steps = 0.13E+47 mass=  -0.111E-25a.u.
   SCALEE = 1.0000    scale energy and forces
   NPACO  =    256;   APACO  = 10.0  distance and # of slots for P.C.
   PSTRESS=    0.0 pullay stress

  Mass of Ions in am
   POMASS =  12.01  1.00 14.00
  Ionic Valenz
   ZVAL   =   4.00  1.00  5.00
  Atomic Wigner-Seitz radii
   RWIGS  =  -1.00 -1.00 -1.00
  virtual crystal weights 
   VCA    =   1.00  1.00  1.00
   NELECT =      26.0000    total number of electrons
   NUPDOWN=      -1.0000    fix difference up-down

 DOS related values:
   EMIN   =  10.00;   EMAX   =-10.00  energy-range for DOS
   EFERMI =   0.00;   METHOD = LEGACY      
   ISMEAR =     0;   SIGMA  =   0.01  broadening in eV -4-tet -1-fermi 0-gaus

 Electronic relaxation 2 (details)
   IALGO  =     58    algorithm
   LDIAG  =      T    sub-space diagonalisation (order eigenvalues)
   LSUBROT=      F    optimize rotation matrix (better conditioning)
   TURBO    =      0    0=normal 1=particle mesh
   IRESTART =      0    0=no restart 2=restart with 2 vectors
   NREBOOT  =      0    no. of reboots
   NMIN     =      0    reboot dimension
   EREF     =   0.00    reference energy to select bands
   IMIX   =      4    mixing-type and parameters
     AMIX     =   0.40;   BMIX     =  1.00
     AMIX_MAG =   1.60;   BMIX_MAG =  1.00
     AMIN     =   0.10
     WC   =   100.;   INIMIX=   1;  MIXPRE=   1;  MAXMIX= -45

 Intra band minimization:
   WEIMIN = 0.0000     energy-eigenvalue tresh-hold
   EBREAK =  0.10E-08  absolut break condition
   DEPER  =   0.30     relativ break condition  

   TIME   =   0.40     timestep for ELM

  volume/ion in A,a.u.               =    1183.11      7984.03
  Fermi-wavevector in a.u.,A,eV,Ry     =   0.220450  0.416590  0.661218  0.048598
  Thomas-Fermi vector in A             =   1.001172

 Write flags
   LWAVE        =      F    write WAVECAR
   LDOWNSAMPLE  =      F    k-point downsampling of WAVECAR
   LCHARG       =      F    write CHGCAR
   LVTOT        =      F    write LOCPOT, total local potential
   LVHAR        =      F    write LOCPOT, Hartree potential only
   LELF         =      F    write electronic localiz. function (ELF)
   LORBIT       =      0    0 simple, 1 ext, 2 COOP (PROOUT), +10 PAW based schemes


 Dipole corrections
   LMONO  =      F    monopole corrections only (constant potential shift)
   LDIPOL =      F    correct potential (dipole corrections)
   IDIPOL =      0    1-x, 2-y, 3-z, 4-all directions 
   EPSILON=  1.0000000 bulk dielectric constant

 Exchange correlation treatment:
   GGA     =    --    GGA type
   LEXCH   =     8    internal setting for exchange type
   LIBXC   =     F    Libxc                    
   VOSKOWN =     0    Vosko Wilk Nusair interpolation
   LHFCALC =     F    Hartree Fock is set to
   LHFONE  =     F    Hartree Fock one center treatment
   AEXX    =    0.0000 exact exchange contribution

 Linear response parameters
   LEPSILON=     F    determine dielectric tensor
   LRPA    =     F    only Hartree local field effects (RPA)
   LNABLA  =     F    use nabla operator in PAW spheres
   LVEL    =     F    velocity operator in full k-point grid
   CSHIFT  =0.1000    complex shift for real part using Kramers Kronig
   OMEGAMAX=  -1.0    maximum frequency
   DEG_THRESHOLD= 0.2000000E-02 threshold for treating states as degnerate
   RTIME   =   -0.100 relaxation time in fs
  (WPLASMAI=    0.000 imaginary part of plasma frequency in eV, 0.658/RTIME)
   DFIELD  = 0.0000000 0.0000000 0.0000000 field for delta impulse in time

  Optional k-point grid parameters
   LKPOINTS_OPT  =     F    use optional k-point grid
   KPOINTS_OPT_MODE=     1    mode for optional k-point grid

 Orbital magnetization related:
   ORBITALMAG=     F  switch on orbital magnetization
   LCHIMAG   =     F  perturbation theory with respect to B field
   DQ        =  0.001000  dq finite difference perturbation B field
   LLRAUG    =     F  two centre corrections for induced B field
   LBONE     =     F  B-component reconstruction in AE one-centre
   LVGVCALC  =     T  calculate vGv susceptibility
   LVGVAPPL  =     F  apply vGv susceptibility instead of pGv for G=0

 Random number generation:
   RANDOM_GENERATOR = DEFAULT
   PCG_SEED         = not used


--------------------------------------------------------------------------------------------------------


 Static calculation
 charge density and potential will be updated during run
 non-spin polarized calculation
 Conjugate gradient for all bands (Freysoldt, et al. PRB 79, 241103 (2009))
 preconditioned conjugated gradient                                        
 perform sub-space diagonalisation
    before iterative eigenvector-optimisation
 modified Broyden-mixing scheme, WC =      100.0
 initial mixing is a Kerker type mixing with AMIX =  0.4000 and BMIX =      1.0000
 Hartree-type preconditioning will be used
 using additional bands           11
 reciprocal scheme for non local part
 use partial core corrections
 no Harris-corrections to forces 
 use gradient corrections 
 use of overlap-Matrix (Vanderbilt PP)
 Gauss-broadening in eV      SIGMA  =   0.01


--------------------------------------------------------------------------------------------------------


  energy-cutoff  :     1000.00
  volume of cell :    10648.00
      direct lattice vectors                 reciprocal lattice vectors
    22.000000000  0.000000000  0.000000000     0.045454545  0.000000000  0.000000000
     0.000000000 22.000000000  0.000000000     0.000000000  0.045454545  0.000000000
     0.000000000  0.000000000 22.000000000     0.000000000  0.000000000  0.045454545

  length of vectors
    22.000000000 22.000000000 22.000000000     0.045454545  0.045454545  0.045454545



 k-points in units of 2pi/SCALE and weight: auto                                    
   0.00000000  0.00000000  0.00000000       1.000

 k-points in reciprocal lattice and weights: auto                                    
   0.00000000  0.00000000  0.00000000       1.000

 position of ions in fractional coordinates (direct lattice) 
   0.47040386  0.44680205  0.50000705
   0.54804205  0.50596477  0.49997432
   0.49821068  0.54358659  0.49999386
   0.40444659  0.51783295  0.49997341
   0.44073205  0.40754750  0.49998432
   0.59555341  0.51869795  0.49996159
   0.49333068  0.59245250  0.49996159
   0.44865114  0.50510023  0.50003841
   0.53032068  0.44584295  0.49998932

 position of ions in cartesian coordinates  (Angst):
  10.34888500  9.82964500 11.00015500
  12.05692500 11.13122500 10.99943500
  10.96063500 11.95890500 10.99986500
   8.89782500 11.39232500 10.99941500
   9.69610500  8.96604500 10.99965500
  13.10217500 11.41135500 10.99915500
  10.85327500 13.03395500 10.99915500
   9.87032500 11.11220500 11.00084500
  11.66705500  9.80854500 10.99976500



--------------------------------------------------------------------------------------------------------


 use parallel FFT for orbitals z direction half grid
 k-point   1 :   0.0000 0.0000 0.0000  plane waves:  381993

 maximum and minimum number of plane-waves per node :     11948    11928

 maximum number of plane-waves:    381993
 maximum index in each direction: 
   IXMAX=   56   IYMAX=   56   IZMAX=   56
   IXMIN=  -56   IYMIN=  -56   IZMIN=    0


 parallel 3D FFT for wavefunctions:
    minimum data exchange during FFTs selected (reduces bandwidth)
 parallel 3D FFT for charge:
    minimum data exchange during FFTs selected (reduces bandwidth)


 total amount of memory used by VASP MPI-rank0   127103. kBytes
=======================================================================

   base      :      30000. kBytes
   nonl-proj :       4010. kBytes
   fftplans  :      24880. kBytes
   grid      :      66493. kBytes
   one-center:          1. kBytes
   wavefun   :       1719. kBytes

     INWAV:  cpu time      0.0001: real time      0.0002
 Broyden mixing: mesh for mixing (old mesh)
   NGX =113   NGY =113   NGZ =113
  (NGX  =480   NGY  =480   NGZ  =480)
  gives a total of ****** points

 initial charge density was supplied:
 charge density of overlapping atoms calculated
 number of electron      26.0000000 magnetization 
 keeping initial charge density in first step


--------------------------------------------------------------------------------------------------------


 Maximum index for augmentation-charges          509 (set IRDMAX)


--------------------------------------------------------------------------------------------------------


 First call to EWALD:  gamma=   0.081
 Maximum number of real-space cells 3x 3x 3
 Maximum number of reciprocal cells 3x 3x 3

    FEWALD:  cpu time      0.0032: real time      0.0033


--------------------------------------- Ionic step        1  -------------------------------------------




--------------------------------------- Iteration      1(   1)  ---------------------------------------


    POTLOK:  cpu time      1.6585: real time      1.6611
    SETDIJ:  cpu time      0.2915: real time      0.2921
    TRIAL :  cpu time      3.1082: real time      3.1112
    CORREC:  cpu time      0.0027: real time      0.0027
    --------------------------------------------
      LOOP:  cpu time      5.0702: real time      5.0766

 eigenvalue-minimisations  :    64
 total energy-change (2. order) : 0.2227931E+03  (-0.6549615E+03)
 number of electron      26.0000000 magnetization 
 augmentation part       26.0000000 magnetization 

 Free energy of the ion-electron system (eV)
  ---------------------------------------------------
  alpha Z        PSCENC =         0.19661355
  Ewald energy   TEWEN  =      1675.60574849
  -Hartree energ DENC   =     -2382.84811810
  -exchange      EXHF   =         0.00000000
  -V(xc)+E(xc)   XCENC  =        84.38202388
  PAW double counting   =       741.61718909     -734.88563835
  entropy T*S    EENTRO =        -0.00000000
  eigenvalues    EBANDS =      -181.76561745
  atomic energy  EATOM  =      1020.49086547
  ---------------------------------------------------
  free energy    TOTEN  =       222.79306657 eV

  energy without entropy =      222.79306657  energy(sigma->0) =      222.79306657


--------------------------------------------------------------------------------------------------------




--------------------------------------- Iteration      1(   2)  ---------------------------------------


    TRIAL :  cpu time      3.3113: real time      3.3132
    CORREC:  cpu time      0.0001: real time      0.0001
    --------------------------------------------
      LOOP:  cpu time      3.3281: real time      3.3468

 eigenvalue-minimisations  :    72
 total energy-change (2. order) :-0.1216166E+03  (-0.1197934E+03)
 number of electron      26.0000000 magnetization 
 augmentation part       26.0000000 magnetization 

 Free energy of the ion-electron system (eV)
  ---------------------------------------------------
  alpha Z        PSCENC =         0.19661355
  Ewald energy   TEWEN  =      1675.60574849
  -Hartree energ DENC   =     -2382.84811810
  -exchange      EXHF   =         0.00000000
  -V(xc)+E(xc)   XCENC  =        84.38202388
  PAW double counting   =       741.61718909     -734.88563835
  entropy T*S    EENTRO =        -0.00000000
  eigenvalues    EBANDS =      -303.38218218
  atomic energy  EATOM  =      1020.49086547
  ---------------------------------------------------
  free energy    TOTEN  =       101.17650184 eV

  energy without entropy =      101.17650184  energy(sigma->0) =      101.17650184


--------------------------------------------------------------------------------------------------------




--------------------------------------- Iteration      1(   3)  ---------------------------------------


    TRIAL :  cpu time      4.0058: real time      4.0078
    CORREC:  cpu time      0.0001: real time      0.0001
    --------------------------------------------
      LOOP:  cpu time      4.0177: real time      4.0380

 eigenvalue-minimisations  :    96
 total energy-change (2. order) :-0.1378570E+03  (-0.1363684E+03)
 number of electron      26.0000000 magnetization 
 augmentation part       26.0000000 magnetization 

 Free energy of the ion-electron system (eV)
  ---------------------------------------------------
  alpha Z        PSCENC =         0.19661355
  Ewald energy   TEWEN  =      1675.60574849
  -Hartree energ DENC   =     -2382.84811810
  -exchange      EXHF   =         0.00000000
  -V(xc)+E(xc)   XCENC  =        84.38202388
  PAW double counting   =       741.61718909     -734.88563835
  entropy T*S    EENTRO =        -0.00000000
  eigenvalues    EBANDS =      -441.23919744
  atomic energy  EATOM  =      1020.49086547
  ---------------------------------------------------
  free energy    TOTEN  =       -36.68051342 eV

  energy without entropy =      -36.68051342  energy(sigma->0) =      -36.68051342


--------------------------------------------------------------------------------------------------------




--------------------------------------- Iteration      1(   4)  ---------------------------------------


    TRIAL :  cpu time      3.0818: real time      3.0833
    CORREC:  cpu time      0.0001: real time      0.0001
    --------------------------------------------
      LOOP:  cpu time      3.1139: real time      3.1158

 eigenvalue-minimisations  :    64
 total energy-change (2. order) :-0.3688373E+02  (-0.3681330E+02)
 number of electron      26.0000000 magnetization 
 augmentation part       26.0000000 magnetization 

 Free energy of the ion-electron system (eV)
  ---------------------------------------------------
  alpha Z        PSCENC =         0.19661355
  Ewald energy   TEWEN  =      1675.60574849
  -Hartree energ DENC   =     -2382.84811810
  -exchange      EXHF   =         0.00000000
  -V(xc)+E(xc)   XCENC  =        84.38202388
  PAW double counting   =       741.61718909     -734.88563835
  entropy T*S    EENTRO =        -0.00000000
  eigenvalues    EBANDS =      -478.12292633
  atomic energy  EATOM  =      1020.49086547
  ---------------------------------------------------
  free energy    TOTEN  =       -73.56424231 eV

  energy without entropy =      -73.56424231  energy(sigma->0) =      -73.56424231


--------------------------------------------------------------------------------------------------------




--------------------------------------- Iteration      1(   5)  ---------------------------------------


    TRIAL :  cpu time      3.3179: real time      3.3194
    CORREC:  cpu time      0.0001: real time      0.0001
    CHARGE:  cpu time      0.5800: real time      0.5820
    --------------------------------------------
      LOOP:  cpu time      3.9118: real time      3.9338

 eigenvalue-minimisations  :    72
 total energy-change (2. order) :-0.2417045E+01  (-0.2404415E+01)
 number of electron      26.0000000 magnetization 
 augmentation part       -0.0602759 magnetization 

 Free energy of the ion-electron system (eV)
  ---------------------------------------------------
  alpha Z        PSCENC =         0.19661355
  Ewald energy   TEWEN  =      1675.60574849
  -Hartree energ DENC   =     -2382.84811810
  -exchange      EXHF   =         0.00000000
  -V(xc)+E(xc)   XCENC  =        84.38202388
  PAW double counting   =       741.61718909     -734.88563835
  entropy T*S    EENTRO =        -0.00000000
  eigenvalues    EBANDS =      -480.53997139
  atomic energy  EATOM  =      1020.49086547
  ---------------------------------------------------
  free energy    TOTEN  =       -75.98128737 eV

  energy without entropy =      -75.98128737  energy(sigma->0) =      -75.98128737


--------------------------------------------------------------------------------------------------------




--------------------------------------- Iteration      1(   6)  ---------------------------------------


    POTLOK:  cpu time      1.5992: real time      1.5996
    SETDIJ:  cpu time      0.3065: real time      0.3065
    TRIAL :  cpu time      2.5723: real time      2.5750
    CORREC:  cpu time      3.0933: real time      3.0952
    CHARGE:  cpu time      0.5397: real time      0.5403
    --------------------------------------------
      LOOP:  cpu time      8.1259: real time      8.1473

 eigenvalue-minimisations  :     0
 total energy-change (2. order) : 0.1667392E+02  (-0.3913632E+01)
 number of electron      26.0000000 magnetization 
 augmentation part       -0.0667807 magnetization 

 Free energy of the ion-electron system (eV)
  ---------------------------------------------------
  alpha Z        PSCENC =         0.19661355
  Ewald energy   TEWEN  =      1675.60574849
  -Hartree energ DENC   =     -2609.19720741
  -exchange      EXHF   =         0.00000000
  -V(xc)+E(xc)   XCENC  =        97.01811235
  PAW double counting   =      9749.63685096    -9744.15482626
  entropy T*S    EENTRO =        -0.00000000
  eigenvalues    EBANDS =      -248.90352492
  atomic energy  EATOM  =      1020.49086547
  ---------------------------------------------------
  free energy    TOTEN  =       -59.30736778 eV

  energy without entropy =      -59.30736778  energy(sigma->0) =      -59.30736778


--------------------------------------------------------------------------------------------------------




--------------------------------------- Iteration      1(   7)  ---------------------------------------


    POTLOK:  cpu time      1.5822: real time      1.5827
    SETDIJ:  cpu time      0.3541: real time      0.3544
    TRIAL :  cpu time      2.5384: real time      2.5394
    CORREC:  cpu time      3.0955: real time      3.0967
    CHARGE:  cpu time      0.5407: real time      0.5413
    --------------------------------------------
      LOOP:  cpu time      8.1412: real time      8.1449

 eigenvalue-minimisations  :     0
 total energy-change (2. order) :-0.3943638E+01  (-0.4666773E+00)
 number of electron      26.0000000 magnetization 
 augmentation part       -0.0772825 magnetization 

 Free energy of the ion-electron system (eV)
  ---------------------------------------------------
  alpha Z        PSCENC =         0.19661355
  Ewald energy   TEWEN  =      1675.60574849
  -Hartree energ DENC   =     -2512.29926705
  -exchange      EXHF   =         0.00000000
  -V(xc)+E(xc)   XCENC  =        92.50931688
  PAW double counting   =     12403.48342298   -12397.31974743
  entropy T*S    EENTRO =        -0.00000000
  eigenvalues    EBANDS =      -345.91795843
  atomic energy  EATOM  =      1020.49086547
  ---------------------------------------------------
  free energy    TOTEN  =       -63.25100555 eV

  energy without entropy =      -63.25100555  energy(sigma->0) =      -63.25100555


--------------------------------------------------------------------------------------------------------




--------------------------------------- Iteration      1(   8)  ---------------------------------------


    POTLOK:  cpu time      1.5891: real time      1.5895
    SETDIJ:  cpu time      0.3045: real time      0.3048
    TRIAL :  cpu time      2.5436: real time      2.5445
    CORREC:  cpu time      3.1048: real time      3.1060
    CHARGE:  cpu time      0.5400: real time      0.5405
    --------------------------------------------
      LOOP:  cpu time      8.1012: real time      8.1234

 eigenvalue-minimisations  :     0
 total energy-change (2. order) :-0.4694745E+00  (-0.2061527E+00)
 number of electron      26.0000000 magnetization 
 augmentation part       -0.0771598 magnetization 

 Free energy of the ion-electron system (eV)
  ---------------------------------------------------
  alpha Z        PSCENC =         0.19661355
  Ewald energy   TEWEN  =      1675.60574849
  -Hartree energ DENC   =     -2510.12729256
  -exchange      EXHF   =         0.00000000
  -V(xc)+E(xc)   XCENC  =        92.40871917
  PAW double counting   =     13686.25184943   -13680.00794974
  entropy T*S    EENTRO =        -0.00000000
  eigenvalues    EBANDS =      -348.53903384
  atomic energy  EATOM  =      1020.49086547
  ---------------------------------------------------
  free energy    TOTEN  =       -63.72048003 eV

  energy without entropy =      -63.72048003  energy(sigma->0) =      -63.72048003


--------------------------------------------------------------------------------------------------------




--------------------------------------- Iteration      1(   9)  ---------------------------------------


    POTLOK:  cpu time      1.5943: real time      1.5950
    SETDIJ:  cpu time      0.3105: real time      0.3106
    TRIAL :  cpu time      2.5422: real time      2.5432
    CORREC:  cpu time      3.1221: real time      3.1234
    CHARGE:  cpu time      0.5422: real time      0.5424
    --------------------------------------------
      LOOP:  cpu time      8.1290: real time      8.1479

 eigenvalue-minimisations  :     0
 total energy-change (2. order) :-0.2045451E+00  (-0.8819308E-01)
 number of electron      26.0000000 magnetization 
 augmentation part       -0.0760393 magnetization 

 Free energy of the ion-electron system (eV)
  ---------------------------------------------------
  alpha Z        PSCENC =         0.19661355
  Ewald energy   TEWEN  =      1675.60574849
  -Hartree energ DENC   =     -2506.75767596
  -exchange      EXHF   =         0.00000000
  -V(xc)+E(xc)   XCENC  =        92.23894202
  PAW double counting   =     14606.60132387   -14600.30082632
  entropy T*S    EENTRO =        -0.00000000
  eigenvalues    EBANDS =      -352.00001624
  atomic energy  EATOM  =      1020.49086547
  ---------------------------------------------------
  free energy    TOTEN  =       -63.92502513 eV

  energy without entropy =      -63.92502513  energy(sigma->0) =      -63.92502513


--------------------------------------------------------------------------------------------------------




--------------------------------------- Iteration      1(  10)  ---------------------------------------


    POTLOK:  cpu time      1.6746: real time      1.6758
    SETDIJ:  cpu time      0.2330: real time      0.2330
    TRIAL :  cpu time      2.5424: real time      2.5436
    CORREC:  cpu time      3.1148: real time      3.1162
    CHARGE:  cpu time      0.5402: real time      0.5404
    --------------------------------------------
      LOOP:  cpu time      8.1388: real time      8.1428

 eigenvalue-minimisations  :     0
 total energy-change (2. order) :-0.8740074E-01  (-0.3070210E-01)
 number of electron      26.0000000 magnetization 
 augmentation part       -0.0752428 magnetization 

 Free energy of the ion-electron system (eV)
  ---------------------------------------------------
  alpha Z        PSCENC =         0.19661355
  Ewald energy   TEWEN  =      1675.60574849
  -Hartree energ DENC   =     -2503.98726120
  -exchange      EXHF   =         0.00000000
  -V(xc)+E(xc)   XCENC  =        92.14487796
  PAW double counting   =     14756.05350978   -14749.74300210
  entropy T*S    EENTRO =        -0.00000000
  eigenvalues    EBANDS =      -354.77377782
  atomic energy  EATOM  =      1020.49086547
  ---------------------------------------------------
  free energy    TOTEN  =       -64.01242587 eV

  energy without entropy =      -64.01242587  energy(sigma->0) =      -64.01242587


--------------------------------------------------------------------------------------------------------




--------------------------------------- Iteration      1(  11)  ---------------------------------------


    POTLOK:  cpu time      1.6041: real time      1.6051
    SETDIJ:  cpu time      0.3069: real time      0.3069
    TRIAL :  cpu time      2.5411: real time      2.5430
    CORREC:  cpu time      3.1148: real time      3.1163
    CHARGE:  cpu time      0.5390: real time      0.5391
    --------------------------------------------
      LOOP:  cpu time      8.1206: real time      8.1420

 eigenvalue-minimisations  :     0
 total energy-change (2. order) :-0.3055669E-01  (-0.9387146E-02)
 number of electron      26.0000000 magnetization 
 augmentation part       -0.0745292 magnetization 

 Free energy of the ion-electron system (eV)
  ---------------------------------------------------
  alpha Z        PSCENC =         0.19661355
  Ewald energy   TEWEN  =      1675.60574849
  -Hartree energ DENC   =     -2503.60160422
  -exchange      EXHF   =         0.00000000
  -V(xc)+E(xc)   XCENC  =        92.15935185
  PAW double counting   =     14503.23377187   -14496.94117449
  entropy T*S    EENTRO =        -0.00000000
  eigenvalues    EBANDS =      -355.18655508
  atomic energy  EATOM  =      1020.49086547
  ---------------------------------------------------
  free energy    TOTEN  =       -64.04298256 eV

  energy without entropy =      -64.04298256  energy(sigma->0) =      -64.04298256


--------------------------------------------------------------------------------------------------------




--------------------------------------- Iteration      1(  12)  ---------------------------------------


    POTLOK:  cpu time      1.6078: real time      1.6087
    SETDIJ:  cpu time      0.3006: real time      0.3007
    TRIAL :  cpu time      2.5410: real time      2.5423
    CORREC:  cpu time      3.1190: real time      3.1202
    CHARGE:  cpu time      0.5401: real time      0.5406
    --------------------------------------------
      LOOP:  cpu time      8.1262: real time      8.1451

 eigenvalue-minimisations  :     0
 total energy-change (2. order) :-0.9373683E-02  (-0.2784677E-02)
 number of electron      26.0000000 magnetization 
 augmentation part       -0.0742898 magnetization 

 Free energy of the ion-electron system (eV)
  ---------------------------------------------------
  alpha Z        PSCENC =         0.19661355
  Ewald energy   TEWEN  =      1675.60574849
  -Hartree energ DENC   =     -2503.29735391
  -exchange      EXHF   =         0.00000000
  -V(xc)+E(xc)   XCENC  =        92.15158264
  PAW double counting   =     14296.41623278   -14290.13412858
  entropy T*S    EENTRO =        -0.00000000
  eigenvalues    EBANDS =      -355.48191667
  atomic energy  EATOM  =      1020.49086547
  ---------------------------------------------------
  free energy    TOTEN  =       -64.05235624 eV

  energy without entropy =      -64.05235624  energy(sigma->0) =      -64.05235624


--------------------------------------------------------------------------------------------------------




--------------------------------------- Iteration      1(  13)  ---------------------------------------


    POTLOK:  cpu time      1.6036: real time      1.6040
    SETDIJ:  cpu time      0.3069: real time      0.3069
    TRIAL :  cpu time      2.5417: real time      2.5432
    CORREC:  cpu time      3.1227: real time      3.1240
    CHARGE:  cpu time      0.5411: real time      0.5415
    --------------------------------------------
      LOOP:  cpu time      8.1328: real time      8.1508

 eigenvalue-minimisations  :     0
 total energy-change (2. order) :-0.2784946E-02  (-0.8234382E-03)
 number of electron      26.0000000 magnetization 
 augmentation part       -0.0742619 magnetization 

 Free energy of the ion-electron system (eV)
  ---------------------------------------------------
  alpha Z        PSCENC =         0.19661355
  Ewald energy   TEWEN  =      1675.60574849
  -Hartree energ DENC   =     -2502.99731656
  -exchange      EXHF   =         0.00000000
  -V(xc)+E(xc)   XCENC  =        92.13555885
  PAW double counting   =     14202.27097223   -14195.99152493
  entropy T*S    EENTRO =        -0.00000000
  eigenvalues    EBANDS =      -355.76605828
  atomic energy  EATOM  =      1020.49086547
  ---------------------------------------------------
  free energy    TOTEN  =       -64.05514119 eV

  energy without entropy =      -64.05514119  energy(sigma->0) =      -64.05514119


--------------------------------------------------------------------------------------------------------




--------------------------------------- Iteration      1(  14)  ---------------------------------------


    POTLOK:  cpu time      1.6095: real time      1.6099
    SETDIJ:  cpu time      0.3044: real time      0.3047
    TRIAL :  cpu time      2.5442: real time      2.5451
    CORREC:  cpu time      3.1280: real time      3.1291
    CHARGE:  cpu time      0.5391: real time      0.5396
    --------------------------------------------
      LOOP:  cpu time      8.1397: real time      8.1591

 eigenvalue-minimisations  :     0
 total energy-change (2. order) :-0.8239032E-03  (-0.2623239E-03)
 number of electron      26.0000000 magnetization 
 augmentation part       -0.0742684 magnetization 

 Free energy of the ion-electron system (eV)
  ---------------------------------------------------
  alpha Z        PSCENC =         0.19661355
  Ewald energy   TEWEN  =      1675.60574849
  -Hartree energ DENC   =     -2503.07563083
  -exchange      EXHF   =         0.00000000
  -V(xc)+E(xc)   XCENC  =        92.13696496
  PAW double counting   =     14170.40159279   -14164.12316978
  entropy T*S    EENTRO =        -0.00000000
  eigenvalues    EBANDS =      -355.68894973
  atomic energy  EATOM  =      1020.49086547
  ---------------------------------------------------
  free energy    TOTEN  =       -64.05596509 eV

  energy without entropy =      -64.05596509  energy(sigma->0) =      -64.05596509


--------------------------------------------------------------------------------------------------------




--------------------------------------- Iteration      1(  15)  ---------------------------------------


    POTLOK:  cpu time      1.6066: real time      1.6070
    SETDIJ:  cpu time      0.3046: real time      0.3048
    TRIAL :  cpu time      2.5400: real time      2.5413
    CORREC:  cpu time      3.1510: real time      3.1522
    CHARGE:  cpu time      0.5392: real time      0.5398
    --------------------------------------------
      LOOP:  cpu time      8.1733: real time      8.1774

 eigenvalue-minimisations  :     0
 total energy-change (2. order) :-0.2624449E-03  (-0.9780108E-04)
 number of electron      26.0000000 magnetization 
 augmentation part       -0.0742660 magnetization 

 Free energy of the ion-electron system (eV)
  ---------------------------------------------------
  alpha Z        PSCENC =         0.19661355
  Ewald energy   TEWEN  =      1675.60574849
  -Hartree energ DENC   =     -2503.18279777
  -exchange      EXHF   =         0.00000000
  -V(xc)+E(xc)   XCENC  =        92.14023647
  PAW double counting   =     14162.64460868   -14156.36614383
  entropy T*S    EENTRO =        -0.00000000
  eigenvalues    EBANDS =      -355.58535859
  atomic energy  EATOM  =      1020.49086547
  ---------------------------------------------------
  free energy    TOTEN  =       -64.05622753 eV

  energy without entropy =      -64.05622753  energy(sigma->0) =      -64.05622753


--------------------------------------------------------------------------------------------------------




--------------------------------------- Iteration      1(  16)  ---------------------------------------


    POTLOK:  cpu time      1.6064: real time      1.6072
    SETDIJ:  cpu time      0.3051: real time      0.3052
    TRIAL :  cpu time      2.5398: real time      2.5409
    CORREC:  cpu time      3.1137: real time      3.1155
    CHARGE:  cpu time      0.5399: real time      0.5400
    --------------------------------------------
      LOOP:  cpu time      8.1277: real time      8.1399

 eigenvalue-minimisations  :     0
 total energy-change (2. order) :-0.9797702E-04  (-0.3794694E-04)
 number of electron      26.0000000 magnetization 
 augmentation part       -0.0742360 magnetization 

 Free energy of the ion-electron system (eV)
  ---------------------------------------------------
  alpha Z        PSCENC =         0.19661355
  Ewald energy   TEWEN  =      1675.60574849
  -Hartree energ DENC   =     -2503.19206913
  -exchange      EXHF   =         0.00000000
  -V(xc)+E(xc)   XCENC  =        92.13970471
  PAW double counting   =     14160.11250558   -14153.83348206
  entropy T*S    EENTRO =        -0.00000000
  eigenvalues    EBANDS =      -355.57621211
  atomic energy  EATOM  =      1020.49086547
  ---------------------------------------------------
  free energy    TOTEN  =       -64.05632551 eV

  energy without entropy =      -64.05632551  energy(sigma->0) =      -64.05632551


--------------------------------------------------------------------------------------------------------




--------------------------------------- Iteration      1(  17)  ---------------------------------------


    POTLOK:  cpu time      1.6049: real time      1.6061
    SETDIJ:  cpu time      0.3087: real time      0.3087
    TRIAL :  cpu time      2.5563: real time      2.5577
    CORREC:  cpu time      3.1230: real time      3.1243
    CHARGE:  cpu time      0.5399: real time      0.5400
    --------------------------------------------
      LOOP:  cpu time      8.1485: real time      8.1685

 eigenvalue-minimisations  :     0
 total energy-change (2. order) :-0.3805665E-04  (-0.1262305E-04)
 number of electron      26.0000000 magnetization 
 augmentation part       -0.0742047 magnetization 

 Free energy of the ion-electron system (eV)
  ---------------------------------------------------
  alpha Z        PSCENC =         0.19661355
  Ewald energy   TEWEN  =      1675.60574849
  -Hartree energ DENC   =     -2503.22591508
  -exchange      EXHF   =         0.00000000
  -V(xc)+E(xc)   XCENC  =        92.14099341
  PAW double counting   =     14157.39325936   -14151.11416744
  entropy T*S    EENTRO =        -0.00000000
  eigenvalues    EBANDS =      -355.54376131
  atomic energy  EATOM  =      1020.49086547
  ---------------------------------------------------
  free energy    TOTEN  =       -64.05636357 eV

  energy without entropy =      -64.05636357  energy(sigma->0) =      -64.05636357


--------------------------------------------------------------------------------------------------------




--------------------------------------- Iteration      1(  18)  ---------------------------------------


    POTLOK:  cpu time      1.6060: real time      1.6068
    SETDIJ:  cpu time      0.3059: real time      0.3060
    TRIAL :  cpu time      2.5416: real time      2.5433
    CORREC:  cpu time      3.1173: real time      3.1187
    CHARGE:  cpu time      0.5410: real time      0.5411
    --------------------------------------------
      LOOP:  cpu time      8.1448: real time      8.1490

 eigenvalue-minimisations  :     0
 total energy-change (2. order) :-0.1269194E-04  (-0.3736855E-05)
 number of electron      26.0000000 magnetization 
 augmentation part       -0.0741875 magnetization 

 Free energy of the ion-electron system (eV)
  ---------------------------------------------------
  alpha Z        PSCENC =         0.19661355
  Ewald energy   TEWEN  =      1675.60574849
  -Hartree energ DENC   =     -2503.23848144
  -exchange      EXHF   =         0.00000000
  -V(xc)+E(xc)   XCENC  =        92.14163981
  PAW double counting   =     14156.53783626   -14150.25878390
  entropy T*S    EENTRO =        -0.00000000
  eigenvalues    EBANDS =      -355.53181450
  atomic energy  EATOM  =      1020.49086547
  ---------------------------------------------------
  free energy    TOTEN  =       -64.05637626 eV

  energy without entropy =      -64.05637626  energy(sigma->0) =      -64.05637626


--------------------------------------------------------------------------------------------------------




--------------------------------------- Iteration      1(  19)  ---------------------------------------


    POTLOK:  cpu time      1.6088: real time      1.6095
    SETDIJ:  cpu time      0.3020: real time      0.3020
    TRIAL :  cpu time      2.5403: real time      2.5416
    CORREC:  cpu time      3.1185: real time      3.1199
    CHARGE:  cpu time      0.5396: real time      0.5403
    --------------------------------------------
      LOOP:  cpu time      8.1267: real time      8.1552

 eigenvalue-minimisations  :     0
 total energy-change (2. order) :-0.3791598E-05  (-0.1164488E-05)
 number of electron      26.0000000 magnetization 
 augmentation part       -0.0741790 magnetization 

 Free energy of the ion-electron system (eV)
  ---------------------------------------------------
  alpha Z        PSCENC =         0.19661355
  Ewald energy   TEWEN  =      1675.60574849
  -Hartree energ DENC   =     -2503.23359053
  -exchange      EXHF   =         0.00000000
  -V(xc)+E(xc)   XCENC  =        92.14151003
  PAW double counting   =     14157.66439096   -14151.38533294
  entropy T*S    EENTRO =        -0.00000000
  eigenvalues    EBANDS =      -355.53658507
  atomic energy  EATOM  =      1020.49086547
  ---------------------------------------------------
  free energy    TOTEN  =       -64.05638005 eV

  energy without entropy =      -64.05638005  energy(sigma->0) =      -64.05638005


--------------------------------------------------------------------------------------------------------




--------------------------------------- Iteration      1(  20)  ---------------------------------------


    POTLOK:  cpu time      1.6036: real time      1.6039
    SETDIJ:  cpu time      0.3100: real time      0.3103
    TRIAL :  cpu time      2.5388: real time      2.5398
    CORREC:  cpu time      3.1135: real time      3.1147
    CHARGE:  cpu time      0.5412: real time      0.5418
    --------------------------------------------
      LOOP:  cpu time      8.1230: real time      8.1427

 eigenvalue-minimisations  :     0
 total energy-change (2. order) :-0.1189075E-05  (-0.3732260E-06)
 number of electron      26.0000000 magnetization 
 augmentation part       -0.0741757 magnetization 

 Free energy of the ion-electron system (eV)
  ---------------------------------------------------
  alpha Z        PSCENC =         0.19661355
  Ewald energy   TEWEN  =      1675.60574849
  -Hartree energ DENC   =     -2503.23587442
  -exchange      EXHF   =         0.00000000
  -V(xc)+E(xc)   XCENC  =        92.14167500
  PAW double counting   =     14159.33021530   -14153.05118808
  entropy T*S    EENTRO =        -0.00000000
  eigenvalues    EBANDS =      -355.53443655
  atomic energy  EATOM  =      1020.49086547
  ---------------------------------------------------
  free energy    TOTEN  =       -64.05638124 eV

  energy without entropy =      -64.05638124  energy(sigma->0) =      -64.05638124


--------------------------------------------------------------------------------------------------------




--------------------------------------- Iteration      1(  21)  ---------------------------------------


    POTLOK:  cpu time      1.6180: real time      1.6185
    SETDIJ:  cpu time      0.3063: real time      0.3065
    TRIAL :  cpu time      2.5387: real time      2.5396
    CORREC:  cpu time      3.1176: real time      3.1186
    CHARGE:  cpu time      0.5397: real time      0.5401
    --------------------------------------------
      LOOP:  cpu time      8.1504: real time      8.1538

 eigenvalue-minimisations  :     0
 total energy-change (2. order) :-0.3874138E-06  (-0.1210330E-06)
 number of electron      26.0000000 magnetization 
 augmentation part       -0.0741741 magnetization 

 Free energy of the ion-electron system (eV)
  ---------------------------------------------------
  alpha Z        PSCENC =         0.19661355
  Ewald energy   TEWEN  =      1675.60574849
  -Hartree energ DENC   =     -2503.23406271
  -exchange      EXHF   =         0.00000000
  -V(xc)+E(xc)   XCENC  =        92.14162610
  PAW double counting   =     14160.65285368   -14154.37382746
  entropy T*S    EENTRO =        -0.00000000
  eigenvalues    EBANDS =      -355.53619874
  atomic energy  EATOM  =      1020.49086547
  ---------------------------------------------------
  free energy    TOTEN  =       -64.05638163 eV

  energy without entropy =      -64.05638163  energy(sigma->0) =      -64.05638163


--------------------------------------------------------------------------------------------------------




--------------------------------------- Iteration      1(  22)  ---------------------------------------


    POTLOK:  cpu time      1.6406: real time      1.6416
    SETDIJ:  cpu time      0.3036: real time      0.3036
    TRIAL :  cpu time      2.5359: real time      2.5369
    CORREC:  cpu time      3.1185: real time      3.1201
    CHARGE:  cpu time      0.5407: real time      0.5409
    --------------------------------------------
      LOOP:  cpu time      8.1701: real time      8.1742

 eigenvalue-minimisations  :     0
 total energy-change (2. order) :-0.1253757E-06  (-0.4314681E-07)
 number of electron      26.0000000 magnetization 
 augmentation part       -0.0741731 magnetization 

 Free energy of the ion-electron system (eV)
  ---------------------------------------------------
  alpha Z        PSCENC =         0.19661355
  Ewald energy   TEWEN  =      1675.60574849
  -Hartree energ DENC   =     -2503.23270728
  -exchange      EXHF   =         0.00000000
  -V(xc)+E(xc)   XCENC  =        92.14157442
  PAW double counting   =     14161.33452742   -14155.05550021
  entropy T*S    EENTRO =        -0.00000000
  eigenvalues    EBANDS =      -355.53750360
  atomic energy  EATOM  =      1020.49086547
  ---------------------------------------------------
  free energy    TOTEN  =       -64.05638175 eV

  energy without entropy =      -64.05638175  energy(sigma->0) =      -64.05638175


--------------------------------------------------------------------------------------------------------




--------------------------------------- Iteration      1(  23)  ---------------------------------------


    POTLOK:  cpu time      1.6384: real time      1.6393
    SETDIJ:  cpu time      0.2729: real time      0.2729
    TRIAL :  cpu time      2.5366: real time      2.5378
    CORREC:  cpu time      3.1178: real time      3.1193
    EDDIAG:  cpu time      0.6656: real time      0.6659
    CHARGE:  cpu time      0.5394: real time      0.5401
    --------------------------------------------
      LOOP:  cpu time      8.7847: real time      8.8072

 eigenvalue-minimisations  :     0
 total energy-change (2. order) :-0.4359936E-07  (-0.1397764E-07)
 number of electron      26.0000000 magnetization 
 augmentation part       -0.0741725 magnetization 

 Free energy of the ion-electron system (eV)
  ---------------------------------------------------
  alpha Z        PSCENC =         0.19661355
  Ewald energy   TEWEN  =      1675.60574849
  -Hartree energ DENC   =     -2503.23284886
  -exchange      EXHF   =         0.00000000
  -V(xc)+E(xc)   XCENC  =        92.14158114
  PAW double counting   =     14161.61368643   -14155.33466502
  entropy T*S    EENTRO =        -0.00000000
  eigenvalues    EBANDS =      -355.53736299
  atomic energy  EATOM  =      1020.49086547
  ---------------------------------------------------
  free energy    TOTEN  =       -64.05638180 eV

  energy without entropy =      -64.05638180  energy(sigma->0) =      -64.05638180


--------------------------------------------------------------------------------------------------------


  average scaling for gradient   1.2560


 average (electrostatic) potential at core
  the test charge radii are     0.5770  0.4325  0.5902
  (the norm of the test charge is              1.0000)
       1 -89.6706       2 -88.6029       3 -89.0977       4 -50.5710       5 -48.0357
       6 -47.3468       7 -48.1452       8-108.2208       9-105.8052



 E-fermi :  -5.7667     XC(G=0):  -0.1097     alpha+bet : -0.0573

 Fermi energy:        -5.7666835042

 k-point     1 :       0.0000    0.0000    0.0000
  band No.  band energies     occupation 
      1     -26.6560      2.00000
      2     -22.8026      2.00000
      3     -19.3682      2.00000
      4     -15.9311      2.00000
      5     -15.2410      2.00000
      6     -14.4609      2.00000
      7     -11.1894      2.00000
      8     -11.0996      2.00000
      9     -11.0365      2.00000
     10     -10.2725      2.00000
     11      -7.2289      2.00000
     12      -6.6061      2.00000
     13      -5.8760      2.00000
     14      -0.3625      0.00000
     15      -0.3361      0.00000
     16       0.0904      0.00000
     17       0.2343      0.00000
     18       0.3307      0.00000
     19       0.3550      0.00000
     20       0.3593      0.00000
     21       0.4175      0.00000
     22       0.5384      0.00000
     23       0.5751      0.00000
     24       0.6196      0.00000


--------------------------------------------------------------------------------------------------------


 soft charge-density along one line, spin component           1
         0         1         2         3         4         5         6         7         8         9
 total charge-density along one line

 pseudopotential strength for first ion, spin component:           1
 12.700  21.370   0.011   0.000  -0.002   0.019   0.000  -0.005
 21.370  35.958   0.018   0.000  -0.004   0.032   0.000  -0.008
  0.011   0.018  -3.268  -0.000   0.002  -5.857  -0.000   0.004
  0.000   0.000  -0.000  -3.268   0.000  -0.000  -5.857   0.000
 -0.002  -0.004   0.002   0.000  -3.265   0.004   0.000  -5.851
  0.019   0.032  -5.857  -0.000   0.004 -10.474  -0.000   0.007
  0.000   0.000  -0.000  -5.857   0.000  -0.000 -10.473   0.000
 -0.005  -0.008   0.004   0.000  -5.851   0.007   0.000 -10.465
 total augmentation occupancy for first ion, spin component:           1
 10.036  -3.836   1.295  -0.000   1.069  -0.640   0.000  -0.508
 -3.836   1.521  -0.726  -0.000  -0.519   0.336   0.000   0.251
  1.295  -0.726   8.057   0.002  -0.171  -2.931  -0.001   0.146
 -0.000  -0.000   0.002   3.689  -0.001  -0.001  -1.028   0.001
  1.069  -0.519  -0.171  -0.001   8.891   0.146   0.001  -3.252
 -0.640   0.336  -2.931  -0.001   0.146   1.080   0.000  -0.082
  0.000   0.000  -0.001  -1.028   0.001   0.000   0.297  -0.000
 -0.508   0.251   0.146   0.001  -3.252  -0.082  -0.000   1.211


------------------------ aborting loop because EDIFF is reached ----------------------------------------


    FORLOC:  cpu time      0.0352: real time      0.0352
    FORNL :  cpu time      0.0238: real time      0.0241
    FORCOR:  cpu time      1.6692: real time      1.6703
    OFIELD:  cpu time      0.0062: real time      0.0065

 VOLUME and BASIS-vectors are now :
 -----------------------------------------------------------------------------
  energy-cutoff  :     1000.00
  volume of cell :    10648.00
      direct lattice vectors                 reciprocal lattice vectors
    22.000000000  0.000000000  0.000000000     0.045454545  0.000000000  0.000000000
     0.000000000 22.000000000  0.000000000     0.000000000  0.045454545  0.000000000
     0.000000000  0.000000000 22.000000000     0.000000000  0.000000000  0.045454545

  length of vectors
    22.000000000 22.000000000 22.000000000     0.045454545  0.045454545  0.045454545


 FORCES acting on ions:
    Electron-Ion                     Ewald-Force                    Non-Local-Force
 -----------------------------------------------------------------------------------------------
   0.134E+03 0.188E+03 -.351E-01   -.132E+03 -.194E+03 0.249E-01   -.216E+01 0.652E+01 0.116E-01
   -.207E+03 -.797E+02 0.108E+00   0.208E+03 0.833E+02 -.116E+00   -.104E+01 -.368E+01 0.929E-02
   -.159E+02 -.223E+03 0.230E-01   0.250E+02 0.226E+03 -.335E-01   -.928E+01 -.323E+01 0.108E-01
   0.960E+02 -.279E+02 0.980E-01   -.103E+03 0.300E+02 -.107E+00   0.737E+01 -.212E+01 0.108E-01
   0.481E+02 0.679E+02 0.301E-01   -.516E+02 -.727E+02 -.316E-01   0.360E+01 0.499E+01 0.324E-02
   -.780E+02 -.227E+02 0.245E-01   0.837E+02 0.242E+02 -.263E-01   -.589E+01 -.155E+01 0.148E-02
   0.379E+01 -.813E+02 0.462E-01   -.428E+01 0.871E+02 -.490E-01   0.493E+00 -.607E+01 0.435E-02
   0.237E+03 -.759E+02 -.329E+00   -.237E+03 0.751E+02 0.382E+00   -.259E+00 0.771E+00 -.593E-01
   -.187E+03 0.229E+03 0.321E-01   0.211E+03 -.259E+03 -.435E-01   -.241E+02 0.299E+02 0.999E-02
 -----------------------------------------------------------------------------------------------
   0.313E+02 -.255E+02 -.230E-02   -.284E-13 0.000E+00 0.416E-16   -.313E+02 0.255E+02 0.230E-02


 POSITION                                       TOTAL-FORCE (eV/Angst)
 -----------------------------------------------------------------------------------
     10.34888      9.82965     11.00015         0.277250      0.326146      0.001208
     12.05692     11.13123     10.99944        -0.294070     -0.090325      0.001626
     10.96063     11.95891     10.99986        -0.018293     -0.288598      0.000260
      8.89782     11.39232     10.99941         0.323697     -0.089489      0.001761
      9.69611      8.96604     10.99965         0.126461      0.168118      0.001748
     13.10218     11.41135     10.99915        -0.205256     -0.062595     -0.000296
     10.85327     13.03396     10.99915         0.005735     -0.205903      0.001550
      9.87033     11.11221     11.00085         0.167298     -0.088129     -0.006417
     11.66706      9.80855     10.99976        -0.382822      0.330774     -0.001438
 -----------------------------------------------------------------------------------
    total drift:                                0.000314     -0.000310      0.000000


--------------------------------------------------------------------------------------------------------



  FREE ENERGIE OF THE ION-ELECTRON SYSTEM (eV)
  ---------------------------------------------------
  free  energy   TOTEN  =       -64.05638180 eV

  energy  without entropy=      -64.05638180  energy(sigma->0) =      -64.05638180



--------------------------------------------------------------------------------------------------------


    POTLOK:  cpu time      1.9683: real time      1.9691


--------------------------------------------------------------------------------------------------------


 stress matrix after NEB project (eV)
      0.00000      0.00000      0.00000
      0.00000      0.00000      0.00000
      0.00000      0.00000      0.00000
  FORCES: max atom, RMS     0.505931    0.316016
  FORCE total and by dimension    0.948048    0.382822
  Stress total and by dimension    0.000000    0.000000
     LOOP+:  cpu time    170.2838: real time    170.6405
    4ORBIT:  cpu time      0.0000: real time      0.0000

 total amount of memory used by VASP MPI-rank0   127103. kBytes
=======================================================================

   base      :      30000. kBytes
   nonl-proj :       4010. kBytes
   fftplans  :      24880. kBytes
   grid      :      66493. kBytes
   one-center:          1. kBytes
   wavefun   :       1719. kBytes

  
  
 General timing and accounting informations for this job:
 ========================================================
  
                  Total CPU time used (sec):      198.359
                            User time (sec):      181.699
                          System time (sec):       16.660
                         Elapsed time (sec):      207.207
  
                   Maximum memory used (kb):      343200.
                   Average memory used (kb):          N/A
  
                          Minor page faults:       413306
                          Major page faults:          598
                 Voluntary context switches:         7090
