 vasp.6.4.1 05Apr23 (build Jun  6 2023 14:46:38) gamma-only                      
 executed on        HPECrayEX_GCC date 2024.08.21  19:41:12
 running  512 mpi-ranks, with    1 threads/rank, on    4 nodes
 distrk:  each k-point on  256 cores,    2 groups
 distr:  one band on NCORE=  32 cores,    8 groups


--------------------------------------------------------------------------------------------------------


 INCAR:
   ALGO = Conjugate
   KPAR = 2
   NCORE = 32
   PREC = Accurate
   EDIFF = 1E-7
   ENCUT = 1000
   ISMEAR = 0
   SIGMA = 0.01
   ISIF = 0
   SYMPREC = 1E-7
   LWAVE = .FALSE.
   LCHARG = .FALSE.

 POTCAR:    PAW_PBE C_h 06Feb2004                 
 POTCAR:    PAW_PBE H_h 06Feb2004                 
 POTCAR:    PAW_PBE N_h 06Feb2004                 
 POTCAR:    PAW_PBE C_h 06Feb2004                 
   VRHFIN =C: s2p2                                                                                  
   LEXCH  = PE                                                                                      
   EATOM  =   147.1560 eV,   10.8157 Ry                                                             
                                                                                                    
   TITEL  = PAW_PBE C_h 06Feb2004                                                                   
   LULTRA =        F    use ultrasoft PP ?                                                          
   IUNSCR =        1    unscreen: 0-lin 1-nonlin 2-no                                               
   RPACOR =    0.800    partial core radius                                                         
   POMASS =   12.011; ZVAL   =    4.000    mass and valenz                                          
   RCORE  =    1.100    outmost cutoff radius                                                       
   RWIGS  =    1.630; RWIGS  =    0.863    wigner-seitz radius (au A)                               
   ENMAX  =  700.000; ENMIN  =  500.000 eV                                                          
   ICORE  =        2    local potential                                                             
   LCOR   =        T    correct aug charges                                                         
   LPAW   =        T    paw PP                                                                      
   EAUG   =  946.768                                                                                
   DEXC   =    0.000                                                                                
   RMAX   =    1.128    core radius for proj-oper                                                   
   RAUG   =    1.300    factor for augmentation sphere                                              
   RDEP   =    1.162    radius for radial grids                                                     
   RDEPT  =    1.088    core radius for aug-charge                                                  
                                                                                                    
   Atomic configuration                                                                             
    4 entries                                                                                       
     n  l   j            E        occ.                                                              
     1  0  0.50      -273.3789   2.0000                                                             
     2  0  0.50       -13.7508   2.0000                                                             
     2  1  0.50        -5.2854   2.0000                                                             
     3  2  1.50        -5.4423   0.0000                                                             
   Description                                                                                      
     l       E           TYP  RCUT    TYP  RCUT                                                     
     0    -13.7508458     23  1.100                                                                 
     0     -8.2022199     23  1.100                                                                 
     1     -5.2854383     23  1.100                                                                 
     1      1.1560700     23  1.100                                                                 
     2     -5.4423304      7  1.100                                                                 
  local pseudopotential read in
  partial core-charges read in
  partial kinetic energy density read in
  atomic valenz-charges read in
  non local Contribution for L=           0  read in
    real space projection operators read in
  non local Contribution for L=           0  read in
    real space projection operators read in
  non local Contribution for L=           1  read in
    real space projection operators read in
  non local Contribution for L=           1  read in
    real space projection operators read in
    PAW grid and wavefunctions read in

   number of l-projection  operators is LMAX  =           4
   number of lm-projection operators is LMMAX =           8

 POTCAR:    PAW_PBE H_h 06Feb2004                 
   VRHFIN =H: ultrasoft test                                                                        
   LEXCH  = PE                                                                                      
   EATOM  =    12.4884 eV,    0.9179 Ry                                                             
                                                                                                    
   TITEL  = PAW_PBE H_h 06Feb2004                                                                   
   LULTRA =        F    use ultrasoft PP ?                                                          
   IUNSCR =        0    unscreen: 0-lin 1-nonlin 2-no                                               
   RPACOR =    0.000    partial core radius                                                         
   POMASS =    1.000; ZVAL   =    1.000    mass and valenz                                          
   RCORE  =    0.800    outmost cutoff radius                                                       
   RWIGS  =    0.700; RWIGS  =    0.370    wigner-seitz radius (au A)                               
   ENMAX  =  700.000; ENMIN  =  350.000 eV                                                          
   RCLOC  =    0.701    cutoff for local pot                                                        
   LCOR   =        T    correct aug charges                                                         
   LPAW   =        T    paw PP                                                                      
   EAUG   = 1000.000                                                                                
   RMAX   =    0.819    core radius for proj-oper                                                   
   RAUG   =    1.000    factor for augmentation sphere                                              
   RDEP   =    0.817    radius for radial grids                                                     
   RDEPT  =    0.817    core radius for aug-charge                                                  
                                                                                                    
   Atomic configuration                                                                             
    2 entries                                                                                       
     n  l   j            E        occ.                                                              
     1  0  0.50        -6.4927   1.0000                                                             
     2  1  0.50        -3.4015   0.0000                                                             
   Description                                                                                      
     l       E           TYP  RCUT    TYP  RCUT                                                     
     0     -6.4927493     23  0.800                                                                 
     0      6.8029130     23  0.800                                                                 
     1     -6.8029130     23  0.800                                                                 
  local pseudopotential read in
  atomic valenz-charges read in
  non local Contribution for L=           0  read in
    real space projection operators read in
  non local Contribution for L=           0  read in
    real space projection operators read in
  non local Contribution for L=           1  read in
    real space projection operators read in
    PAW grid and wavefunctions read in

   number of l-projection  operators is LMAX  =           3
   number of lm-projection operators is LMMAX =           5

 POTCAR:    PAW_PBE N_h 06Feb2004                 
   VRHFIN =N: s2p3                                                                                  
   LEXCH  = PE                                                                                      
   EATOM  =   264.5486 eV,   19.4438 Ry                                                             
                                                                                                    
   TITEL  = PAW_PBE N_h 06Feb2004                                                                   
   LULTRA =        F    use ultrasoft PP ?                                                          
   IUNSCR =        1    unscreen: 0-lin 1-nonlin 2-no                                               
   RPACOR =    0.800    partial core radius                                                         
   POMASS =   14.001; ZVAL   =    5.000    mass and valenz                                          
   RCORE  =    1.100    outmost cutoff radius                                                       
   RWIGS  =    1.480; RWIGS  =    0.783    wigner-seitz radius (au A)                               
   ENMAX  =  700.000; ENMIN  =  500.000 eV                                                          
   ICORE  =        2    local potential                                                             
   LCOR   =        T    correct aug charges                                                         
   LPAW   =        T    paw PP                                                                      
   EAUG   =  904.640                                                                                
   DEXC   =    0.000                                                                                
   RMAX   =    1.127    core radius for proj-oper                                                   
   RAUG   =    1.300    factor for augmentation sphere                                              
   RDEP   =    1.115    radius for radial grids                                                     
   RDEPT  =    1.106    core radius for aug-charge                                                  
                                                                                                    
   Atomic configuration                                                                             
    4 entries                                                                                       
     n  l   j            E        occ.                                                              
     1  0  0.50      -384.7179   2.0000                                                             
     2  0  0.50       -18.5828   2.0000                                                             
     2  1  0.50        -7.0898   3.0000                                                             
     3  2  1.50        -6.8029   0.0000                                                             
   Description                                                                                      
     l       E           TYP  RCUT    TYP  RCUT                                                     
     0    -18.5828117     23  1.100                                                                 
     0    -15.0750597     23  1.100                                                                 
     1     -7.0897851     23  1.100                                                                 
     1     -1.9663412     23  1.100                                                                 
     2     -6.8029130      7  1.100                                                                 
  local pseudopotential read in
  partial core-charges read in
  partial kinetic energy density read in
  kinetic energy density of atom read in
  atomic valenz-charges read in
  non local Contribution for L=           0  read in
    real space projection operators read in
  non local Contribution for L=           0  read in
    real space projection operators read in
  non local Contribution for L=           1  read in
    real space projection operators read in
  non local Contribution for L=           1  read in
    real space projection operators read in
    PAW grid and wavefunctions read in

   number of l-projection  operators is LMAX  =           4
   number of lm-projection operators is LMMAX =           8

  PAW_PBE C_h 06Feb2004                 :
 energy of atom  1       EATOM= -147.1560
 kinetic energy error for atom=    0.0031 (will be added to EATOM!!)
  PAW_PBE H_h 06Feb2004                 :
 energy of atom  2       EATOM=  -12.4884
 kinetic energy error for atom=    0.0006 (will be added to EATOM!!)
  PAW_PBE N_h 06Feb2004                 :
 energy of atom  3       EATOM= -264.5486
 kinetic energy error for atom=    0.0081 (will be added to EATOM!!)


 POSCAR:  C  H  N
  positions in cartesian coordinates
  No initial velocities read in
 exchange correlation table for  LEXCH =        8
   RHO(1)=    0.500       N(1)  =     2000
   RHO(2)=  100.500       N(2)  =     4000

 VTST: version 4.1, (05/19/21)

 CHAIN: initializing optimizer
 
 OPT: Using VASP Dynamics algorithm
 CHAIN: Read ICHAIN            0

 POSCAR:  C  H  N
  positions in cartesian coordinates
  No initial velocities read in



--------------------------------------------------------------------------------------------------------


 ion  position               nearest neighbor table
   1  0.470  0.447  0.500-   5 1.08   9 1.32   8 1.37
   2  0.548  0.506  0.500-   6 1.08   3 1.37   9 1.38
   3  0.498  0.544  0.500-   7 1.08   2 1.37   8 1.38
   4  0.404  0.518  0.500-   8 1.01
   5  0.441  0.408  0.500-   1 1.08
   6  0.596  0.519  0.500-   2 1.08
   7  0.493  0.592  0.500-   3 1.08
   8  0.449  0.505  0.500-   4 1.01   1 1.37   3 1.38
   9  0.530  0.446  0.500-   1 1.32   2 1.38

  LATTYP: Found a simple cubic cell.
 ALAT       =    22.0000000000
  
  Lattice vectors:
  
 A1 = (  22.0000000000,   0.0000000000,   0.0000000000)
 A2 = (   0.0000000000,  22.0000000000,   0.0000000000)
 A3 = (   0.0000000000,   0.0000000000,  22.0000000000)


Analysis of symmetry for initial positions (statically):
=====================================================================
 Subroutine PRICEL returns:
 Original cell was already a primitive cell.
 

 Routine SETGRP: Setting up the symmetry group for a 
 simple cubic supercell.


 Subroutine GETGRP returns: Found  1 space group operations
 (whereof  1 operations were pure point group operations)
 out of a pool of 48 trial point group operations.


The static configuration has the point symmetry C_1 .


Analysis of symmetry for dynamics (positions and initial velocities):
=====================================================================
 Subroutine PRICEL returns:
 Original cell was already a primitive cell.
 

 Routine SETGRP: Setting up the symmetry group for a 
 simple cubic supercell.


 Subroutine GETGRP returns: Found  1 space group operations
 (whereof  1 operations were pure point group operations)
 out of a pool of 48 trial point group operations.


The dynamic configuration has the point symmetry C_1 .


 Subroutine INISYM returns: Found  1 space group operations
 (whereof  1 operations are pure point group operations),
 and found     1 'primitive' translations


----------------------------------------------------------------------------------------

                                     Primitive cell                                     

  volume of cell :   10648.0000

  direct lattice vectors                    reciprocal lattice vectors
    22.000000000  0.000000000  0.000000000     0.045454545  0.000000000  0.000000000
     0.000000000 22.000000000  0.000000000     0.000000000  0.045454545  0.000000000
     0.000000000  0.000000000 22.000000000     0.000000000  0.000000000  0.045454545

  length of vectors
    22.000000000 22.000000000 22.000000000     0.045454545  0.045454545  0.045454545

  position of ions in fractional coordinates (direct lattice)
     0.470403864  0.446802045  0.500007045
     0.548042045  0.505964773  0.499974318
     0.498210682  0.543586591  0.499993864
     0.404446591  0.517832955  0.499973409
     0.440732045  0.407547500  0.499984318
     0.595553409  0.518697955  0.499961591
     0.493330682  0.592452500  0.499961591
     0.448651136  0.505100227  0.500038409
     0.530320682  0.445842955  0.499989318

  ion indices of the primitive-cell ions
   primitive index   ion index
                 1           1
                 2           2
                 3           3
                 4           4
                 5           5
                 6           6
                 7           7
                 8           8
                 9           9

----------------------------------------------------------------------------------------



 KPOINTS: auto                                    

Automatic generation of k-mesh.
 Grid dimensions read from file:
 generate k-points for:    1    1    1

 Generating k-lattice:

  Cartesian coordinates                     Fractional coordinates (reciprocal lattice)
     0.045454545  0.000000000  0.000000000     1.000000000  0.000000000  0.000000000
     0.000000000  0.045454545  0.000000000     0.000000000  1.000000000  0.000000000
     0.000000000  0.000000000  0.045454545     0.000000000  0.000000000  1.000000000

  Length of vectors
     0.045454545  0.045454545  0.045454545

  Shift w.r.t. Gamma in fractional coordinates (k-lattice)
     0.000000000  0.000000000  0.000000000

 
 Subroutine IBZKPT returns following result:
 ===========================================
 
 Found      1 irreducible k-points:
 
 Following reciprocal coordinates:
            Coordinates               Weight
  0.000000  0.000000  0.000000      1.000000
 
 Following cartesian coordinates:
            Coordinates               Weight
  0.000000  0.000000  0.000000      1.000000
 


--------------------------------------------------------------------------------------------------------




 Dimension of arrays:
   k-points           NKPTS =      1   k-points in BZ     NKDIM =      1   number of bands    NBANDS=     24
   number of dos      NEDOS =    301   number of ions     NIONS =      9
   non local maximal  LDIM  =      4   non local SUM 2l+1 LMDIM =      8
   total plane-waves  NPLWV = ******
   max r-space proj   IRMAX =      1   max aug-charges    IRDMAX=   9419
   dimension x,y,z NGX =   240 NGY =  240 NGZ =  240
   dimension x,y,z NGXF=   480 NGYF=  480 NGZF=  480
   support grid    NGXF=   480 NGYF=  480 NGZF=  480
   ions per type =               3   4   2
   NGX,Y,Z   is equivalent  to a cutoff of  18.14, 18.14, 18.14 a.u.
   NGXF,Y,Z  is equivalent  to a cutoff of  36.27, 36.27, 36.27 a.u.

 SYSTEM =  unknown system                          
 POSCAR =   C  H  N                                

 Startparameter for this run:
   NWRITE =      2    write-flag & timer
   PREC   = accura    normal or accurate (medium, high low for compatibility)
   ISTART =      0    job   : 0-new  1-cont  2-samecut
   ICHARG =      2    charge: 1-file 2-atom 10-const
   ISPIN  =      1    spin polarized calculation?
   LNONCOLLINEAR =      F non collinear calculations
   LSORBIT =      F    spin-orbit coupling
   INIWAV =      1    electr: 0-lowe 1-rand  2-diag
   LASPH  =      F    aspherical Exc in radial PAW
 Electronic Relaxation 1
   ENCUT  = 1000.0 eV  73.50 Ry    8.57 a.u.  56.73 56.73 56.73*2*pi/ulx,y,z
   ENINI  = 1000.0     initial cutoff
   ENAUG  = 1000.0 eV  augmentation charge cutoff
   NELM   =     60;   NELMIN=  2; NELMDL= -5     # of ELM steps 
   EDIFF  = 0.1E-06   stopping-criterion for ELM
   LREAL  =      F    real-space projection
   NLSPLINE    = F    spline interpolate recip. space projectors
   LCOMPAT=      F    compatible to vasp.4.4
   GGA_COMPAT  = T    GGA compatible to vasp.4.4-vasp.4.6
   LMAXPAW     = -100 max onsite density
   LMAXMIX     =    2 max onsite mixed and CHGCAR
   VOSKOWN=      0    Vosko Wilk Nusair interpolation
   ROPT   =    0.00000   0.00000   0.00000
 Ionic relaxation
   EDIFFG = 0.1E-05   stopping-criterion for IOM
   NSW    =      0    number of steps for IOM
   NBLOCK =      1;   KBLOCK =      1    inner block; outer block 
   IBRION =     -1    ionic relax: 0-MD 1-quasi-New 2-CG
   NFREE  =      0    steps in history (QN), initial steepest desc. (CG)
   ISIF   =      0    stress and relaxation
   IWAVPR =     10    prediction:  0-non 1-charg 2-wave 3-comb
   ISYM   =      2    0-nonsym 1-usesym 2-fastsym
   LCORR  =      T    Harris-Foulkes like correction to forces

   POTIM  = 0.5000    time-step for ionic-motion
   TEIN   =    0.0    initial temperature
   TEBEG  =    0.0;   TEEND  =   0.0 temperature during run
   SMASS  =  -3.00    Nose mass-parameter (am)
   estimated Nose-frequenzy (Omega)   =  0.10E-29 period in steps = 0.13E+47 mass=  -0.111E-25a.u.
   SCALEE = 1.0000    scale energy and forces
   NPACO  =    256;   APACO  = 10.0  distance and # of slots for P.C.
   PSTRESS=    0.0 pullay stress

  Mass of Ions in am
   POMASS =  12.01  1.00 14.00
  Ionic Valenz
   ZVAL   =   4.00  1.00  5.00
  Atomic Wigner-Seitz radii
   RWIGS  =  -1.00 -1.00 -1.00
  virtual crystal weights 
   VCA    =   1.00  1.00  1.00
   NELECT =      26.0000    total number of electrons
   NUPDOWN=      -1.0000    fix difference up-down

 DOS related values:
   EMIN   =  10.00;   EMAX   =-10.00  energy-range for DOS
   EFERMI =   0.00;   METHOD = LEGACY      
   ISMEAR =     0;   SIGMA  =   0.01  broadening in eV -4-tet -1-fermi 0-gaus

 Electronic relaxation 2 (details)
   IALGO  =     58    algorithm
   LDIAG  =      T    sub-space diagonalisation (order eigenvalues)
   LSUBROT=      F    optimize rotation matrix (better conditioning)
   TURBO    =      0    0=normal 1=particle mesh
   IRESTART =      0    0=no restart 2=restart with 2 vectors
   NREBOOT  =      0    no. of reboots
   NMIN     =      0    reboot dimension
   EREF     =   0.00    reference energy to select bands
   IMIX   =      4    mixing-type and parameters
     AMIX     =   0.40;   BMIX     =  1.00
     AMIX_MAG =   1.60;   BMIX_MAG =  1.00
     AMIN     =   0.10
     WC   =   100.;   INIMIX=   1;  MIXPRE=   1;  MAXMIX= -45

 Intra band minimization:
   WEIMIN = 0.0000     energy-eigenvalue tresh-hold
   EBREAK =  0.10E-08  absolut break condition
   DEPER  =   0.30     relativ break condition  

   TIME   =   0.40     timestep for ELM

  volume/ion in A,a.u.               =    1183.11      7984.03
  Fermi-wavevector in a.u.,A,eV,Ry     =   0.220450  0.416590  0.661218  0.048598
  Thomas-Fermi vector in A             =   1.001172

 Write flags
   LWAVE        =      F    write WAVECAR
   LDOWNSAMPLE  =      F    k-point downsampling of WAVECAR
   LCHARG       =      F    write CHGCAR
   LVTOT        =      F    write LOCPOT, total local potential
   LVHAR        =      F    write LOCPOT, Hartree potential only
   LELF         =      F    write electronic localiz. function (ELF)
   LORBIT       =      0    0 simple, 1 ext, 2 COOP (PROOUT), +10 PAW based schemes


 Dipole corrections
   LMONO  =      F    monopole corrections only (constant potential shift)
   LDIPOL =      F    correct potential (dipole corrections)
   IDIPOL =      0    1-x, 2-y, 3-z, 4-all directions 
   EPSILON=  1.0000000 bulk dielectric constant

 Exchange correlation treatment:
   GGA     =    --    GGA type
   LEXCH   =     8    internal setting for exchange type
   LIBXC   =     F    Libxc                    
   VOSKOWN =     0    Vosko Wilk Nusair interpolation
   LHFCALC =     F    Hartree Fock is set to
   LHFONE  =     F    Hartree Fock one center treatment
   AEXX    =    0.0000 exact exchange contribution

 Linear response parameters
   LEPSILON=     F    determine dielectric tensor
   LRPA    =     F    only Hartree local field effects (RPA)
   LNABLA  =     F    use nabla operator in PAW spheres
   LVEL    =     F    velocity operator in full k-point grid
   CSHIFT  =0.1000    complex shift for real part using Kramers Kronig
   OMEGAMAX=  -1.0    maximum frequency
   DEG_THRESHOLD= 0.2000000E-02 threshold for treating states as degnerate
   RTIME   =   -0.100 relaxation time in fs
  (WPLASMAI=    0.000 imaginary part of plasma frequency in eV, 0.658/RTIME)
   DFIELD  = 0.0000000 0.0000000 0.0000000 field for delta impulse in time

  Optional k-point grid parameters
   LKPOINTS_OPT  =     F    use optional k-point grid
   KPOINTS_OPT_MODE=     1    mode for optional k-point grid

 Orbital magnetization related:
   ORBITALMAG=     F  switch on orbital magnetization
   LCHIMAG   =     F  perturbation theory with respect to B field
   DQ        =  0.001000  dq finite difference perturbation B field
   LLRAUG    =     F  two centre corrections for induced B field
   LBONE     =     F  B-component reconstruction in AE one-centre
   LVGVCALC  =     T  calculate vGv susceptibility
   LVGVAPPL  =     F  apply vGv susceptibility instead of pGv for G=0

 Random number generation:
   RANDOM_GENERATOR = DEFAULT
   PCG_SEED         = not used


--------------------------------------------------------------------------------------------------------


 Static calculation
 charge density and potential will be updated during run
 non-spin polarized calculation
 Conjugate gradient for all bands (Freysoldt, et al. PRB 79, 241103 (2009))
 preconditioned conjugated gradient                                        
 perform sub-space diagonalisation
    before iterative eigenvector-optimisation
 modified Broyden-mixing scheme, WC =      100.0
 initial mixing is a Kerker type mixing with AMIX =  0.4000 and BMIX =      1.0000
 Hartree-type preconditioning will be used
 using additional bands           11
 reciprocal scheme for non local part
 use partial core corrections
 no Harris-corrections to forces 
 use gradient corrections 
 use of overlap-Matrix (Vanderbilt PP)
 Gauss-broadening in eV      SIGMA  =   0.01


--------------------------------------------------------------------------------------------------------


  energy-cutoff  :     1000.00
  volume of cell :    10648.00
      direct lattice vectors                 reciprocal lattice vectors
    22.000000000  0.000000000  0.000000000     0.045454545  0.000000000  0.000000000
     0.000000000 22.000000000  0.000000000     0.000000000  0.045454545  0.000000000
     0.000000000  0.000000000 22.000000000     0.000000000  0.000000000  0.045454545

  length of vectors
    22.000000000 22.000000000 22.000000000     0.045454545  0.045454545  0.045454545



 k-points in units of 2pi/SCALE and weight: auto                                    
   0.00000000  0.00000000  0.00000000       1.000

 k-points in reciprocal lattice and weights: auto                                    
   0.00000000  0.00000000  0.00000000       1.000

 position of ions in fractional coordinates (direct lattice) 
   0.47040386  0.44680205  0.50000705
   0.54804205  0.50596477  0.49997432
   0.49821068  0.54358659  0.49999386
   0.40444659  0.51783295  0.49997341
   0.44073205  0.40754750  0.49998432
   0.59555341  0.51869795  0.49996159
   0.49333068  0.59245250  0.49996159
   0.44865114  0.50510023  0.50003841
   0.53032068  0.44584295  0.49998932

 position of ions in cartesian coordinates  (Angst):
  10.34888500  9.82964500 11.00015500
  12.05692500 11.13122500 10.99943500
  10.96063500 11.95890500 10.99986500
   8.89782500 11.39232500 10.99941500
   9.69610500  8.96604500 10.99965500
  13.10217500 11.41135500 10.99915500
  10.85327500 13.03395500 10.99915500
   9.87032500 11.11220500 11.00084500
  11.66705500  9.80854500 10.99976500



--------------------------------------------------------------------------------------------------------


 use parallel FFT for orbitals z direction half grid
 k-point   1 :   0.0000 0.0000 0.0000  plane waves:  381993

 maximum and minimum number of plane-waves per node :     11948    11928

 maximum number of plane-waves:    381993
 maximum index in each direction: 
   IXMAX=   56   IYMAX=   56   IZMAX=   56
   IXMIN=  -56   IYMIN=  -56   IZMIN=    0


 parallel 3D FFT for wavefunctions:
    minimum data exchange during FFTs selected (reduces bandwidth)
 parallel 3D FFT for charge:
    minimum data exchange during FFTs selected (reduces bandwidth)


 total amount of memory used by VASP MPI-rank0   108656. kBytes
=======================================================================

   base      :      30000. kBytes
   nonl-proj :       4010. kBytes
   fftplans  :      24880. kBytes
   grid      :      48046. kBytes
   one-center:          1. kBytes
   wavefun   :       1719. kBytes

     INWAV:  cpu time      0.0001: real time      0.0002
 Broyden mixing: mesh for mixing (old mesh)
   NGX =113   NGY =113   NGZ =113
  (NGX  =480   NGY  =480   NGZ  =480)
  gives a total of ****** points

 initial charge density was supplied:
 charge density of overlapping atoms calculated
 number of electron      26.0000000 magnetization 
 keeping initial charge density in first step


--------------------------------------------------------------------------------------------------------


 Maximum index for augmentation-charges          509 (set IRDMAX)


--------------------------------------------------------------------------------------------------------


 First call to EWALD:  gamma=   0.081
 Maximum number of real-space cells 3x 3x 3
 Maximum number of reciprocal cells 3x 3x 3

    FEWALD:  cpu time      0.0031: real time      0.0032


--------------------------------------- Ionic step        1  -------------------------------------------




--------------------------------------- Iteration      1(   1)  ---------------------------------------


    POTLOK:  cpu time      0.6094: real time      0.6097
    SETDIJ:  cpu time      0.0115: real time      0.0123
    TRIAL :  cpu time      0.6992: real time      0.7017
    CORREC:  cpu time      0.0026: real time      0.0026
    --------------------------------------------
      LOOP:  cpu time      1.3303: real time      1.3340

 eigenvalue-minimisations  :    64
 total energy-change (2. order) : 0.2293171E+03  (-0.6453627E+03)
 number of electron      26.0000000 magnetization 
 augmentation part       26.0000000 magnetization 

 Free energy of the ion-electron system (eV)
  ---------------------------------------------------
  alpha Z        PSCENC =         0.19661355
  Ewald energy   TEWEN  =      1675.60574849
  -Hartree energ DENC   =     -2382.84811810
  -exchange      EXHF   =         0.00000000
  -V(xc)+E(xc)   XCENC  =        63.83537220
  PAW double counting   =       761.07819111     -742.68311964
  entropy T*S    EENTRO =        -0.00000000
  eigenvalues    EBANDS =      -166.35846891
  atomic energy  EATOM  =      1020.49086547
  ---------------------------------------------------
  free energy    TOTEN  =       229.31708415 eV

  energy without entropy =      229.31708415  energy(sigma->0) =      229.31708415


--------------------------------------------------------------------------------------------------------




--------------------------------------- Iteration      1(   2)  ---------------------------------------


    TRIAL :  cpu time      0.7342: real time      0.7346
    CORREC:  cpu time      0.0006: real time      0.0006
    --------------------------------------------
      LOOP:  cpu time      0.7516: real time      0.7690

 eigenvalue-minimisations  :    72
 total energy-change (2. order) :-0.1176233E+03  (-0.1149465E+03)
 number of electron      26.0000000 magnetization 
 augmentation part       26.0000000 magnetization 

 Free energy of the ion-electron system (eV)
  ---------------------------------------------------
  alpha Z        PSCENC =         0.19661355
  Ewald energy   TEWEN  =      1675.60574849
  -Hartree energ DENC   =     -2382.84811810
  -exchange      EXHF   =         0.00000000
  -V(xc)+E(xc)   XCENC  =        63.83537220
  PAW double counting   =       761.07819111     -742.68311964
  entropy T*S    EENTRO =        -0.00584118
  eigenvalues    EBANDS =      -283.97588859
  atomic energy  EATOM  =      1020.49086547
  ---------------------------------------------------
  free energy    TOTEN  =       111.69382329 eV

  energy without entropy =      111.69966447  energy(sigma->0) =      111.69674388


--------------------------------------------------------------------------------------------------------




--------------------------------------- Iteration      1(   3)  ---------------------------------------


    TRIAL :  cpu time      0.9122: real time      0.9130
    CORREC:  cpu time      0.0001: real time      0.0001
    --------------------------------------------
      LOOP:  cpu time      0.9264: real time      0.9433

 eigenvalue-minimisations  :    96
 total energy-change (2. order) :-0.1337911E+03  (-0.1314384E+03)
 number of electron      26.0000000 magnetization 
 augmentation part       26.0000000 magnetization 

 Free energy of the ion-electron system (eV)
  ---------------------------------------------------
  alpha Z        PSCENC =         0.19661355
  Ewald energy   TEWEN  =      1675.60574849
  -Hartree energ DENC   =     -2382.84811810
  -exchange      EXHF   =         0.00000000
  -V(xc)+E(xc)   XCENC  =        63.83537220
  PAW double counting   =       761.07819111     -742.68311964
  entropy T*S    EENTRO =        -0.00000000
  eigenvalues    EBANDS =      -417.77281956
  atomic energy  EATOM  =      1020.49086547
  ---------------------------------------------------
  free energy    TOTEN  =       -22.09726650 eV

  energy without entropy =      -22.09726650  energy(sigma->0) =      -22.09726650


--------------------------------------------------------------------------------------------------------




--------------------------------------- Iteration      1(   4)  ---------------------------------------


    TRIAL :  cpu time      0.6693: real time      0.6697
    CORREC:  cpu time      0.0001: real time      0.0001
    --------------------------------------------
      LOOP:  cpu time      0.6867: real time      0.6995

 eigenvalue-minimisations  :    64
 total energy-change (2. order) :-0.3888334E+02  (-0.3879943E+02)
 number of electron      26.0000000 magnetization 
 augmentation part       26.0000000 magnetization 

 Free energy of the ion-electron system (eV)
  ---------------------------------------------------
  alpha Z        PSCENC =         0.19661355
  Ewald energy   TEWEN  =      1675.60574849
  -Hartree energ DENC   =     -2382.84811810
  -exchange      EXHF   =         0.00000000
  -V(xc)+E(xc)   XCENC  =        63.83537220
  PAW double counting   =       761.07819111     -742.68311964
  entropy T*S    EENTRO =        -0.00000000
  eigenvalues    EBANDS =      -456.65616085
  atomic energy  EATOM  =      1020.49086547
  ---------------------------------------------------
  free energy    TOTEN  =       -60.98060779 eV

  energy without entropy =      -60.98060779  energy(sigma->0) =      -60.98060779


--------------------------------------------------------------------------------------------------------




--------------------------------------- Iteration      1(   5)  ---------------------------------------


    TRIAL :  cpu time      0.7341: real time      0.7341
    CORREC:  cpu time      0.0001: real time      0.0001
    CHARGE:  cpu time      0.2059: real time      0.2077
    --------------------------------------------
      LOOP:  cpu time      0.9532: real time      0.9729

 eigenvalue-minimisations  :    72
 total energy-change (2. order) :-0.2520352E+01  (-0.2511399E+01)
 number of electron      26.0000000 magnetization 
 augmentation part       -0.0388971 magnetization 

 Free energy of the ion-electron system (eV)
  ---------------------------------------------------
  alpha Z        PSCENC =         0.19661355
  Ewald energy   TEWEN  =      1675.60574849
  -Hartree energ DENC   =     -2382.84811810
  -exchange      EXHF   =         0.00000000
  -V(xc)+E(xc)   XCENC  =        63.83537220
  PAW double counting   =       761.07819111     -742.68311964
  entropy T*S    EENTRO =        -0.00000000
  eigenvalues    EBANDS =      -459.17651252
  atomic energy  EATOM  =      1020.49086547
  ---------------------------------------------------
  free energy    TOTEN  =       -63.50095945 eV

  energy without entropy =      -63.50095945  energy(sigma->0) =      -63.50095945


--------------------------------------------------------------------------------------------------------




--------------------------------------- Iteration      1(   6)  ---------------------------------------


    POTLOK:  cpu time      0.6192: real time      0.6194
    SETDIJ:  cpu time      0.0010: real time      0.0010
    TRIAL :  cpu time      0.3932: real time      0.3952
    CORREC:  cpu time      0.9050: real time      0.9053
    CHARGE:  cpu time      0.1693: real time      0.1696
    --------------------------------------------
      LOOP:  cpu time      2.1006: real time      2.1206

 eigenvalue-minimisations  :     0
 total energy-change (2. order) : 0.1067358E+02  (-0.4367204E+01)
 number of electron      26.0000000 magnetization 
 augmentation part       -0.0488710 magnetization 

 Free energy of the ion-electron system (eV)
  ---------------------------------------------------
  alpha Z        PSCENC =         0.19661355
  Ewald energy   TEWEN  =      1675.60574849
  -Hartree energ DENC   =     -2613.36104671
  -exchange      EXHF   =         0.00000000
  -V(xc)+E(xc)   XCENC  =        72.87359363
  PAW double counting   =      8436.02875240    -8418.73976889
  entropy T*S    EENTRO =        -0.00000000
  eigenvalues    EBANDS =      -225.92213581
  atomic energy  EATOM  =      1020.49086547
  ---------------------------------------------------
  free energy    TOTEN  =       -52.82737787 eV

  energy without entropy =      -52.82737787  energy(sigma->0) =      -52.82737787


--------------------------------------------------------------------------------------------------------




--------------------------------------- Iteration      1(   7)  ---------------------------------------


    POTLOK:  cpu time      0.6152: real time      0.6154
    SETDIJ:  cpu time      0.0035: real time      0.0035
    TRIAL :  cpu time      0.3799: real time      0.3805
    CORREC:  cpu time      0.8999: real time      0.9006
    CHARGE:  cpu time      0.1688: real time      0.1690
    --------------------------------------------
      LOOP:  cpu time      2.0997: real time      2.1015

 eigenvalue-minimisations  :     0
 total energy-change (2. order) :-0.4419559E+01  (-0.4452329E+00)
 number of electron      26.0000000 magnetization 
 augmentation part       -0.0606573 magnetization 

 Free energy of the ion-electron system (eV)
  ---------------------------------------------------
  alpha Z        PSCENC =         0.19661355
  Ewald energy   TEWEN  =      1675.60574849
  -Hartree energ DENC   =     -2508.79463935
  -exchange      EXHF   =         0.00000000
  -V(xc)+E(xc)   XCENC  =        69.15684213
  PAW double counting   =     10564.07777389   -10546.30943813
  entropy T*S    EENTRO =        -0.00000000
  eigenvalues    EBANDS =      -331.67070257
  atomic energy  EATOM  =      1020.49086547
  ---------------------------------------------------
  free energy    TOTEN  =       -57.24693653 eV

  energy without entropy =      -57.24693653  energy(sigma->0) =      -57.24693653


--------------------------------------------------------------------------------------------------------




--------------------------------------- Iteration      1(   8)  ---------------------------------------


    POTLOK:  cpu time      0.6152: real time      0.6154
    SETDIJ:  cpu time      0.0022: real time      0.0022
    TRIAL :  cpu time      0.3792: real time      0.3796
    CORREC:  cpu time      0.8972: real time      0.8980
    CHARGE:  cpu time      0.1695: real time      0.1697
    --------------------------------------------
      LOOP:  cpu time      2.0789: real time      2.0949

 eigenvalue-minimisations  :     0
 total energy-change (2. order) :-0.4468094E+00  (-0.1827068E+00)
 number of electron      26.0000000 magnetization 
 augmentation part       -0.0626489 magnetization 

 Free energy of the ion-electron system (eV)
  ---------------------------------------------------
  alpha Z        PSCENC =         0.19661355
  Ewald energy   TEWEN  =      1675.60574849
  -Hartree energ DENC   =     -2507.84380186
  -exchange      EXHF   =         0.00000000
  -V(xc)+E(xc)   XCENC  =        69.15854905
  PAW double counting   =     11116.68958287   -11098.86284279
  entropy T*S    EENTRO =        -0.00000000
  eigenvalues    EBANDS =      -333.12846065
  atomic energy  EATOM  =      1020.49086547
  ---------------------------------------------------
  free energy    TOTEN  =       -57.69374589 eV

  energy without entropy =      -57.69374589  energy(sigma->0) =      -57.69374589


--------------------------------------------------------------------------------------------------------




--------------------------------------- Iteration      1(   9)  ---------------------------------------


    POTLOK:  cpu time      0.6172: real time      0.6177
    SETDIJ:  cpu time      0.0007: real time      0.0007
    TRIAL :  cpu time      0.3809: real time      0.3809
    CORREC:  cpu time      0.8980: real time      0.8985
    CHARGE:  cpu time      0.1694: real time      0.1695
    --------------------------------------------
      LOOP:  cpu time      2.0802: real time      2.0972

 eigenvalue-minimisations  :     0
 total energy-change (2. order) :-0.1813176E+00  (-0.8417476E-01)
 number of electron      26.0000000 magnetization 
 augmentation part       -0.0630860 magnetization 

 Free energy of the ion-electron system (eV)
  ---------------------------------------------------
  alpha Z        PSCENC =         0.19661355
  Ewald energy   TEWEN  =      1675.60574849
  -Hartree energ DENC   =     -2504.80511867
  -exchange      EXHF   =         0.00000000
  -V(xc)+E(xc)   XCENC  =        69.04755492
  PAW double counting   =     11367.00968859   -11349.14805831
  entropy T*S    EENTRO =        -0.00000000
  eigenvalues    EBANDS =      -336.27235749
  atomic energy  EATOM  =      1020.49086547
  ---------------------------------------------------
  free energy    TOTEN  =       -57.87506346 eV

  energy without entropy =      -57.87506346  energy(sigma->0) =      -57.87506346


--------------------------------------------------------------------------------------------------------




--------------------------------------- Iteration      1(  10)  ---------------------------------------


    POTLOK:  cpu time      0.6138: real time      0.6143
    SETDIJ:  cpu time      0.0017: real time      0.0017
    TRIAL :  cpu time      0.3805: real time      0.3806
    CORREC:  cpu time      0.8959: real time      0.8966
    CHARGE:  cpu time      0.1703: real time      0.1704
    --------------------------------------------
      LOOP:  cpu time      2.0923: real time      2.0938

 eigenvalue-minimisations  :     0
 total energy-change (2. order) :-0.8282686E-01  (-0.2759680E-01)
 number of electron      26.0000000 magnetization 
 augmentation part       -0.0629081 magnetization 

 Free energy of the ion-electron system (eV)
  ---------------------------------------------------
  alpha Z        PSCENC =         0.19661355
  Ewald energy   TEWEN  =      1675.60574849
  -Hartree energ DENC   =     -2501.93854094
  -exchange      EXHF   =         0.00000000
  -V(xc)+E(xc)   XCENC  =        68.95663086
  PAW double counting   =     11245.32343152   -11227.45446204
  entropy T*S    EENTRO =        -0.00000000
  eigenvalues    EBANDS =      -339.13817723
  atomic energy  EATOM  =      1020.49086547
  ---------------------------------------------------
  free energy    TOTEN  =       -57.95789032 eV

  energy without entropy =      -57.95789032  energy(sigma->0) =      -57.95789032


--------------------------------------------------------------------------------------------------------




--------------------------------------- Iteration      1(  11)  ---------------------------------------


    POTLOK:  cpu time      0.6148: real time      0.6152
    SETDIJ:  cpu time      0.0052: real time      0.0052
    TRIAL :  cpu time      0.3796: real time      0.3796
    CORREC:  cpu time      0.8935: real time      0.8940
    CHARGE:  cpu time      0.1690: real time      0.1691
    --------------------------------------------
      LOOP:  cpu time      2.0761: real time      2.0932

 eigenvalue-minimisations  :     0
 total energy-change (2. order) :-0.2744965E-01  (-0.7881564E-02)
 number of electron      26.0000000 magnetization 
 augmentation part       -0.0623882 magnetization 

 Free energy of the ion-electron system (eV)
  ---------------------------------------------------
  alpha Z        PSCENC =         0.19661355
  Ewald energy   TEWEN  =      1675.60574849
  -Hartree energ DENC   =     -2501.69215513
  -exchange      EXHF   =         0.00000000
  -V(xc)+E(xc)   XCENC  =        68.95851042
  PAW double counting   =     11043.30917183   -11025.45129066
  entropy T*S    EENTRO =        -0.00000000
  eigenvalues    EBANDS =      -339.40280393
  atomic energy  EATOM  =      1020.49086547
  ---------------------------------------------------
  free energy    TOTEN  =       -57.98533997 eV

  energy without entropy =      -57.98533997  energy(sigma->0) =      -57.98533997


--------------------------------------------------------------------------------------------------------




--------------------------------------- Iteration      1(  12)  ---------------------------------------


    POTLOK:  cpu time      0.6117: real time      0.6121
    SETDIJ:  cpu time      0.0031: real time      0.0031
    TRIAL :  cpu time      0.3792: real time      0.3793
    CORREC:  cpu time      0.8999: real time      0.9006
    CHARGE:  cpu time      0.1705: real time      0.1706
    --------------------------------------------
      LOOP:  cpu time      2.0781: real time      2.0958

 eigenvalue-minimisations  :     0
 total energy-change (2. order) :-0.7871855E-02  (-0.2327560E-02)
 number of electron      26.0000000 magnetization 
 augmentation part       -0.0620914 magnetization 

 Free energy of the ion-electron system (eV)
  ---------------------------------------------------
  alpha Z        PSCENC =         0.19661355
  Ewald energy   TEWEN  =      1675.60574849
  -Hartree energ DENC   =     -2501.39350443
  -exchange      EXHF   =         0.00000000
  -V(xc)+E(xc)   XCENC  =        68.94671425
  PAW double counting   =     10957.47575340   -10939.62432437
  entropy T*S    EENTRO =        -0.00000000
  eigenvalues    EBANDS =      -339.69107817
  atomic energy  EATOM  =      1020.49086547
  ---------------------------------------------------
  free energy    TOTEN  =       -57.99321183 eV

  energy without entropy =      -57.99321183  energy(sigma->0) =      -57.99321183


--------------------------------------------------------------------------------------------------------




--------------------------------------- Iteration      1(  13)  ---------------------------------------


    POTLOK:  cpu time      0.6091: real time      0.6094
    SETDIJ:  cpu time      0.0006: real time      0.0006
    TRIAL :  cpu time      0.3811: real time      0.3812
    CORREC:  cpu time      0.8840: real time      0.8846
    CHARGE:  cpu time      0.1696: real time      0.1698
    --------------------------------------------
      LOOP:  cpu time      2.0602: real time      2.0762

 eigenvalue-minimisations  :     0
 total energy-change (2. order) :-0.2328898E-02  (-0.7127705E-03)
 number of electron      26.0000000 magnetization 
 augmentation part       -0.0619473 magnetization 

 Free energy of the ion-electron system (eV)
  ---------------------------------------------------
  alpha Z        PSCENC =         0.19661355
  Ewald energy   TEWEN  =      1675.60574849
  -Hartree energ DENC   =     -2501.17227139
  -exchange      EXHF   =         0.00000000
  -V(xc)+E(xc)   XCENC  =        68.93533840
  PAW double counting   =     10946.70637714   -10928.85696824
  entropy T*S    EENTRO =        -0.00000000
  eigenvalues    EBANDS =      -339.90124414
  atomic energy  EATOM  =      1020.49086547
  ---------------------------------------------------
  free energy    TOTEN  =       -57.99554073 eV

  energy without entropy =      -57.99554073  energy(sigma->0) =      -57.99554073


--------------------------------------------------------------------------------------------------------




--------------------------------------- Iteration      1(  14)  ---------------------------------------


    POTLOK:  cpu time      0.6077: real time      0.6083
    SETDIJ:  cpu time      0.0032: real time      0.0032
    TRIAL :  cpu time      0.3856: real time      0.3856
    CORREC:  cpu time      0.8801: real time      0.8809
    CHARGE:  cpu time      0.1693: real time      0.1694
    --------------------------------------------
      LOOP:  cpu time      2.0617: real time      2.0759

 eigenvalue-minimisations  :     0
 total energy-change (2. order) :-0.7139770E-03  (-0.2409369E-03)
 number of electron      26.0000000 magnetization 
 augmentation part       -0.0618904 magnetization 

 Free energy of the ion-electron system (eV)
  ---------------------------------------------------
  alpha Z        PSCENC =         0.19661355
  Ewald energy   TEWEN  =      1675.60574849
  -Hartree energ DENC   =     -2501.32618740
  -exchange      EXHF   =         0.00000000
  -V(xc)+E(xc)   XCENC  =        68.93910083
  PAW double counting   =     10957.92997233   -10940.08158183
  entropy T*S    EENTRO =        -0.00000000
  eigenvalues    EBANDS =      -339.75078613
  atomic energy  EATOM  =      1020.49086547
  ---------------------------------------------------
  free energy    TOTEN  =       -57.99625470 eV

  energy without entropy =      -57.99625470  energy(sigma->0) =      -57.99625470


--------------------------------------------------------------------------------------------------------




--------------------------------------- Iteration      1(  15)  ---------------------------------------


    POTLOK:  cpu time      0.5945: real time      0.5950
    SETDIJ:  cpu time      0.0009: real time      0.0009
    TRIAL :  cpu time      0.3797: real time      0.3797
    CORREC:  cpu time      0.8706: real time      0.8712
    CHARGE:  cpu time      0.1693: real time      0.1694
    --------------------------------------------
      LOOP:  cpu time      2.0456: real time      2.0470

 eigenvalue-minimisations  :     0
 total energy-change (2. order) :-0.2414833E-03  (-0.9371092E-04)
 number of electron      26.0000000 magnetization 
 augmentation part       -0.0618595 magnetization 

 Free energy of the ion-electron system (eV)
  ---------------------------------------------------
  alpha Z        PSCENC =         0.19661355
  Ewald energy   TEWEN  =      1675.60574849
  -Hartree energ DENC   =     -2501.40832355
  -exchange      EXHF   =         0.00000000
  -V(xc)+E(xc)   XCENC  =        68.94122972
  PAW double counting   =     10970.03243937   -10952.18394980
  entropy T*S    EENTRO =        -0.00000000
  eigenvalues    EBANDS =      -339.67111944
  atomic energy  EATOM  =      1020.49086547
  ---------------------------------------------------
  free energy    TOTEN  =       -57.99649619 eV

  energy without entropy =      -57.99649619  energy(sigma->0) =      -57.99649619


--------------------------------------------------------------------------------------------------------




--------------------------------------- Iteration      1(  16)  ---------------------------------------


    POTLOK:  cpu time      0.5902: real time      0.5906
    SETDIJ:  cpu time      0.0006: real time      0.0006
    TRIAL :  cpu time      0.3806: real time      0.3806
    CORREC:  cpu time      0.8662: real time      0.8671
    CHARGE:  cpu time      0.1698: real time      0.1699
    --------------------------------------------
      LOOP:  cpu time      2.0233: real time      2.0386

 eigenvalue-minimisations  :     0
 total energy-change (2. order) :-0.9400362E-04  (-0.3516228E-04)
 number of electron      26.0000000 magnetization 
 augmentation part       -0.0618255 magnetization 

 Free energy of the ion-electron system (eV)
  ---------------------------------------------------
  alpha Z        PSCENC =         0.19661355
  Ewald energy   TEWEN  =      1675.60574849
  -Hartree energ DENC   =     -2501.43179187
  -exchange      EXHF   =         0.00000000
  -V(xc)+E(xc)   XCENC  =        68.94164766
  PAW double counting   =     10975.09275416   -10957.24389436
  entropy T*S    EENTRO =        -0.00000000
  eigenvalues    EBANDS =      -339.64853329
  atomic energy  EATOM  =      1020.49086547
  ---------------------------------------------------
  free energy    TOTEN  =       -57.99659019 eV

  energy without entropy =      -57.99659019  energy(sigma->0) =      -57.99659019


--------------------------------------------------------------------------------------------------------




--------------------------------------- Iteration      1(  17)  ---------------------------------------


    POTLOK:  cpu time      0.5855: real time      0.5857
    SETDIJ:  cpu time      0.0009: real time      0.0009
    TRIAL :  cpu time      0.3790: real time      0.3791
    CORREC:  cpu time      0.8680: real time      0.8687
    CHARGE:  cpu time      0.1701: real time      0.1702
    --------------------------------------------
      LOOP:  cpu time      2.0222: real time      2.0354

 eigenvalue-minimisations  :     0
 total energy-change (2. order) :-0.3531575E-04  (-0.1191278E-04)
 number of electron      26.0000000 magnetization 
 augmentation part       -0.0618087 magnetization 

 Free energy of the ion-electron system (eV)
  ---------------------------------------------------
  alpha Z        PSCENC =         0.19661355
  Ewald energy   TEWEN  =      1675.60574849
  -Hartree energ DENC   =     -2501.48584969
  -exchange      EXHF   =         0.00000000
  -V(xc)+E(xc)   XCENC  =        68.94356108
  PAW double counting   =     10973.98750191   -10956.13863739
  entropy T*S    EENTRO =        -0.00000000
  eigenvalues    EBANDS =      -339.59642892
  atomic energy  EATOM  =      1020.49086547
  ---------------------------------------------------
  free energy    TOTEN  =       -57.99662551 eV

  energy without entropy =      -57.99662551  energy(sigma->0) =      -57.99662551


--------------------------------------------------------------------------------------------------------




--------------------------------------- Iteration      1(  18)  ---------------------------------------


    POTLOK:  cpu time      0.5835: real time      0.5836
    SETDIJ:  cpu time      0.0026: real time      0.0026
    TRIAL :  cpu time      0.3797: real time      0.3800
    CORREC:  cpu time      0.8656: real time      0.8659
    CHARGE:  cpu time      0.1692: real time      0.1697
    --------------------------------------------
      LOOP:  cpu time      2.0340: real time      2.0356

 eigenvalue-minimisations  :     0
 total energy-change (2. order) :-0.1197929E-04  (-0.4158802E-05)
 number of electron      26.0000000 magnetization 
 augmentation part       -0.0618031 magnetization 

 Free energy of the ion-electron system (eV)
  ---------------------------------------------------
  alpha Z        PSCENC =         0.19661355
  Ewald energy   TEWEN  =      1675.60574849
  -Hartree energ DENC   =     -2501.48467554
  -exchange      EXHF   =         0.00000000
  -V(xc)+E(xc)   XCENC  =        68.94366571
  PAW double counting   =     10972.52768377   -10954.67878767
  entropy T*S    EENTRO =        -0.00000000
  eigenvalues    EBANDS =      -339.59775125
  atomic energy  EATOM  =      1020.49086547
  ---------------------------------------------------
  free energy    TOTEN  =       -57.99663748 eV

  energy without entropy =      -57.99663748  energy(sigma->0) =      -57.99663748


--------------------------------------------------------------------------------------------------------




--------------------------------------- Iteration      1(  19)  ---------------------------------------


    POTLOK:  cpu time      0.5854: real time      0.5855
    SETDIJ:  cpu time      0.0009: real time      0.0009
    TRIAL :  cpu time      0.3813: real time      0.3818
    CORREC:  cpu time      0.8664: real time      0.8667
    CHARGE:  cpu time      0.1687: real time      0.1691
    --------------------------------------------
      LOOP:  cpu time      2.0176: real time      2.0345

 eigenvalue-minimisations  :     0
 total energy-change (2. order) :-0.4152531E-05  (-0.1530384E-05)
 number of electron      26.0000000 magnetization 
 augmentation part       -0.0618040 magnetization 

 Free energy of the ion-electron system (eV)
  ---------------------------------------------------
  alpha Z        PSCENC =         0.19661355
  Ewald energy   TEWEN  =      1675.60574849
  -Hartree energ DENC   =     -2501.48504718
  -exchange      EXHF   =         0.00000000
  -V(xc)+E(xc)   XCENC  =        68.94379356
  PAW double counting   =     10972.15286703   -10954.30399175
  entropy T*S    EENTRO =        -0.00000000
  eigenvalues    EBANDS =      -339.59749079
  atomic energy  EATOM  =      1020.49086547
  ---------------------------------------------------
  free energy    TOTEN  =       -57.99664164 eV

  energy without entropy =      -57.99664164  energy(sigma->0) =      -57.99664164


--------------------------------------------------------------------------------------------------------




--------------------------------------- Iteration      1(  20)  ---------------------------------------


    POTLOK:  cpu time      0.5833: real time      0.5834
    SETDIJ:  cpu time      0.0029: real time      0.0029
    TRIAL :  cpu time      0.3793: real time      0.3798
    CORREC:  cpu time      0.8654: real time      0.8658
    CHARGE:  cpu time      0.1694: real time      0.1700
    --------------------------------------------
      LOOP:  cpu time      2.0124: real time      2.0320

 eigenvalue-minimisations  :     0
 total energy-change (2. order) :-0.1497954E-05  (-0.5672931E-06)
 number of electron      26.0000000 magnetization 
 augmentation part       -0.0618070 magnetization 

 Free energy of the ion-electron system (eV)
  ---------------------------------------------------
  alpha Z        PSCENC =         0.19661355
  Ewald energy   TEWEN  =      1675.60574849
  -Hartree energ DENC   =     -2501.48562349
  -exchange      EXHF   =         0.00000000
  -V(xc)+E(xc)   XCENC  =        68.94387074
  PAW double counting   =     10972.49723311   -10954.64838247
  entropy T*S    EENTRO =        -0.00000000
  eigenvalues    EBANDS =      -339.59696853
  atomic energy  EATOM  =      1020.49086547
  ---------------------------------------------------
  free energy    TOTEN  =       -57.99664313 eV

  energy without entropy =      -57.99664313  energy(sigma->0) =      -57.99664313


--------------------------------------------------------------------------------------------------------




--------------------------------------- Iteration      1(  21)  ---------------------------------------


    POTLOK:  cpu time      0.5856: real time      0.5857
    SETDIJ:  cpu time      0.0021: real time      0.0021
    TRIAL :  cpu time      0.3801: real time      0.3805
    CORREC:  cpu time      0.8667: real time      0.8671
    CHARGE:  cpu time      0.1699: real time      0.1704
    --------------------------------------------
      LOOP:  cpu time      2.0338: real time      2.0354

 eigenvalue-minimisations  :     0
 total energy-change (2. order) :-0.5537313E-06  (-0.2191500E-06)
 number of electron      26.0000000 magnetization 
 augmentation part       -0.0618069 magnetization 

 Free energy of the ion-electron system (eV)
  ---------------------------------------------------
  alpha Z        PSCENC =         0.19661355
  Ewald energy   TEWEN  =      1675.60574849
  -Hartree energ DENC   =     -2501.47878244
  -exchange      EXHF   =         0.00000000
  -V(xc)+E(xc)   XCENC  =        68.94363016
  PAW double counting   =     10972.92697084   -10955.07810853
  entropy T*S    EENTRO =        -0.00000000
  eigenvalues    EBANDS =      -339.60358123
  atomic energy  EATOM  =      1020.49086547
  ---------------------------------------------------
  free energy    TOTEN  =       -57.99664369 eV

  energy without entropy =      -57.99664369  energy(sigma->0) =      -57.99664369


--------------------------------------------------------------------------------------------------------




--------------------------------------- Iteration      1(  22)  ---------------------------------------


    POTLOK:  cpu time      0.5851: real time      0.5852
    SETDIJ:  cpu time      0.0012: real time      0.0012
    TRIAL :  cpu time      0.3789: real time      0.3793
    CORREC:  cpu time      0.8744: real time      0.8750
    CHARGE:  cpu time      0.1699: real time      0.1700
    --------------------------------------------
      LOOP:  cpu time      2.0249: real time      2.0403

 eigenvalue-minimisations  :     0
 total energy-change (2. order) :-0.2087090E-06  (-0.6155420E-07)
 number of electron      26.0000000 magnetization 
 augmentation part       -0.0618071 magnetization 

 Free energy of the ion-electron system (eV)
  ---------------------------------------------------
  alpha Z        PSCENC =         0.19661355
  Ewald energy   TEWEN  =      1675.60574849
  -Hartree energ DENC   =     -2501.48121772
  -exchange      EXHF   =         0.00000000
  -V(xc)+E(xc)   XCENC  =        68.94369994
  PAW double counting   =     10973.01881916   -10955.16997320
  entropy T*S    EENTRO =        -0.00000000
  eigenvalues    EBANDS =      -339.60119957
  atomic energy  EATOM  =      1020.49086547
  ---------------------------------------------------
  free energy    TOTEN  =       -57.99664390 eV

  energy without entropy =      -57.99664390  energy(sigma->0) =      -57.99664390


--------------------------------------------------------------------------------------------------------




--------------------------------------- Iteration      1(  23)  ---------------------------------------


    POTLOK:  cpu time      0.5817: real time      0.5818
    SETDIJ:  cpu time      0.0051: real time      0.0051
    TRIAL :  cpu time      0.3782: real time      0.3785
    CORREC:  cpu time      0.8651: real time      0.8656
    EDDIAG:  cpu time      0.1714: real time      0.1718
    CHARGE:  cpu time      0.1678: real time      0.1679
    --------------------------------------------
      LOOP:  cpu time      2.1995: real time      2.2011

 eigenvalue-minimisations  :     0
 total energy-change (2. order) :-0.6158007E-07  (-0.2112353E-07)
 number of electron      26.0000000 magnetization 
 augmentation part       -0.0618069 magnetization 

 Free energy of the ion-electron system (eV)
  ---------------------------------------------------
  alpha Z        PSCENC =         0.19661355
  Ewald energy   TEWEN  =      1675.60574849
  -Hartree energ DENC   =     -2501.47887071
  -exchange      EXHF   =         0.00000000
  -V(xc)+E(xc)   XCENC  =        68.94360547
  PAW double counting   =     10972.98650223   -10955.13765098
  entropy T*S    EENTRO =        -0.00000000
  eigenvalues    EBANDS =      -339.60345746
  atomic energy  EATOM  =      1020.49086547
  ---------------------------------------------------
  free energy    TOTEN  =       -57.99664396 eV

  energy without entropy =      -57.99664396  energy(sigma->0) =      -57.99664396


--------------------------------------------------------------------------------------------------------


  average scaling for gradient   1.1368


 average (electrostatic) potential at core
  the test charge radii are     0.5770  0.4325  0.5902
  (the norm of the test charge is              1.0000)
       1 -87.3021       2 -86.2723       3 -86.7528       4 -48.0646       5 -45.6837
       6 -44.9935       7 -45.7134       8-105.2268       9-102.9154



 E-fermi :  -5.6230     XC(G=0):  -0.1371     alpha+bet : -0.0573

 Fermi energy:        -5.6230372751

 k-point     1 :       0.0000    0.0000    0.0000
  band No.  band energies     occupation 
      1     -25.3860      2.00000
      2     -21.6431      2.00000
      3     -18.3878      2.00000
      4     -15.2422      2.00000
      5     -14.5641      2.00000
      6     -13.8545      2.00000
      7     -10.7648      2.00000
      8     -10.6691      2.00000
      9     -10.5894      2.00000
     10      -9.8586      2.00000
     11      -6.9490      2.00000
     12      -6.2102      2.00000
     13      -5.6828      2.00000
     14      -0.7675      0.00000
     15      -0.5184      0.00000
     16      -0.0206      0.00000
     17       0.0581      0.00000
     18       0.1676      0.00000
     19       0.2253      0.00000
     20       0.3244      0.00000
     21       0.3770      0.00000
     22       0.4806      0.00000
     23       0.5652      0.00000
     24       0.5654      0.00000


--------------------------------------------------------------------------------------------------------


 soft charge-density along one line, spin component           1
         0         1         2         3         4         5         6         7         8         9
 total charge-density along one line

 pseudopotential strength for first ion, spin component:           1
 12.764  21.480   0.011   0.000  -0.003   0.019   0.000  -0.005
 21.480  36.148   0.018   0.000  -0.005   0.032   0.000  -0.008
  0.011   0.018  -3.196  -0.000   0.001  -5.730  -0.000   0.001
  0.000   0.000  -0.000  -3.195   0.000  -0.000  -5.728   0.000
 -0.003  -0.005   0.001   0.000  -3.195   0.001   0.000  -5.729
  0.019   0.032  -5.730  -0.000   0.001 -10.252  -0.000   0.002
  0.000   0.000  -0.000  -5.728   0.000  -0.000 -10.247   0.000
 -0.005  -0.008   0.001   0.000  -5.729   0.002   0.000 -10.250
 total augmentation occupancy for first ion, spin component:           1
  8.135  -2.940   1.160  -0.000   1.037  -0.564   0.000  -0.489
 -2.940   1.127  -0.646   0.000  -0.499   0.292  -0.000   0.239
  1.160  -0.646   7.155   0.002  -0.162  -2.501  -0.001   0.134
 -0.000   0.000   0.002   3.100  -0.001  -0.001  -0.771   0.000
  1.037  -0.499  -0.162  -0.001   7.931   0.134   0.000  -2.797
 -0.564   0.292  -2.501  -0.001   0.134   0.889   0.000  -0.072
  0.000  -0.000  -0.001  -0.771   0.000   0.000   0.205  -0.000
 -0.489   0.239   0.134   0.000  -2.797  -0.072  -0.000   1.011


------------------------ aborting loop because EDIFF is reached ----------------------------------------


    FORLOC:  cpu time      0.0354: real time      0.0354
    FORNL :  cpu time      0.0239: real time      0.0242
    FORCOR:  cpu time      0.5075: real time      0.5082
    OFIELD:  cpu time      0.0064: real time      0.0067

 VOLUME and BASIS-vectors are now :
 -----------------------------------------------------------------------------
  energy-cutoff  :     1000.00
  volume of cell :    10648.00
      direct lattice vectors                 reciprocal lattice vectors
    22.000000000  0.000000000  0.000000000     0.045454545  0.000000000  0.000000000
     0.000000000 22.000000000  0.000000000     0.000000000  0.045454545  0.000000000
     0.000000000  0.000000000 22.000000000     0.000000000  0.000000000  0.045454545

  length of vectors
    22.000000000 22.000000000 22.000000000     0.045454545  0.045454545  0.045454545


 FORCES acting on ions:
    Electron-Ion                     Ewald-Force                    Non-Local-Force
 -----------------------------------------------------------------------------------------------
   0.134E+03 0.188E+03 -.345E-01   -.132E+03 -.194E+03 0.249E-01   -.219E+01 0.645E+01 0.112E-01
   -.207E+03 -.798E+02 0.109E+00   0.208E+03 0.833E+02 -.116E+00   -.107E+01 -.367E+01 0.889E-02
   -.162E+02 -.223E+03 0.234E-01   0.250E+02 0.226E+03 -.335E-01   -.920E+01 -.326E+01 0.107E-01
   0.957E+02 -.279E+02 0.976E-01   -.103E+03 0.300E+02 -.107E+00   0.726E+01 -.209E+01 0.107E-01
   0.480E+02 0.678E+02 0.300E-01   -.516E+02 -.727E+02 -.316E-01   0.351E+01 0.486E+01 0.314E-02
   -.779E+02 -.226E+02 0.245E-01   0.837E+02 0.242E+02 -.263E-01   -.574E+01 -.151E+01 0.147E-02
   0.378E+01 -.811E+02 0.461E-01   -.428E+01 0.871E+02 -.490E-01   0.484E+00 -.593E+01 0.423E-02
   0.237E+03 -.758E+02 -.330E+00   -.237E+03 0.751E+02 0.382E+00   0.315E-01 0.753E+00 -.579E-01
   -.187E+03 0.230E+03 0.326E-01   0.211E+03 -.259E+03 -.435E-01   -.236E+02 0.294E+02 0.950E-02
 -----------------------------------------------------------------------------------------------
   0.305E+02 -.250E+02 -.206E-02   -.284E-13 0.000E+00 0.416E-16   -.305E+02 0.250E+02 0.195E-02


 POSITION                                       TOTAL-FORCE (eV/Angst)
 -----------------------------------------------------------------------------------
     10.34888      9.82965     11.00015         0.022535      0.148216      0.001369
     12.05692     11.13123     10.99944        -0.048254     -0.108713      0.001396
     10.96063     11.95891     10.99986        -0.105025     -0.057806      0.000322
      8.89782     11.39232     10.99941        -0.040858      0.020356      0.001311
      9.69611      8.96604     10.99965        -0.063236     -0.085640      0.001531
     13.10218     11.41135     10.99915         0.099822      0.024904     -0.000326
     10.85327     13.03396     10.99915        -0.017345      0.104969      0.001285
      9.87033     11.11221     11.00085         0.061122     -0.009753     -0.005395
     11.66706      9.80855     10.99976         0.091240     -0.036533     -0.001492
 -----------------------------------------------------------------------------------
    total drift:                                0.000397      0.000261     -0.000112


--------------------------------------------------------------------------------------------------------



  FREE ENERGIE OF THE ION-ELECTRON SYSTEM (eV)
  ---------------------------------------------------
  free  energy   TOTEN  =       -57.99664396 eV

  energy  without entropy=      -57.99664396  energy(sigma->0) =      -57.99664396



--------------------------------------------------------------------------------------------------------


    POTLOK:  cpu time      0.5933: real time      0.5935


--------------------------------------------------------------------------------------------------------


 stress matrix after NEB project (eV)
      0.00000      0.00000      0.00000
      0.00000      0.00000      0.00000
      0.00000      0.00000      0.00000
  FORCES: max atom, RMS     0.149925    0.105328
  FORCE total and by dimension    0.315985    0.148216
  Stress total and by dimension    0.000000    0.000000
     LOOP+:  cpu time     42.9961: real time     43.3459
    4ORBIT:  cpu time      0.0000: real time      0.0000

 total amount of memory used by VASP MPI-rank0   108656. kBytes
=======================================================================

   base      :      30000. kBytes
   nonl-proj :       4010. kBytes
   fftplans  :      24880. kBytes
   grid      :      48046. kBytes
   one-center:          1. kBytes
   wavefun   :       1719. kBytes

  
  
 General timing and accounting informations for this job:
 ========================================================
  
                  Total CPU time used (sec):       73.497
                            User time (sec):       69.253
                          System time (sec):        4.243
                         Elapsed time (sec):       80.078
  
                   Maximum memory used (kb):      287924.
                   Average memory used (kb):          N/A
  
                          Minor page faults:       194366
                          Major page faults:          618
                 Voluntary context switches:         7084
