 vasp.6.4.1 05Apr23 (build Jun  6 2023 14:46:38) gamma-only                      
 executed on        HPECrayEX_GCC date 2024.08.21  20:44:29
 running  512 mpi-ranks, with    1 threads/rank, on    4 nodes
 distrk:  each k-point on  512 cores,    1 groups
 distr:  one band on NCORE= 128 cores,    4 groups


--------------------------------------------------------------------------------------------------------


 INCAR:
   ALGO = Conjugate
   NPAR = 4
   ISMEAR = 0
   SIGMA = 0.01
   PREC = Accurate
   EDIFF = 1E-7
   ENCUT = 1000
   ISIF = 0
   GGA = OR
   LUSE_VDW = .TRUE.
   AGGAC = 0.0000
   LASPH = .TRUE.
   LWAVE = .FALSE.
   LCHARG = .FALSE.

 POTCAR:    PAW_PBE C_h 06Feb2004                 
 POTCAR:    PAW_PBE H_h 06Feb2004                 
 POTCAR:    PAW_PBE N_h 06Feb2004                 
 -----------------------------------------------------------------------------
|                                                                             |
|               ----> ADVICE to this user running VASP <----                  |
|                                                                             |
|     You have switched on vdW-DFT.                                           |
|     This routine was written and supplied by Jiri Klimes. We recommend      |
|     that you carefully read and cite the following publications:            |
|       J. Klimes, D.R. Bowler, A. Michelides                                 |
|          J. Phys.: Cond Matt. 22 022201 (2010)                              |
|       J. Klimes, D.R. Bowler, A. Michelides                                 |
|          Phys. Rev. B. 83, 195131 (2011)                                    |
|     and references therein.                                                 |
|                                                                             |
 -----------------------------------------------------------------------------

 POTCAR:    PAW_PBE C_h 06Feb2004                 
   VRHFIN =C: s2p2                                                                                  
   LEXCH  = PE                                                                                      
   EATOM  =   147.1560 eV,   10.8157 Ry                                                             
                                                                                                    
   TITEL  = PAW_PBE C_h 06Feb2004                                                                   
   LULTRA =        F    use ultrasoft PP ?                                                          
   IUNSCR =        1    unscreen: 0-lin 1-nonlin 2-no                                               
   RPACOR =    0.800    partial core radius                                                         
   POMASS =   12.011; ZVAL   =    4.000    mass and valenz                                          
   RCORE  =    1.100    outmost cutoff radius                                                       
   RWIGS  =    1.630; RWIGS  =    0.863    wigner-seitz radius (au A)                               
   ENMAX  =  700.000; ENMIN  =  500.000 eV                                                          
   ICORE  =        2    local potential                                                             
   LCOR   =        T    correct aug charges                                                         
   LPAW   =        T    paw PP                                                                      
   EAUG   =  946.768                                                                                
   DEXC   =    0.000                                                                                
   RMAX   =    1.128    core radius for proj-oper                                                   
   RAUG   =    1.300    factor for augmentation sphere                                              
   RDEP   =    1.162    radius for radial grids                                                     
   RDEPT  =    1.088    core radius for aug-charge                                                  
                                                                                                    
   Atomic configuration                                                                             
    4 entries                                                                                       
     n  l   j            E        occ.                                                              
     1  0  0.50      -273.3789   2.0000                                                             
     2  0  0.50       -13.7508   2.0000                                                             
     2  1  0.50        -5.2854   2.0000                                                             
     3  2  1.50        -5.4423   0.0000                                                             
   Description                                                                                      
     l       E           TYP  RCUT    TYP  RCUT                                                     
     0    -13.7508458     23  1.100                                                                 
     0     -8.2022199     23  1.100                                                                 
     1     -5.2854383     23  1.100                                                                 
     1      1.1560700     23  1.100                                                                 
     2     -5.4423304      7  1.100                                                                 
  local pseudopotential read in
  partial core-charges read in
  partial kinetic energy density read in
  atomic valenz-charges read in
  non local Contribution for L=           0  read in
    real space projection operators read in
  non local Contribution for L=           0  read in
    real space projection operators read in
  non local Contribution for L=           1  read in
    real space projection operators read in
  non local Contribution for L=           1  read in
    real space projection operators read in
    PAW grid and wavefunctions read in

   number of l-projection  operators is LMAX  =           4
   number of lm-projection operators is LMMAX =           8

 POTCAR:    PAW_PBE H_h 06Feb2004                 
   VRHFIN =H: ultrasoft test                                                                        
   LEXCH  = PE                                                                                      
   EATOM  =    12.4884 eV,    0.9179 Ry                                                             
                                                                                                    
   TITEL  = PAW_PBE H_h 06Feb2004                                                                   
   LULTRA =        F    use ultrasoft PP ?                                                          
   IUNSCR =        0    unscreen: 0-lin 1-nonlin 2-no                                               
   RPACOR =    0.000    partial core radius                                                         
   POMASS =    1.000; ZVAL   =    1.000    mass and valenz                                          
   RCORE  =    0.800    outmost cutoff radius                                                       
   RWIGS  =    0.700; RWIGS  =    0.370    wigner-seitz radius (au A)                               
   ENMAX  =  700.000; ENMIN  =  350.000 eV                                                          
   RCLOC  =    0.701    cutoff for local pot                                                        
   LCOR   =        T    correct aug charges                                                         
   LPAW   =        T    paw PP                                                                      
   EAUG   = 1000.000                                                                                
   RMAX   =    0.819    core radius for proj-oper                                                   
   RAUG   =    1.000    factor for augmentation sphere                                              
   RDEP   =    0.817    radius for radial grids                                                     
   RDEPT  =    0.817    core radius for aug-charge                                                  
                                                                                                    
   Atomic configuration                                                                             
    2 entries                                                                                       
     n  l   j            E        occ.                                                              
     1  0  0.50        -6.4927   1.0000                                                             
     2  1  0.50        -3.4015   0.0000                                                             
   Description                                                                                      
     l       E           TYP  RCUT    TYP  RCUT                                                     
     0     -6.4927493     23  0.800                                                                 
     0      6.8029130     23  0.800                                                                 
     1     -6.8029130     23  0.800                                                                 
  local pseudopotential read in
  atomic valenz-charges read in
  non local Contribution for L=           0  read in
    real space projection operators read in
  non local Contribution for L=           0  read in
    real space projection operators read in
  non local Contribution for L=           1  read in
    real space projection operators read in
    PAW grid and wavefunctions read in

   number of l-projection  operators is LMAX  =           3
   number of lm-projection operators is LMMAX =           5

 POTCAR:    PAW_PBE N_h 06Feb2004                 
   VRHFIN =N: s2p3                                                                                  
   LEXCH  = PE                                                                                      
   EATOM  =   264.5486 eV,   19.4438 Ry                                                             
                                                                                                    
   TITEL  = PAW_PBE N_h 06Feb2004                                                                   
   LULTRA =        F    use ultrasoft PP ?                                                          
   IUNSCR =        1    unscreen: 0-lin 1-nonlin 2-no                                               
   RPACOR =    0.800    partial core radius                                                         
   POMASS =   14.001; ZVAL   =    5.000    mass and valenz                                          
   RCORE  =    1.100    outmost cutoff radius                                                       
   RWIGS  =    1.480; RWIGS  =    0.783    wigner-seitz radius (au A)                               
   ENMAX  =  700.000; ENMIN  =  500.000 eV                                                          
   ICORE  =        2    local potential                                                             
   LCOR   =        T    correct aug charges                                                         
   LPAW   =        T    paw PP                                                                      
   EAUG   =  904.640                                                                                
   DEXC   =    0.000                                                                                
   RMAX   =    1.127    core radius for proj-oper                                                   
   RAUG   =    1.300    factor for augmentation sphere                                              
   RDEP   =    1.115    radius for radial grids                                                     
   RDEPT  =    1.106    core radius for aug-charge                                                  
                                                                                                    
   Atomic configuration                                                                             
    4 entries                                                                                       
     n  l   j            E        occ.                                                              
     1  0  0.50      -384.7179   2.0000                                                             
     2  0  0.50       -18.5828   2.0000                                                             
     2  1  0.50        -7.0898   3.0000                                                             
     3  2  1.50        -6.8029   0.0000                                                             
   Description                                                                                      
     l       E           TYP  RCUT    TYP  RCUT                                                     
     0    -18.5828117     23  1.100                                                                 
     0    -15.0750597     23  1.100                                                                 
     1     -7.0897851     23  1.100                                                                 
     1     -1.9663412     23  1.100                                                                 
     2     -6.8029130      7  1.100                                                                 
  local pseudopotential read in
  partial core-charges read in
  partial kinetic energy density read in
  kinetic energy density of atom read in
  atomic valenz-charges read in
  non local Contribution for L=           0  read in
    real space projection operators read in
  non local Contribution for L=           0  read in
    real space projection operators read in
  non local Contribution for L=           1  read in
    real space projection operators read in
  non local Contribution for L=           1  read in
    real space projection operators read in
    PAW grid and wavefunctions read in

   number of l-projection  operators is LMAX  =           4
   number of lm-projection operators is LMMAX =           8

 -----------------------------------------------------------------------------
|                                                                             |
|               ----> ADVICE to this user running VASP <----                  |
|                                                                             |
|     You enforced a specific xc type in the INCAR file but a different       |
|     type was found in the POTCAR file.                                      |
|     I HOPE YOU KNOW WHAT YOU ARE DOING!                                     |
|                                                                             |
 -----------------------------------------------------------------------------

  PAW_PBE C_h 06Feb2004                 :
 energy of atom  1       EATOM= -147.1560
 kinetic energy error for atom=    0.0031 (will be added to EATOM!!)
  PAW_PBE H_h 06Feb2004                 :
 energy of atom  2       EATOM=  -12.4884
 kinetic energy error for atom=    0.0006 (will be added to EATOM!!)
  PAW_PBE N_h 06Feb2004                 :
 energy of atom  3       EATOM= -264.5486
 kinetic energy error for atom=    0.0081 (will be added to EATOM!!)


 POSCAR:  C  H  N
  positions in cartesian coordinates
  No initial velocities read in
 exchange correlation table for  LEXCH =       41
   RHO(1)=    0.500       N(1)  =     2000
   RHO(2)=  100.500       N(2)  =     4000

 VTST: version 4.1, (05/19/21)

 CHAIN: initializing optimizer
 
 OPT: Using VASP Dynamics algorithm
 CHAIN: Read ICHAIN            0

 POSCAR:  C  H  N
  positions in cartesian coordinates
  No initial velocities read in



--------------------------------------------------------------------------------------------------------


 ion  position               nearest neighbor table
   1  0.470  0.447  0.500-   5 1.08   9 1.32   8 1.37
   2  0.548  0.506  0.500-   6 1.08   3 1.37   9 1.38
   3  0.498  0.544  0.500-   7 1.08   2 1.37   8 1.38
   4  0.404  0.518  0.500-   8 1.01
   5  0.441  0.408  0.500-   1 1.08
   6  0.596  0.519  0.500-   2 1.08
   7  0.493  0.592  0.500-   3 1.08
   8  0.449  0.505  0.500-   4 1.01   1 1.37   3 1.38
   9  0.530  0.446  0.500-   1 1.32   2 1.38

  LATTYP: Found a simple cubic cell.
 ALAT       =    22.0000000000
  
  Lattice vectors:
  
 A1 = (  22.0000000000,   0.0000000000,   0.0000000000)
 A2 = (   0.0000000000,  22.0000000000,   0.0000000000)
 A3 = (   0.0000000000,   0.0000000000,  22.0000000000)


Analysis of symmetry for initial positions (statically):
=====================================================================
 Subroutine PRICEL returns:
 Original cell was already a primitive cell.
 

 Routine SETGRP: Setting up the symmetry group for a 
 simple cubic supercell.


 Subroutine GETGRP returns: Found  1 space group operations
 (whereof  1 operations were pure point group operations)
 out of a pool of 48 trial point group operations.


The static configuration has the point symmetry C_1 .


Analysis of symmetry for dynamics (positions and initial velocities):
=====================================================================
 Subroutine PRICEL returns:
 Original cell was already a primitive cell.
 

 Routine SETGRP: Setting up the symmetry group for a 
 simple cubic supercell.


 Subroutine GETGRP returns: Found  1 space group operations
 (whereof  1 operations were pure point group operations)
 out of a pool of 48 trial point group operations.


The dynamic configuration has the point symmetry C_1 .


 Subroutine INISYM returns: Found  1 space group operations
 (whereof  1 operations are pure point group operations),
 and found     1 'primitive' translations


----------------------------------------------------------------------------------------

                                     Primitive cell                                     

  volume of cell :   10648.0000

  direct lattice vectors                    reciprocal lattice vectors
    22.000000000  0.000000000  0.000000000     0.045454545  0.000000000  0.000000000
     0.000000000 22.000000000  0.000000000     0.000000000  0.045454545  0.000000000
     0.000000000  0.000000000 22.000000000     0.000000000  0.000000000  0.045454545

  length of vectors
    22.000000000 22.000000000 22.000000000     0.045454545  0.045454545  0.045454545

  position of ions in fractional coordinates (direct lattice)
     0.470403864  0.446802045  0.500007045
     0.548042045  0.505964773  0.499974318
     0.498210682  0.543586591  0.499993864
     0.404446591  0.517832955  0.499973409
     0.440732045  0.407547500  0.499984318
     0.595553409  0.518697955  0.499961591
     0.493330682  0.592452500  0.499961591
     0.448651136  0.505100227  0.500038409
     0.530320682  0.445842955  0.499989318

  ion indices of the primitive-cell ions
   primitive index   ion index
                 1           1
                 2           2
                 3           3
                 4           4
                 5           5
                 6           6
                 7           7
                 8           8
                 9           9

----------------------------------------------------------------------------------------



 KPOINTS: auto                                    

Automatic generation of k-mesh.
 Grid dimensions read from file:
 generate k-points for:    1    1    1

 Generating k-lattice:

  Cartesian coordinates                     Fractional coordinates (reciprocal lattice)
     0.045454545  0.000000000  0.000000000     1.000000000  0.000000000  0.000000000
     0.000000000  0.045454545  0.000000000     0.000000000  1.000000000  0.000000000
     0.000000000  0.000000000  0.045454545     0.000000000  0.000000000  1.000000000

  Length of vectors
     0.045454545  0.045454545  0.045454545

  Shift w.r.t. Gamma in fractional coordinates (k-lattice)
     0.000000000  0.000000000  0.000000000

 
 Subroutine IBZKPT returns following result:
 ===========================================
 
 Found      1 irreducible k-points:
 
 Following reciprocal coordinates:
            Coordinates               Weight
  0.000000  0.000000  0.000000      1.000000
 
 Following cartesian coordinates:
            Coordinates               Weight
  0.000000  0.000000  0.000000      1.000000
 


--------------------------------------------------------------------------------------------------------




 Dimension of arrays:
   k-points           NKPTS =      1   k-points in BZ     NKDIM =      1   number of bands    NBANDS=     20
   number of dos      NEDOS =    301   number of ions     NIONS =      9
   non local maximal  LDIM  =      4   non local SUM 2l+1 LMDIM =      8
   total plane-waves  NPLWV = ******
   max r-space proj   IRMAX =      1   max aug-charges    IRDMAX=   9419
   dimension x,y,z NGX =   240 NGY =  240 NGZ =  240
   dimension x,y,z NGXF=   480 NGYF=  480 NGZF=  480
   support grid    NGXF=   480 NGYF=  480 NGZF=  480
   ions per type =               3   4   2
   NGX,Y,Z   is equivalent  to a cutoff of  18.14, 18.14, 18.14 a.u.
   NGXF,Y,Z  is equivalent  to a cutoff of  36.27, 36.27, 36.27 a.u.

 SYSTEM =  unknown system                          
 POSCAR =   C  H  N                                

 Startparameter for this run:
   NWRITE =      2    write-flag & timer
   PREC   = accura    normal or accurate (medium, high low for compatibility)
   ISTART =      0    job   : 0-new  1-cont  2-samecut
   ICHARG =      2    charge: 1-file 2-atom 10-const
   ISPIN  =      1    spin polarized calculation?
   LNONCOLLINEAR =      F non collinear calculations
   LSORBIT =      F    spin-orbit coupling
   INIWAV =      1    electr: 0-lowe 1-rand  2-diag
   LASPH  =      T    aspherical Exc in radial PAW
 Electronic Relaxation 1
   ENCUT  = 1000.0 eV  73.50 Ry    8.57 a.u.  56.73 56.73 56.73*2*pi/ulx,y,z
   ENINI  = 1000.0     initial cutoff
   ENAUG  = 1000.0 eV  augmentation charge cutoff
   NELM   =     60;   NELMIN=  2; NELMDL= -5     # of ELM steps 
   EDIFF  = 0.1E-06   stopping-criterion for ELM
   LREAL  =      F    real-space projection
   NLSPLINE    = F    spline interpolate recip. space projectors
   LCOMPAT=      F    compatible to vasp.4.4
   GGA_COMPAT  = T    GGA compatible to vasp.4.4-vasp.4.6
   LMAXPAW     = -100 max onsite density
   LMAXMIX     =    2 max onsite mixed and CHGCAR
   VOSKOWN=      0    Vosko Wilk Nusair interpolation
   ROPT   =    0.00000   0.00000   0.00000
 Ionic relaxation
   EDIFFG = 0.1E-05   stopping-criterion for IOM
   NSW    =      0    number of steps for IOM
   NBLOCK =      1;   KBLOCK =      1    inner block; outer block 
   IBRION =     -1    ionic relax: 0-MD 1-quasi-New 2-CG
   NFREE  =      0    steps in history (QN), initial steepest desc. (CG)
   ISIF   =      0    stress and relaxation
   IWAVPR =     10    prediction:  0-non 1-charg 2-wave 3-comb
   ISYM   =      2    0-nonsym 1-usesym 2-fastsym
   LCORR  =      T    Harris-Foulkes like correction to forces

   POTIM  = 0.5000    time-step for ionic-motion
   TEIN   =    0.0    initial temperature
   TEBEG  =    0.0;   TEEND  =   0.0 temperature during run
   SMASS  =  -3.00    Nose mass-parameter (am)
   estimated Nose-frequenzy (Omega)   =  0.10E-29 period in steps = 0.13E+47 mass=  -0.111E-25a.u.
   SCALEE = 1.0000    scale energy and forces
   NPACO  =    256;   APACO  = 10.0  distance and # of slots for P.C.
   PSTRESS=    0.0 pullay stress

  Mass of Ions in am
   POMASS =  12.01  1.00 14.00
  Ionic Valenz
   ZVAL   =   4.00  1.00  5.00
  Atomic Wigner-Seitz radii
   RWIGS  =  -1.00 -1.00 -1.00
  virtual crystal weights 
   VCA    =   1.00  1.00  1.00
   NELECT =      26.0000    total number of electrons
   NUPDOWN=      -1.0000    fix difference up-down

 DOS related values:
   EMIN   =  10.00;   EMAX   =-10.00  energy-range for DOS
   EFERMI =   0.00;   METHOD = LEGACY      
   ISMEAR =     0;   SIGMA  =   0.01  broadening in eV -4-tet -1-fermi 0-gaus

 Electronic relaxation 2 (details)
   IALGO  =     58    algorithm
   LDIAG  =      T    sub-space diagonalisation (order eigenvalues)
   LSUBROT=      F    optimize rotation matrix (better conditioning)
   TURBO    =      0    0=normal 1=particle mesh
   IRESTART =      0    0=no restart 2=restart with 2 vectors
   NREBOOT  =      0    no. of reboots
   NMIN     =      0    reboot dimension
   EREF     =   0.00    reference energy to select bands
   IMIX   =      4    mixing-type and parameters
     AMIX     =   0.40;   BMIX     =  1.00
     AMIX_MAG =   1.60;   BMIX_MAG =  1.00
     AMIN     =   0.10
     WC   =   100.;   INIMIX=   1;  MIXPRE=   1;  MAXMIX= -45

 Intra band minimization:
   WEIMIN = 0.0000     energy-eigenvalue tresh-hold
   EBREAK =  0.13E-08  absolut break condition
   DEPER  =   0.30     relativ break condition  

   TIME   =   0.40     timestep for ELM

  volume/ion in A,a.u.               =    1183.11      7984.03
  Fermi-wavevector in a.u.,A,eV,Ry     =   0.220450  0.416590  0.661218  0.048598
  Thomas-Fermi vector in A             =   1.001172

 Write flags
   LWAVE        =      F    write WAVECAR
   LDOWNSAMPLE  =      F    k-point downsampling of WAVECAR
   LCHARG       =      F    write CHGCAR
   LVTOT        =      F    write LOCPOT, total local potential
   LVHAR        =      F    write LOCPOT, Hartree potential only
   LELF         =      F    write electronic localiz. function (ELF)
   LORBIT       =      0    0 simple, 1 ext, 2 COOP (PROOUT), +10 PAW based schemes


 Dipole corrections
   LMONO  =      F    monopole corrections only (constant potential shift)
   LDIPOL =      F    correct potential (dipole corrections)
   IDIPOL =      0    1-x, 2-y, 3-z, 4-all directions 
   EPSILON=  1.0000000 bulk dielectric constant

 Exchange correlation treatment:
   GGA     =    OR    GGA type
   LEXCH   =    41    internal setting for exchange type
   LIBXC   =     F    Libxc                    
   VOSKOWN =     0    Vosko Wilk Nusair interpolation
   LHFCALC =     F    Hartree Fock is set to
   LHFONE  =     F    Hartree Fock one center treatment
   AEXX    =    0.0000 exact exchange contribution

 vdW DFT:
   LUSE_VDW   =     T    switch on vdW DFT
   IVDW_NL    =     1    kernel type
   LSPIN_VDW  =     F    use spin-polarized vdW DFT
   Zab_VDW    =-.8491    correlation parameter
   PARAM1     =0.1234
   PARAM2     =1.0000
   PARAM3     =0.0000
   -- rVV10 --
   BPARAM     = 6.3000
   CPARAM     = 0.0093

 Linear response parameters
   LEPSILON=     F    determine dielectric tensor
   LRPA    =     F    only Hartree local field effects (RPA)
   LNABLA  =     F    use nabla operator in PAW spheres
   LVEL    =     F    velocity operator in full k-point grid
   CSHIFT  =0.1000    complex shift for real part using Kramers Kronig
   OMEGAMAX=  -1.0    maximum frequency
   DEG_THRESHOLD= 0.2000000E-02 threshold for treating states as degnerate
   RTIME   =   -0.100 relaxation time in fs
  (WPLASMAI=    0.000 imaginary part of plasma frequency in eV, 0.658/RTIME)
   DFIELD  = 0.0000000 0.0000000 0.0000000 field for delta impulse in time

  Optional k-point grid parameters
   LKPOINTS_OPT  =     F    use optional k-point grid
   KPOINTS_OPT_MODE=     1    mode for optional k-point grid

 Orbital magnetization related:
   ORBITALMAG=     F  switch on orbital magnetization
   LCHIMAG   =     F  perturbation theory with respect to B field
   DQ        =  0.001000  dq finite difference perturbation B field
   LLRAUG    =     F  two centre corrections for induced B field
   LBONE     =     F  B-component reconstruction in AE one-centre
   LVGVCALC  =     T  calculate vGv susceptibility
   LVGVAPPL  =     F  apply vGv susceptibility instead of pGv for G=0

 Random number generation:
   RANDOM_GENERATOR = DEFAULT
   PCG_SEED         = not used


--------------------------------------------------------------------------------------------------------


 Static calculation
 charge density and potential will be updated during run
 non-spin polarized calculation
 Conjugate gradient for all bands (Freysoldt, et al. PRB 79, 241103 (2009))
 preconditioned conjugated gradient                                        
 perform sub-space diagonalisation
    before iterative eigenvector-optimisation
 modified Broyden-mixing scheme, WC =      100.0
 initial mixing is a Kerker type mixing with AMIX =  0.4000 and BMIX =      1.0000
 Hartree-type preconditioning will be used
 using additional bands            7
 reciprocal scheme for non local part
 use partial core corrections
 no Harris-corrections to forces 
 use gradient corrections 
 use of overlap-Matrix (Vanderbilt PP)
 Gauss-broadening in eV      SIGMA  =   0.01


--------------------------------------------------------------------------------------------------------


  energy-cutoff  :     1000.00
  volume of cell :    10648.00
      direct lattice vectors                 reciprocal lattice vectors
    22.000000000  0.000000000  0.000000000     0.045454545  0.000000000  0.000000000
     0.000000000 22.000000000  0.000000000     0.000000000  0.045454545  0.000000000
     0.000000000  0.000000000 22.000000000     0.000000000  0.000000000  0.045454545

  length of vectors
    22.000000000 22.000000000 22.000000000     0.045454545  0.045454545  0.045454545



 k-points in units of 2pi/SCALE and weight: auto                                    
   0.00000000  0.00000000  0.00000000       1.000

 k-points in reciprocal lattice and weights: auto                                    
   0.00000000  0.00000000  0.00000000       1.000

 position of ions in fractional coordinates (direct lattice) 
   0.47040386  0.44680205  0.50000705
   0.54804205  0.50596477  0.49997432
   0.49821068  0.54358659  0.49999386
   0.40444659  0.51783295  0.49997341
   0.44073205  0.40754750  0.49998432
   0.59555341  0.51869795  0.49996159
   0.49333068  0.59245250  0.49996159
   0.44865114  0.50510023  0.50003841
   0.53032068  0.44584295  0.49998932

 position of ions in cartesian coordinates  (Angst):
  10.34888500  9.82964500 11.00015500
  12.05692500 11.13122500 10.99943500
  10.96063500 11.95890500 10.99986500
   8.89782500 11.39232500 10.99941500
   9.69610500  8.96604500 10.99965500
  13.10217500 11.41135500 10.99915500
  10.85327500 13.03395500 10.99915500
   9.87032500 11.11220500 11.00084500
  11.66705500  9.80854500 10.99976500



--------------------------------------------------------------------------------------------------------


 use parallel FFT for orbitals z direction half grid
 k-point   1 :   0.0000 0.0000 0.0000  plane waves:  381993

 maximum and minimum number of plane-waves per node :      2992     2977

 maximum number of plane-waves:    381993
 maximum index in each direction: 
   IXMAX=   56   IYMAX=   56   IZMAX=   56
   IXMIN=  -56   IYMIN=  -56   IZMIN=    0


 parallel 3D FFT for wavefunctions:
    minimum data exchange during FFTs selected (reduces bandwidth)
 parallel 3D FFT for charge:
    minimum data exchange during FFTs selected (reduces bandwidth)


 total amount of memory used by VASP MPI-rank0    61522. kBytes
=======================================================================

   base      :      30000. kBytes
   nonl-proj :       1002. kBytes
   fftplans  :      10395. kBytes
   grid      :      19407. kBytes
   one-center:          1. kBytes
   wavefun   :        717. kBytes

     INWAV:  cpu time      0.0002: real time      0.0003
 Broyden mixing: mesh for mixing (old mesh)
   NGX =113   NGY =113   NGZ =113
  (NGX  =480   NGY  =480   NGZ  =480)
  gives a total of ****** points

 initial charge density was supplied:
 charge density of overlapping atoms calculated
 number of electron      26.0000000 magnetization 
 keeping initial charge density in first step


--------------------------------------------------------------------------------------------------------


 Maximum index for augmentation-charges            0 (set IRDMAX)


--------------------------------------------------------------------------------------------------------


 First call to EWALD:  gamma=   0.081
 Maximum number of real-space cells 3x 3x 3
 Maximum number of reciprocal cells 3x 3x 3

    FEWALD:  cpu time      0.0034: real time      0.0035


--------------------------------------- Ionic step        1  -------------------------------------------




--------------------------------------- Iteration      1(   1)  ---------------------------------------


vdW kernel read from vdw_kernel.bindat
  0.0000  0.2424  0.5071  0.7962  1.1119  1.4567  1.8333  2.2446  2.6937  3.1842
  3.7199  4.3049  4.9438  5.6415  6.4036  7.2358  8.1446  9.1372 10.2212 11.4050
 12.6979 14.1099 15.6519 17.3360 19.1751 21.1837 23.3773 25.7729 28.3892 31.2465
 34.3669 37.7748 41.4965 45.5611 50.0000

    POTLOK:  cpu time     11.2874: real time     11.2929
    SETDIJ:  cpu time      0.0747: real time      0.0750
    TRIAL :  cpu time      0.2689: real time      0.2703
    CORREC:  cpu time      0.0019: real time      0.0020
    --------------------------------------------
      LOOP:  cpu time     11.6388: real time     11.6468

 eigenvalue-minimisations  :    56
 total energy-change (2. order) : 0.2422372E+03  (-0.6452095E+03)
 number of electron      26.0000000 magnetization 
 augmentation part       26.0000000 magnetization 

 Free energy of the ion-electron system (eV)
  ---------------------------------------------------
  alpha Z        PSCENC =         0.19661355
  Ewald energy   TEWEN  =      1675.60574849
  -Hartree energ DENC   =     -2382.84811811
  -exchange      EXHF   =         0.00000000
  -V(xc)+E(xc)   XCENC  =        61.76835197
  PAW double counting   =       764.15683065     -743.85134606
  entropy T*S    EENTRO =        -0.00003605
  eigenvalues    EBANDS =      -164.03003907
  atomic energy  EATOM  =      1031.23922881
  ---------------------------------------------------
  free energy    TOTEN  =       242.23723419 eV

  energy without entropy =      242.23727024  energy(sigma->0) =      242.23725221


--------------------------------------------------------------------------------------------------------




--------------------------------------- Iteration      1(   2)  ---------------------------------------


    TRIAL :  cpu time      0.2370: real time      0.2370
    CORREC:  cpu time      0.0001: real time      0.0001
    --------------------------------------------
      LOOP:  cpu time      0.2629: real time      0.2634

 eigenvalue-minimisations  :    60
 total energy-change (2. order) :-0.1193546E+03  (-0.1175315E+03)
 number of electron      26.0000000 magnetization 
 augmentation part       26.0000000 magnetization 

 Free energy of the ion-electron system (eV)
  ---------------------------------------------------
  alpha Z        PSCENC =         0.19661355
  Ewald energy   TEWEN  =      1675.60574849
  -Hartree energ DENC   =     -2382.84811811
  -exchange      EXHF   =         0.00000000
  -V(xc)+E(xc)   XCENC  =        61.76835197
  PAW double counting   =       764.15683065     -743.85134606
  entropy T*S    EENTRO =        -0.00000000
  eigenvalues    EBANDS =      -283.38464186
  atomic energy  EATOM  =      1031.23922881
  ---------------------------------------------------
  free energy    TOTEN  =       122.88266745 eV

  energy without entropy =      122.88266745  energy(sigma->0) =      122.88266745


--------------------------------------------------------------------------------------------------------




--------------------------------------- Iteration      1(   3)  ---------------------------------------


    TRIAL :  cpu time      0.2923: real time      0.2923
    CORREC:  cpu time      0.0001: real time      0.0001
    --------------------------------------------
      LOOP:  cpu time      0.3094: real time      0.3226

 eigenvalue-minimisations  :    80
 total energy-change (2. order) :-0.1339862E+03  (-0.1327687E+03)
 number of electron      26.0000000 magnetization 
 augmentation part       26.0000000 magnetization 

 Free energy of the ion-electron system (eV)
  ---------------------------------------------------
  alpha Z        PSCENC =         0.19661355
  Ewald energy   TEWEN  =      1675.60574849
  -Hartree energ DENC   =     -2382.84811811
  -exchange      EXHF   =         0.00000000
  -V(xc)+E(xc)   XCENC  =        61.76835197
  PAW double counting   =       764.15683065     -743.85134606
  entropy T*S    EENTRO =        -0.00000000
  eigenvalues    EBANDS =      -417.37086072
  atomic energy  EATOM  =      1031.23922881
  ---------------------------------------------------
  free energy    TOTEN  =       -11.10355142 eV

  energy without entropy =      -11.10355142  energy(sigma->0) =      -11.10355142


--------------------------------------------------------------------------------------------------------




--------------------------------------- Iteration      1(   4)  ---------------------------------------


    TRIAL :  cpu time      0.2009: real time      0.2011
    CORREC:  cpu time      0.0001: real time      0.0001
    --------------------------------------------
      LOOP:  cpu time      0.2171: real time      0.2329

 eigenvalue-minimisations  :    48
 total energy-change (2. order) :-0.4179105E+02  (-0.4172392E+02)
 number of electron      26.0000000 magnetization 
 augmentation part       26.0000000 magnetization 

 Free energy of the ion-electron system (eV)
  ---------------------------------------------------
  alpha Z        PSCENC =         0.19661355
  Ewald energy   TEWEN  =      1675.60574849
  -Hartree energ DENC   =     -2382.84811811
  -exchange      EXHF   =         0.00000000
  -V(xc)+E(xc)   XCENC  =        61.76835197
  PAW double counting   =       764.15683065     -743.85134606
  entropy T*S    EENTRO =        -0.00000000
  eigenvalues    EBANDS =      -459.16190947
  atomic energy  EATOM  =      1031.23922881
  ---------------------------------------------------
  free energy    TOTEN  =       -52.89460017 eV

  energy without entropy =      -52.89460017  energy(sigma->0) =      -52.89460017


--------------------------------------------------------------------------------------------------------




--------------------------------------- Iteration      1(   5)  ---------------------------------------


    TRIAL :  cpu time      0.2246: real time      0.2246
    CORREC:  cpu time      0.0001: real time      0.0001
    CHARGE:  cpu time      0.0697: real time      0.0714
    --------------------------------------------
      LOOP:  cpu time      0.3125: real time      0.3300

 eigenvalue-minimisations  :    56
 total energy-change (2. order) :-0.2933813E+01  (-0.2932826E+01)
 number of electron      26.0000000 magnetization 
 augmentation part       -0.0344776 magnetization 

 Free energy of the ion-electron system (eV)
  ---------------------------------------------------
  alpha Z        PSCENC =         0.19661355
  Ewald energy   TEWEN  =      1675.60574849
  -Hartree energ DENC   =     -2382.84811811
  -exchange      EXHF   =         0.00000000
  -V(xc)+E(xc)   XCENC  =        61.76835197
  PAW double counting   =       764.15683065     -743.85134606
  entropy T*S    EENTRO =        -0.00000000
  eigenvalues    EBANDS =      -462.09572242
  atomic energy  EATOM  =      1031.23922881
  ---------------------------------------------------
  free energy    TOTEN  =       -55.82841312 eV

  energy without entropy =      -55.82841312  energy(sigma->0) =      -55.82841312


--------------------------------------------------------------------------------------------------------




--------------------------------------- Iteration      1(   6)  ---------------------------------------


    POTLOK:  cpu time     10.8339: real time     10.8366
    SETDIJ:  cpu time      0.0686: real time      0.0686
    TRIAL :  cpu time      0.1234: real time      0.1248
    CORREC:  cpu time     10.8719: real time     10.8749
    CHARGE:  cpu time      0.0426: real time      0.0426
    --------------------------------------------
      LOOP:  cpu time     21.9584: real time     21.9817

 eigenvalue-minimisations  :     0
 total energy-change (2. order) : 0.1106124E+02  (-0.4625201E+01)
 number of electron      26.0000000 magnetization 
 augmentation part       -0.0451476 magnetization 

 Free energy of the ion-electron system (eV)
  ---------------------------------------------------
  alpha Z        PSCENC =         0.19661355
  Ewald energy   TEWEN  =      1675.60574849
  -Hartree energ DENC   =     -2616.02562657
  -exchange      EXHF   =         0.00000000
  -V(xc)+E(xc)   XCENC  =        71.00776028
  PAW double counting   =      7513.61521007    -7494.45684515
  entropy T*S    EENTRO =        -0.00000000
  eigenvalues    EBANDS =      -225.94926731
  atomic energy  EATOM  =      1031.23922881
  ---------------------------------------------------
  free energy    TOTEN  =       -44.76717783 eV

  energy without entropy =      -44.76717783  energy(sigma->0) =      -44.76717783


--------------------------------------------------------------------------------------------------------




--------------------------------------- Iteration      1(   7)  ---------------------------------------


    POTLOK:  cpu time     10.7251: real time     10.7280
    SETDIJ:  cpu time      0.0684: real time      0.0684
    TRIAL :  cpu time      0.1036: real time      0.1036
    CORREC:  cpu time     10.9452: real time     10.9482
    CHARGE:  cpu time      0.0429: real time      0.0429
    --------------------------------------------
      LOOP:  cpu time     21.9154: real time     21.9215

 eigenvalue-minimisations  :     0
 total energy-change (2. order) :-0.4691489E+01  (-0.4592183E+00)
 number of electron      26.0000000 magnetization 
 augmentation part       -0.0568210 magnetization 

 Free energy of the ion-electron system (eV)
  ---------------------------------------------------
  alpha Z        PSCENC =         0.19661355
  Ewald energy   TEWEN  =      1675.60574849
  -Hartree energ DENC   =     -2507.68719161
  -exchange      EXHF   =         0.00000000
  -V(xc)+E(xc)   XCENC  =        67.05883025
  PAW double counting   =      9534.93558426    -9515.26952839
  entropy T*S    EENTRO =        -0.00000000
  eigenvalues    EBANDS =      -335.53795262
  atomic energy  EATOM  =      1031.23922881
  ---------------------------------------------------
  free energy    TOTEN  =       -49.45866726 eV

  energy without entropy =      -49.45866726  energy(sigma->0) =      -49.45866726


--------------------------------------------------------------------------------------------------------




--------------------------------------- Iteration      1(   8)  ---------------------------------------


    POTLOK:  cpu time     10.7588: real time     10.7617
    SETDIJ:  cpu time      0.0686: real time      0.0686
    TRIAL :  cpu time      0.1044: real time      0.1044
    CORREC:  cpu time     10.8201: real time     10.8231
    CHARGE:  cpu time      0.0432: real time      0.0432
    --------------------------------------------
      LOOP:  cpu time     21.8112: real time     21.8311

 eigenvalue-minimisations  :     0
 total energy-change (2. order) :-0.4602441E+00  (-0.1725572E+00)
 number of electron      26.0000000 magnetization 
 augmentation part       -0.0588627 magnetization 

 Free energy of the ion-electron system (eV)
  ---------------------------------------------------
  alpha Z        PSCENC =         0.19661355
  Ewald energy   TEWEN  =      1675.60574849
  -Hartree energ DENC   =     -2506.57800704
  -exchange      EXHF   =         0.00000000
  -V(xc)+E(xc)   XCENC  =        67.06654808
  PAW double counting   =     10138.06109913   -10118.33564977
  entropy T*S    EENTRO =        -0.00000000
  eigenvalues    EBANDS =      -337.17449263
  atomic energy  EATOM  =      1031.23922881
  ---------------------------------------------------
  free energy    TOTEN  =       -49.91891139 eV

  energy without entropy =      -49.91891139  energy(sigma->0) =      -49.91891139


--------------------------------------------------------------------------------------------------------




--------------------------------------- Iteration      1(   9)  ---------------------------------------


    POTLOK:  cpu time     10.6982: real time     10.7006
    SETDIJ:  cpu time      0.0685: real time      0.0685
    TRIAL :  cpu time      0.1040: real time      0.1040
    CORREC:  cpu time     10.8274: real time     10.8301
    CHARGE:  cpu time      0.0436: real time      0.0436
    --------------------------------------------
      LOOP:  cpu time     21.7564: real time     21.7776

 eigenvalue-minimisations  :     0
 total energy-change (2. order) :-0.1719787E+00  (-0.8054337E-01)
 number of electron      26.0000000 magnetization 
 augmentation part       -0.0594444 magnetization 

 Free energy of the ion-electron system (eV)
  ---------------------------------------------------
  alpha Z        PSCENC =         0.19661355
  Ewald energy   TEWEN  =      1675.60574849
  -Hartree energ DENC   =     -2504.18136606
  -exchange      EXHF   =         0.00000000
  -V(xc)+E(xc)   XCENC  =        66.98799061
  PAW double counting   =     10426.22651016   -10406.46629864
  entropy T*S    EENTRO =        -0.00000000
  eigenvalues    EBANDS =      -339.69931703
  atomic energy  EATOM  =      1031.23922881
  ---------------------------------------------------
  free energy    TOTEN  =       -50.09089012 eV

  energy without entropy =      -50.09089012  energy(sigma->0) =      -50.09089012


--------------------------------------------------------------------------------------------------------




--------------------------------------- Iteration      1(  10)  ---------------------------------------


    POTLOK:  cpu time     10.7596: real time     10.7624
    SETDIJ:  cpu time      0.0689: real time      0.0689
    TRIAL :  cpu time      0.1037: real time      0.1037
    CORREC:  cpu time     10.7711: real time     10.7736
    CHARGE:  cpu time      0.0433: real time      0.0433
    --------------------------------------------
      LOOP:  cpu time     21.7618: real time     21.7824

 eigenvalue-minimisations  :     0
 total energy-change (2. order) :-0.7946242E-01  (-0.2753336E-01)
 number of electron      26.0000000 magnetization 
 augmentation part       -0.0594525 magnetization 

 Free energy of the ion-electron system (eV)
  ---------------------------------------------------
  alpha Z        PSCENC =         0.19661355
  Ewald energy   TEWEN  =      1675.60574849
  -Hartree energ DENC   =     -2501.33451857
  -exchange      EXHF   =         0.00000000
  -V(xc)+E(xc)   XCENC  =        66.89850685
  PAW double counting   =     10364.42140924   -10344.65093831
  entropy T*S    EENTRO =        -0.00000000
  eigenvalues    EBANDS =      -342.54640259
  atomic energy  EATOM  =      1031.23922881
  ---------------------------------------------------
  free energy    TOTEN  =       -50.17035254 eV

  energy without entropy =      -50.17035254  energy(sigma->0) =      -50.17035254


--------------------------------------------------------------------------------------------------------




--------------------------------------- Iteration      1(  11)  ---------------------------------------


    POTLOK:  cpu time     10.6928: real time     10.6955
    SETDIJ:  cpu time      0.0688: real time      0.0688
    TRIAL :  cpu time      0.1036: real time      0.1036
    CORREC:  cpu time     10.8961: real time     10.8988
    CHARGE:  cpu time      0.0429: real time      0.0429
    --------------------------------------------
      LOOP:  cpu time     21.8211: real time     21.8413

 eigenvalue-minimisations  :     0
 total energy-change (2. order) :-0.2736415E-01  (-0.7617195E-02)
 number of electron      26.0000000 magnetization 
 augmentation part       -0.0590848 magnetization 

 Free energy of the ion-electron system (eV)
  ---------------------------------------------------
  alpha Z        PSCENC =         0.19661355
  Ewald energy   TEWEN  =      1675.60574849
  -Hartree energ DENC   =     -2501.15146946
  -exchange      EXHF   =         0.00000000
  -V(xc)+E(xc)   XCENC  =        66.90039254
  PAW double counting   =     10190.52555100   -10170.76470354
  entropy T*S    EENTRO =        -0.00000000
  eigenvalues    EBANDS =      -342.74907807
  atomic energy  EATOM  =      1031.23922881
  ---------------------------------------------------
  free energy    TOTEN  =       -50.19771668 eV

  energy without entropy =      -50.19771668  energy(sigma->0) =      -50.19771668


--------------------------------------------------------------------------------------------------------




--------------------------------------- Iteration      1(  12)  ---------------------------------------


    POTLOK:  cpu time     10.6508: real time     10.6535
    SETDIJ:  cpu time      0.0687: real time      0.0687
    TRIAL :  cpu time      0.1037: real time      0.1037
    CORREC:  cpu time     10.8864: real time     10.8893
    CHARGE:  cpu time      0.0429: real time      0.0429
    --------------------------------------------
      LOOP:  cpu time     21.7826: real time     21.7886

 eigenvalue-minimisations  :     0
 total energy-change (2. order) :-0.7605621E-02  (-0.2161994E-02)
 number of electron      26.0000000 magnetization 
 augmentation part       -0.0588677 magnetization 

 Free energy of the ion-electron system (eV)
  ---------------------------------------------------
  alpha Z        PSCENC =         0.19661355
  Ewald energy   TEWEN  =      1675.60574849
  -Hartree energ DENC   =     -2500.86107074
  -exchange      EXHF   =         0.00000000
  -V(xc)+E(xc)   XCENC  =        66.88729690
  PAW double counting   =     10110.19210145   -10090.43685715
  entropy T*S    EENTRO =        -0.00000000
  eigenvalues    EBANDS =      -343.02838362
  atomic energy  EATOM  =      1031.23922881
  ---------------------------------------------------
  free energy    TOTEN  =       -50.20532231 eV

  energy without entropy =      -50.20532231  energy(sigma->0) =      -50.20532231


--------------------------------------------------------------------------------------------------------




--------------------------------------- Iteration      1(  13)  ---------------------------------------


    POTLOK:  cpu time     10.7196: real time     10.7223
    SETDIJ:  cpu time      0.0686: real time      0.0686
    TRIAL :  cpu time      0.1032: real time      0.1032
    CORREC:  cpu time     10.7463: real time     10.7490
    CHARGE:  cpu time      0.0428: real time      0.0428
    --------------------------------------------
      LOOP:  cpu time     21.6951: real time     21.7163

 eigenvalue-minimisations  :     0
 total energy-change (2. order) :-0.2162795E-02  (-0.6654635E-03)
 number of electron      26.0000000 magnetization 
 augmentation part       -0.0587615 magnetization 

 Free energy of the ion-electron system (eV)
  ---------------------------------------------------
  alpha Z        PSCENC =         0.19661355
  Ewald energy   TEWEN  =      1675.60574849
  -Hartree energ DENC   =     -2500.58633810
  -exchange      EXHF   =         0.00000000
  -V(xc)+E(xc)   XCENC  =        66.87379953
  PAW double counting   =     10093.23519048   -10073.48181937
  entropy T*S    EENTRO =        -0.00000000
  eigenvalues    EBANDS =      -343.28990848
  atomic energy  EATOM  =      1031.23922881
  ---------------------------------------------------
  free energy    TOTEN  =       -50.20748510 eV

  energy without entropy =      -50.20748510  energy(sigma->0) =      -50.20748510


--------------------------------------------------------------------------------------------------------




--------------------------------------- Iteration      1(  14)  ---------------------------------------


    POTLOK:  cpu time     10.7789: real time     10.7811
    SETDIJ:  cpu time      0.0686: real time      0.0686
    TRIAL :  cpu time      0.1033: real time      0.1034
    CORREC:  cpu time     10.7501: real time     10.7527
    CHARGE:  cpu time      0.0432: real time      0.0432
    --------------------------------------------
      LOOP:  cpu time     21.7589: real time     21.7833

 eigenvalue-minimisations  :     0
 total energy-change (2. order) :-0.6660158E-03  (-0.2276864E-03)
 number of electron      26.0000000 magnetization 
 augmentation part       -0.0587334 magnetization 

 Free energy of the ion-electron system (eV)
  ---------------------------------------------------
  alpha Z        PSCENC =         0.19661355
  Ewald energy   TEWEN  =      1675.60574849
  -Hartree energ DENC   =     -2500.73988245
  -exchange      EXHF   =         0.00000000
  -V(xc)+E(xc)   XCENC  =        66.87780592
  PAW double counting   =     10095.78181196   -10076.02991271
  entropy T*S    EENTRO =        -0.00000000
  eigenvalues    EBANDS =      -343.13956469
  atomic energy  EATOM  =      1031.23922881
  ---------------------------------------------------
  free energy    TOTEN  =       -50.20815112 eV

  energy without entropy =      -50.20815112  energy(sigma->0) =      -50.20815112


--------------------------------------------------------------------------------------------------------




--------------------------------------- Iteration      1(  15)  ---------------------------------------


    POTLOK:  cpu time     10.7482: real time     10.7509
    SETDIJ:  cpu time      0.0715: real time      0.0715
    TRIAL :  cpu time      0.1037: real time      0.1037
    CORREC:  cpu time     10.8399: real time     10.8426
    CHARGE:  cpu time      0.0429: real time      0.0429
    --------------------------------------------
      LOOP:  cpu time     21.8378: real time     21.8435

 eigenvalue-minimisations  :     0
 total energy-change (2. order) :-0.2276920E-03  (-0.8751516E-04)
 number of electron      26.0000000 magnetization 
 augmentation part       -0.0587197 magnetization 

 Free energy of the ion-electron system (eV)
  ---------------------------------------------------
  alpha Z        PSCENC =         0.19661355
  Ewald energy   TEWEN  =      1675.60574849
  -Hartree energ DENC   =     -2500.79361717
  -exchange      EXHF   =         0.00000000
  -V(xc)+E(xc)   XCENC  =        66.87888637
  PAW double counting   =     10102.70958101   -10082.95778622
  entropy T*S    EENTRO =        -0.00000000
  eigenvalues    EBANDS =      -343.08703367
  atomic energy  EATOM  =      1031.23922881
  ---------------------------------------------------
  free energy    TOTEN  =       -50.20837881 eV

  energy without entropy =      -50.20837881  energy(sigma->0) =      -50.20837881


--------------------------------------------------------------------------------------------------------




--------------------------------------- Iteration      1(  16)  ---------------------------------------


    POTLOK:  cpu time     10.6480: real time     10.6507
    SETDIJ:  cpu time      0.0686: real time      0.0686
    TRIAL :  cpu time      0.1041: real time      0.1042
    CORREC:  cpu time     10.8561: real time     10.8589
    CHARGE:  cpu time      0.0433: real time      0.0433
    --------------------------------------------
      LOOP:  cpu time     21.7349: real time     21.7567

 eigenvalue-minimisations  :     0
 total energy-change (2. order) :-0.8761837E-04  (-0.3125758E-04)
 number of electron      26.0000000 magnetization 
 augmentation part       -0.0586945 magnetization 

 Free energy of the ion-electron system (eV)
  ---------------------------------------------------
  alpha Z        PSCENC =         0.19661355
  Ewald energy   TEWEN  =      1675.60574849
  -Hartree energ DENC   =     -2500.81740356
  -exchange      EXHF   =         0.00000000
  -V(xc)+E(xc)   XCENC  =        66.87915650
  PAW double counting   =     10105.95155812   -10086.19949048
  entropy T*S    EENTRO =        -0.00000000
  eigenvalues    EBANDS =      -343.06387785
  atomic energy  EATOM  =      1031.23922881
  ---------------------------------------------------
  free energy    TOTEN  =       -50.20846643 eV

  energy without entropy =      -50.20846643  energy(sigma->0) =      -50.20846643


--------------------------------------------------------------------------------------------------------




--------------------------------------- Iteration      1(  17)  ---------------------------------------


    POTLOK:  cpu time     10.6153: real time     10.6178
    SETDIJ:  cpu time      0.0694: real time      0.0694
    TRIAL :  cpu time      0.1051: real time      0.1051
    CORREC:  cpu time     10.7308: real time     10.7334
    CHARGE:  cpu time      0.0427: real time      0.0427
    --------------------------------------------
      LOOP:  cpu time     21.5789: real time     21.6018

 eigenvalue-minimisations  :     0
 total energy-change (2. order) :-0.3135642E-04  (-0.1024421E-04)
 number of electron      26.0000000 magnetization 
 augmentation part       -0.0586807 magnetization 

 Free energy of the ion-electron system (eV)
  ---------------------------------------------------
  alpha Z        PSCENC =         0.19661355
  Ewald energy   TEWEN  =      1675.60574849
  -Hartree energ DENC   =     -2500.87919580
  -exchange      EXHF   =         0.00000000
  -V(xc)+E(xc)   XCENC  =        66.88129712
  PAW double counting   =     10105.22905964   -10085.47699463
  entropy T*S    EENTRO =        -0.00000000
  eigenvalues    EBANDS =      -343.00425495
  atomic energy  EATOM  =      1031.23922881
  ---------------------------------------------------
  free energy    TOTEN  =       -50.20849778 eV

  energy without entropy =      -50.20849778  energy(sigma->0) =      -50.20849778


--------------------------------------------------------------------------------------------------------




--------------------------------------- Iteration      1(  18)  ---------------------------------------


    POTLOK:  cpu time     10.8128: real time     10.8155
    SETDIJ:  cpu time      0.0685: real time      0.0685
    TRIAL :  cpu time      0.1039: real time      0.1039
    CORREC:  cpu time     10.7796: real time     10.7822
    CHARGE:  cpu time      0.0430: real time      0.0430
    --------------------------------------------
      LOOP:  cpu time     21.8384: real time     21.8440

 eigenvalue-minimisations  :     0
 total energy-change (2. order) :-0.1032499E-04  (-0.3560117E-05)
 number of electron      26.0000000 magnetization 
 augmentation part       -0.0586707 magnetization 

 Free energy of the ion-electron system (eV)
  ---------------------------------------------------
  alpha Z        PSCENC =         0.19661355
  Ewald energy   TEWEN  =      1675.60574849
  -Hartree energ DENC   =     -2500.87123885
  -exchange      EXHF   =         0.00000000
  -V(xc)+E(xc)   XCENC  =        66.88115227
  PAW double counting   =     10104.58077858   -10084.82861344
  entropy T*S    EENTRO =        -0.00000000
  eigenvalues    EBANDS =      -343.01217751
  atomic energy  EATOM  =      1031.23922881
  ---------------------------------------------------
  free energy    TOTEN  =       -50.20850811 eV

  energy without entropy =      -50.20850811  energy(sigma->0) =      -50.20850811


--------------------------------------------------------------------------------------------------------




--------------------------------------- Iteration      1(  19)  ---------------------------------------


    POTLOK:  cpu time     10.6925: real time     10.6952
    SETDIJ:  cpu time      0.0684: real time      0.0684
    TRIAL :  cpu time      0.1031: real time      0.1031
    CORREC:  cpu time     10.8744: real time     10.8770
    CHARGE:  cpu time      0.0430: real time      0.0431
    --------------------------------------------
      LOOP:  cpu time     21.8029: real time     21.8176

 eigenvalue-minimisations  :     0
 total energy-change (2. order) :-0.3569719E-05  (-0.1361144E-05)
 number of electron      26.0000000 magnetization 
 augmentation part       -0.0586675 magnetization 

 Free energy of the ion-electron system (eV)
  ---------------------------------------------------
  alpha Z        PSCENC =         0.19661355
  Ewald energy   TEWEN  =      1675.60574849
  -Hartree energ DENC   =     -2500.87885401
  -exchange      EXHF   =         0.00000000
  -V(xc)+E(xc)   XCENC  =        66.88154923
  PAW double counting   =     10104.55787178   -10084.80572834
  entropy T*S    EENTRO =        -0.00000000
  eigenvalues    EBANDS =      -343.00494119
  atomic energy  EATOM  =      1031.23922881
  ---------------------------------------------------
  free energy    TOTEN  =       -50.20851168 eV

  energy without entropy =      -50.20851168  energy(sigma->0) =      -50.20851168


--------------------------------------------------------------------------------------------------------




--------------------------------------- Iteration      1(  20)  ---------------------------------------


    POTLOK:  cpu time     10.5620: real time     10.5648
    SETDIJ:  cpu time      0.0689: real time      0.0689
    TRIAL :  cpu time      0.1031: real time      0.1031
    CORREC:  cpu time     10.9646: real time     10.9673
    CHARGE:  cpu time      0.0433: real time      0.0434
    --------------------------------------------
      LOOP:  cpu time     21.7588: real time     21.7794

 eigenvalue-minimisations  :     0
 total energy-change (2. order) :-0.1356168E-05  (-0.5143484E-06)
 number of electron      26.0000000 magnetization 
 augmentation part       -0.0586671 magnetization 

 Free energy of the ion-electron system (eV)
  ---------------------------------------------------
  alpha Z        PSCENC =         0.19661355
  Ewald energy   TEWEN  =      1675.60574849
  -Hartree energ DENC   =     -2500.87693535
  -exchange      EXHF   =         0.00000000
  -V(xc)+E(xc)   XCENC  =        66.88154226
  PAW double counting   =     10105.02325227   -10085.27111735
  entropy T*S    EENTRO =        -0.00000000
  eigenvalues    EBANDS =      -343.00684571
  atomic energy  EATOM  =      1031.23922881
  ---------------------------------------------------
  free energy    TOTEN  =       -50.20851303 eV

  energy without entropy =      -50.20851303  energy(sigma->0) =      -50.20851303


--------------------------------------------------------------------------------------------------------




--------------------------------------- Iteration      1(  21)  ---------------------------------------


    POTLOK:  cpu time     10.6384: real time     10.6413
    SETDIJ:  cpu time      0.0685: real time      0.0685
    TRIAL :  cpu time      0.1049: real time      0.1049
    CORREC:  cpu time     10.8503: real time     10.8535
    CHARGE:  cpu time      0.0428: real time      0.0428
    --------------------------------------------
      LOOP:  cpu time     21.7216: real time     21.7438

 eigenvalue-minimisations  :     0
 total energy-change (2. order) :-0.5105776E-06  (-0.1907910E-06)
 number of electron      26.0000000 magnetization 
 augmentation part       -0.0586663 magnetization 

 Free energy of the ion-electron system (eV)
  ---------------------------------------------------
  alpha Z        PSCENC =         0.19661355
  Ewald energy   TEWEN  =      1675.60574849
  -Hartree energ DENC   =     -2500.87244673
  -exchange      EXHF   =         0.00000000
  -V(xc)+E(xc)   XCENC  =        66.88139180
  PAW double counting   =     10105.43648698   -10085.68435007
  entropy T*S    EENTRO =        -0.00000000
  eigenvalues    EBANDS =      -343.01118637
  atomic energy  EATOM  =      1031.23922881
  ---------------------------------------------------
  free energy    TOTEN  =       -50.20851354 eV

  energy without entropy =      -50.20851354  energy(sigma->0) =      -50.20851354


--------------------------------------------------------------------------------------------------------




--------------------------------------- Iteration      1(  22)  ---------------------------------------


    POTLOK:  cpu time     10.7404: real time     10.7435
    SETDIJ:  cpu time      0.0688: real time      0.0688
    TRIAL :  cpu time      0.1034: real time      0.1036
    CORREC:  cpu time     10.7943: real time     10.7969
    CHARGE:  cpu time      0.0430: real time      0.0431
    --------------------------------------------
      LOOP:  cpu time     21.7804: real time     21.7865

 eigenvalue-minimisations  :     0
 total energy-change (2. order) :-0.1842454E-06  (-0.5276030E-07)
 number of electron      26.0000000 magnetization 
 augmentation part       -0.0586667 magnetization 

 Free energy of the ion-electron system (eV)
  ---------------------------------------------------
  alpha Z        PSCENC =         0.19661355
  Ewald energy   TEWEN  =      1675.60574849
  -Hartree energ DENC   =     -2500.87418185
  -exchange      EXHF   =         0.00000000
  -V(xc)+E(xc)   XCENC  =        66.88144309
  PAW double counting   =     10105.54372453   -10085.79160467
  entropy T*S    EENTRO =        -0.00000000
  eigenvalues    EBANDS =      -343.00948569
  atomic energy  EATOM  =      1031.23922881
  ---------------------------------------------------
  free energy    TOTEN  =       -50.20851373 eV

  energy without entropy =      -50.20851373  energy(sigma->0) =      -50.20851373


--------------------------------------------------------------------------------------------------------




--------------------------------------- Iteration      1(  23)  ---------------------------------------


    POTLOK:  cpu time     10.6543: real time     10.6571
    SETDIJ:  cpu time      0.0690: real time      0.0690
    TRIAL :  cpu time      0.1044: real time      0.1044
    CORREC:  cpu time     10.8462: real time     10.8495
    EDDIAG:  cpu time      0.0590: real time      0.0604
    CHARGE:  cpu time      0.0436: real time      0.0436
    --------------------------------------------
      LOOP:  cpu time     21.8070: real time     21.8149

 eigenvalue-minimisations  :     0
 total energy-change (2. order) :-0.5342190E-07  (-0.2195597E-07)
 number of electron      26.0000000 magnetization 
 augmentation part       -0.0586665 magnetization 

 Free energy of the ion-electron system (eV)
  ---------------------------------------------------
  alpha Z        PSCENC =         0.19661355
  Ewald energy   TEWEN  =      1675.60574849
  -Hartree energ DENC   =     -2500.87122243
  -exchange      EXHF   =         0.00000000
  -V(xc)+E(xc)   XCENC  =        66.88132767
  PAW double counting   =     10105.53605557   -10085.78393037
  entropy T*S    EENTRO =        -0.00000000
  eigenvalues    EBANDS =      -343.01233507
  atomic energy  EATOM  =      1031.23922881
  ---------------------------------------------------
  free energy    TOTEN  =       -50.20851378 eV

  energy without entropy =      -50.20851378  energy(sigma->0) =      -50.20851378


--------------------------------------------------------------------------------------------------------


  average scaling for gradient   1.0292


 average (electrostatic) potential at core
  the test charge radii are     0.5770  0.4325  0.5902
  (the norm of the test charge is              1.0000)
       1 -88.0359       2 -86.9930       3 -87.4717       4 -48.9991       5 -46.7460
       6 -46.0621       7 -46.7796       8-105.6924       9-103.3765



 E-fermi :  -5.7329     XC(G=0):  -0.1715     alpha+bet : -0.0573

 Fermi energy:        -5.7328600524

 k-point     1 :       0.0000    0.0000    0.0000
  band No.  band energies     occupation 
      1     -25.4602      2.00000
      2     -21.7494      2.00000
      3     -18.4994      2.00000
      4     -15.3679      2.00000
      5     -14.6817      2.00000
      6     -13.9828      2.00000
      7     -10.9258      2.00000
      8     -10.8434      2.00000
      9     -10.6874      2.00000
     10     -10.0450      2.00000
     11      -7.0683      2.00000
     12      -6.3865      2.00000
     13      -5.8081      2.00000
     14      -1.1912      0.00000
     15      -0.6906      0.00000
     16      -0.1735      0.00000
     17      -0.1128      0.00000
     18      -0.0207      0.00000
     19       0.2415      0.00000
     20       0.5250      0.00000


--------------------------------------------------------------------------------------------------------


 soft charge-density along one line, spin component           1
         0         1         2         3         4         5         6         7         8         9
 total charge-density along one line

 pseudopotential strength for first ion, spin component:           1
 12.771  21.494   0.011   0.000  -0.003   0.020   0.000  -0.005
 21.494  36.173   0.018   0.000  -0.005   0.033   0.000  -0.008
  0.011   0.018  -3.222  -0.000   0.003  -5.778  -0.000   0.005
  0.000   0.000  -0.000  -3.222   0.000  -0.000  -5.777   0.000
 -0.003  -0.005   0.003   0.000  -3.219   0.005   0.000  -5.772
  0.020   0.033  -5.778  -0.000   0.005 -10.337  -0.000   0.009
  0.000   0.000  -0.000  -5.777   0.000  -0.000 -10.335   0.000
 -0.005  -0.008   0.005   0.000  -5.772   0.009   0.000 -10.327
 total augmentation occupancy for first ion, spin component:           1
  7.636  -2.707   1.160  -0.000   1.012  -0.559   0.000  -0.477
 -2.707   1.029  -0.641  -0.000  -0.485   0.286   0.000   0.232
  1.160  -0.641   6.836   0.002  -0.163  -2.354  -0.001   0.132
 -0.000  -0.000   0.002   2.876  -0.001  -0.001  -0.679   0.000
  1.012  -0.485  -0.163  -0.001   7.601   0.132   0.000  -2.644
 -0.559   0.286  -2.354  -0.001   0.132   0.827   0.000  -0.070
  0.000   0.000  -0.001  -0.679   0.000   0.000   0.174  -0.000
 -0.477   0.232   0.132   0.000  -2.644  -0.070  -0.000   0.945


------------------------ aborting loop because EDIFF is reached ----------------------------------------


    FORLOC:  cpu time      0.0231: real time      0.0231
    FORNL :  cpu time      0.0142: real time      0.0149
    FORCOR:  cpu time     10.5871: real time     10.5901
    OFIELD:  cpu time      0.0042: real time      0.0044

 VOLUME and BASIS-vectors are now :
 -----------------------------------------------------------------------------
  energy-cutoff  :     1000.00
  volume of cell :    10648.00
      direct lattice vectors                 reciprocal lattice vectors
    22.000000000  0.000000000  0.000000000     0.045454545  0.000000000  0.000000000
     0.000000000 22.000000000  0.000000000     0.000000000  0.045454545  0.000000000
     0.000000000  0.000000000 22.000000000     0.000000000  0.000000000  0.045454545

  length of vectors
    22.000000000 22.000000000 22.000000000     0.045454545  0.045454545  0.045454545


 FORCES acting on ions:
    Electron-Ion                     Ewald-Force                    Non-Local-Force
 -----------------------------------------------------------------------------------------------
   0.134E+03 0.188E+03 -.346E-01   -.132E+03 -.194E+03 0.249E-01   -.224E+01 0.638E+01 0.113E-01
   -.207E+03 -.797E+02 0.108E+00   0.208E+03 0.833E+02 -.116E+00   -.866E+00 -.368E+01 0.894E-02
   -.160E+02 -.223E+03 0.234E-01   0.250E+02 0.226E+03 -.335E-01   -.931E+01 -.310E+01 0.106E-01
   0.957E+02 -.279E+02 0.975E-01   -.103E+03 0.300E+02 -.107E+00   0.732E+01 -.211E+01 0.108E-01
   0.480E+02 0.678E+02 0.300E-01   -.516E+02 -.727E+02 -.316E-01   0.357E+01 0.495E+01 0.320E-02
   -.778E+02 -.226E+02 0.245E-01   0.837E+02 0.242E+02 -.263E-01   -.585E+01 -.153E+01 0.150E-02
   0.378E+01 -.810E+02 0.460E-01   -.428E+01 0.871E+02 -.490E-01   0.493E+00 -.603E+01 0.430E-02
   0.237E+03 -.758E+02 -.329E+00   -.237E+03 0.751E+02 0.382E+00   -.330E+00 0.799E+00 -.585E-01
   -.187E+03 0.230E+03 0.326E-01   0.211E+03 -.259E+03 -.435E-01   -.237E+02 0.294E+02 0.951E-02
 -----------------------------------------------------------------------------------------------
   0.309E+02 -.251E+02 -.163E-02   -.284E-13 0.000E+00 0.416E-16   -.309E+02 0.251E+02 0.166E-02


 POSITION                                       TOTAL-FORCE (eV/Angst)
 -----------------------------------------------------------------------------------
     10.34888      9.82965     11.00015        -0.080552     -0.074607      0.001261
     12.05692     11.13123     10.99944         0.106435      0.027353      0.001294
     10.96063     11.95891     10.99986        -0.012527      0.127169      0.000208
      8.89782     11.39232     10.99941        -0.036994      0.014288      0.001256
      9.69611      8.96604     10.99965        -0.032386     -0.039444      0.001554
     13.10218     11.41135     10.99915         0.050052      0.013224     -0.000327
     10.85327     13.03396     10.99915        -0.009543      0.050430      0.001299
      9.87033     11.11221     11.00085        -0.115358      0.030770     -0.005007
     11.66706      9.80855     10.99976         0.130873     -0.149182     -0.001538
 -----------------------------------------------------------------------------------
    total drift:                                0.000387      0.000181      0.000029


--------------------------------------------------------------------------------------------------------



  FREE ENERGIE OF THE ION-ELECTRON SYSTEM (eV)
  ---------------------------------------------------
  free  energy   TOTEN  =       -50.20851378 eV

  energy  without entropy=      -50.20851378  energy(sigma->0) =      -50.20851378



--------------------------------------------------------------------------------------------------------


    POTLOK:  cpu time     10.7825: real time     10.7854


--------------------------------------------------------------------------------------------------------


 stress matrix after NEB project (eV)
      0.00000      0.00000      0.00000
      0.00000      0.00000      0.00000
      0.00000      0.00000      0.00000
  FORCES: max atom, RMS     0.198458    0.107303
  FORCE total and by dimension    0.321910    0.149182
  Stress total and by dimension    0.000000    0.000000
     LOOP+:  cpu time    426.3204: real time    426.6774
    4ORBIT:  cpu time      0.0000: real time      0.0000

 total amount of memory used by VASP MPI-rank0    61522. kBytes
=======================================================================

   base      :      30000. kBytes
   nonl-proj :       1002. kBytes
   fftplans  :      10395. kBytes
   grid      :      19407. kBytes
   one-center:          1. kBytes
   wavefun   :        717. kBytes

  
  
 General timing and accounting informations for this job:
 ========================================================
  
                  Total CPU time used (sec):      477.918
                            User time (sec):      472.864
                          System time (sec):        5.054
                         Elapsed time (sec):      498.197
  
                   Maximum memory used (kb):      455996.
                   Average memory used (kb):          N/A
  
                          Minor page faults:       174975
                          Major page faults:          290
                 Voluntary context switches:        11136
