 vasp.6.4.1 05Apr23 (build Jun  6 2023 14:46:38) gamma-only                      
 executed on        HPECrayEX_GCC date 2024.08.21  20:28:22
 running  512 mpi-ranks, with    1 threads/rank, on    4 nodes
 distrk:  each k-point on  256 cores,    2 groups
 distr:  one band on NCORE=  32 cores,    8 groups


--------------------------------------------------------------------------------------------------------


 INCAR:
   ALGO = Conjugate
   KPAR = 2
   NCORE = 32
   ISMEAR = 0
   SIGMA = 0.01
   PREC = Accurate
   EDIFF = 1E-7
   ENCUT = 1000
   ISIF = 0
   GGA = BO
   PARAM1 = 0.1833333333
   PARAM2 = 0.2200000000
   LUSE_VDW = .TRUE.
   AGGAC = 0.0000
   LASPH = .TRUE.
   SYMPREC = 1E-7
   LWAVE = .FALSE.
   LCHARG = .FALSE.

 POTCAR:    PAW_PBE C_h 06Feb2004                 
 POTCAR:    PAW_PBE H_h 06Feb2004                 
 POTCAR:    PAW_PBE N_h 06Feb2004                 
 -----------------------------------------------------------------------------
|                                                                             |
|               ----> ADVICE to this user running VASP <----                  |
|                                                                             |
|     You have switched on vdW-DFT.                                           |
|     This routine was written and supplied by Jiri Klimes. We recommend      |
|     that you carefully read and cite the following publications:            |
|       J. Klimes, D.R. Bowler, A. Michelides                                 |
|          J. Phys.: Cond Matt. 22 022201 (2010)                              |
|       J. Klimes, D.R. Bowler, A. Michelides                                 |
|          Phys. Rev. B. 83, 195131 (2011)                                    |
|     and references therein.                                                 |
|                                                                             |
 -----------------------------------------------------------------------------

 POTCAR:    PAW_PBE C_h 06Feb2004                 
   VRHFIN =C: s2p2                                                                                  
   LEXCH  = PE                                                                                      
   EATOM  =   147.1560 eV,   10.8157 Ry                                                             
                                                                                                    
   TITEL  = PAW_PBE C_h 06Feb2004                                                                   
   LULTRA =        F    use ultrasoft PP ?                                                          
   IUNSCR =        1    unscreen: 0-lin 1-nonlin 2-no                                               
   RPACOR =    0.800    partial core radius                                                         
   POMASS =   12.011; ZVAL   =    4.000    mass and valenz                                          
   RCORE  =    1.100    outmost cutoff radius                                                       
   RWIGS  =    1.630; RWIGS  =    0.863    wigner-seitz radius (au A)                               
   ENMAX  =  700.000; ENMIN  =  500.000 eV                                                          
   ICORE  =        2    local potential                                                             
   LCOR   =        T    correct aug charges                                                         
   LPAW   =        T    paw PP                                                                      
   EAUG   =  946.768                                                                                
   DEXC   =    0.000                                                                                
   RMAX   =    1.128    core radius for proj-oper                                                   
   RAUG   =    1.300    factor for augmentation sphere                                              
   RDEP   =    1.162    radius for radial grids                                                     
   RDEPT  =    1.088    core radius for aug-charge                                                  
                                                                                                    
   Atomic configuration                                                                             
    4 entries                                                                                       
     n  l   j            E        occ.                                                              
     1  0  0.50      -273.3789   2.0000                                                             
     2  0  0.50       -13.7508   2.0000                                                             
     2  1  0.50        -5.2854   2.0000                                                             
     3  2  1.50        -5.4423   0.0000                                                             
   Description                                                                                      
     l       E           TYP  RCUT    TYP  RCUT                                                     
     0    -13.7508458     23  1.100                                                                 
     0     -8.2022199     23  1.100                                                                 
     1     -5.2854383     23  1.100                                                                 
     1      1.1560700     23  1.100                                                                 
     2     -5.4423304      7  1.100                                                                 
  local pseudopotential read in
  partial core-charges read in
  partial kinetic energy density read in
  atomic valenz-charges read in
  non local Contribution for L=           0  read in
    real space projection operators read in
  non local Contribution for L=           0  read in
    real space projection operators read in
  non local Contribution for L=           1  read in
    real space projection operators read in
  non local Contribution for L=           1  read in
    real space projection operators read in
    PAW grid and wavefunctions read in

   number of l-projection  operators is LMAX  =           4
   number of lm-projection operators is LMMAX =           8

 POTCAR:    PAW_PBE H_h 06Feb2004                 
   VRHFIN =H: ultrasoft test                                                                        
   LEXCH  = PE                                                                                      
   EATOM  =    12.4884 eV,    0.9179 Ry                                                             
                                                                                                    
   TITEL  = PAW_PBE H_h 06Feb2004                                                                   
   LULTRA =        F    use ultrasoft PP ?                                                          
   IUNSCR =        0    unscreen: 0-lin 1-nonlin 2-no                                               
   RPACOR =    0.000    partial core radius                                                         
   POMASS =    1.000; ZVAL   =    1.000    mass and valenz                                          
   RCORE  =    0.800    outmost cutoff radius                                                       
   RWIGS  =    0.700; RWIGS  =    0.370    wigner-seitz radius (au A)                               
   ENMAX  =  700.000; ENMIN  =  350.000 eV                                                          
   RCLOC  =    0.701    cutoff for local pot                                                        
   LCOR   =        T    correct aug charges                                                         
   LPAW   =        T    paw PP                                                                      
   EAUG   = 1000.000                                                                                
   RMAX   =    0.819    core radius for proj-oper                                                   
   RAUG   =    1.000    factor for augmentation sphere                                              
   RDEP   =    0.817    radius for radial grids                                                     
   RDEPT  =    0.817    core radius for aug-charge                                                  
                                                                                                    
   Atomic configuration                                                                             
    2 entries                                                                                       
     n  l   j            E        occ.                                                              
     1  0  0.50        -6.4927   1.0000                                                             
     2  1  0.50        -3.4015   0.0000                                                             
   Description                                                                                      
     l       E           TYP  RCUT    TYP  RCUT                                                     
     0     -6.4927493     23  0.800                                                                 
     0      6.8029130     23  0.800                                                                 
     1     -6.8029130     23  0.800                                                                 
  local pseudopotential read in
  atomic valenz-charges read in
  non local Contribution for L=           0  read in
    real space projection operators read in
  non local Contribution for L=           0  read in
    real space projection operators read in
  non local Contribution for L=           1  read in
    real space projection operators read in
    PAW grid and wavefunctions read in

   number of l-projection  operators is LMAX  =           3
   number of lm-projection operators is LMMAX =           5

 POTCAR:    PAW_PBE N_h 06Feb2004                 
   VRHFIN =N: s2p3                                                                                  
   LEXCH  = PE                                                                                      
   EATOM  =   264.5486 eV,   19.4438 Ry                                                             
                                                                                                    
   TITEL  = PAW_PBE N_h 06Feb2004                                                                   
   LULTRA =        F    use ultrasoft PP ?                                                          
   IUNSCR =        1    unscreen: 0-lin 1-nonlin 2-no                                               
   RPACOR =    0.800    partial core radius                                                         
   POMASS =   14.001; ZVAL   =    5.000    mass and valenz                                          
   RCORE  =    1.100    outmost cutoff radius                                                       
   RWIGS  =    1.480; RWIGS  =    0.783    wigner-seitz radius (au A)                               
   ENMAX  =  700.000; ENMIN  =  500.000 eV                                                          
   ICORE  =        2    local potential                                                             
   LCOR   =        T    correct aug charges                                                         
   LPAW   =        T    paw PP                                                                      
   EAUG   =  904.640                                                                                
   DEXC   =    0.000                                                                                
   RMAX   =    1.127    core radius for proj-oper                                                   
   RAUG   =    1.300    factor for augmentation sphere                                              
   RDEP   =    1.115    radius for radial grids                                                     
   RDEPT  =    1.106    core radius for aug-charge                                                  
                                                                                                    
   Atomic configuration                                                                             
    4 entries                                                                                       
     n  l   j            E        occ.                                                              
     1  0  0.50      -384.7179   2.0000                                                             
     2  0  0.50       -18.5828   2.0000                                                             
     2  1  0.50        -7.0898   3.0000                                                             
     3  2  1.50        -6.8029   0.0000                                                             
   Description                                                                                      
     l       E           TYP  RCUT    TYP  RCUT                                                     
     0    -18.5828117     23  1.100                                                                 
     0    -15.0750597     23  1.100                                                                 
     1     -7.0897851     23  1.100                                                                 
     1     -1.9663412     23  1.100                                                                 
     2     -6.8029130      7  1.100                                                                 
  local pseudopotential read in
  partial core-charges read in
  partial kinetic energy density read in
  kinetic energy density of atom read in
  atomic valenz-charges read in
  non local Contribution for L=           0  read in
    real space projection operators read in
  non local Contribution for L=           0  read in
    real space projection operators read in
  non local Contribution for L=           1  read in
    real space projection operators read in
  non local Contribution for L=           1  read in
    real space projection operators read in
    PAW grid and wavefunctions read in

   number of l-projection  operators is LMAX  =           4
   number of lm-projection operators is LMMAX =           8

 -----------------------------------------------------------------------------
|                                                                             |
|               ----> ADVICE to this user running VASP <----                  |
|                                                                             |
|     You enforced a specific xc type in the INCAR file but a different       |
|     type was found in the POTCAR file.                                      |
|     I HOPE YOU KNOW WHAT YOU ARE DOING!                                     |
|                                                                             |
 -----------------------------------------------------------------------------

  PAW_PBE C_h 06Feb2004                 :
 energy of atom  1       EATOM= -147.1560
 kinetic energy error for atom=    0.0031 (will be added to EATOM!!)
  PAW_PBE H_h 06Feb2004                 :
 energy of atom  2       EATOM=  -12.4884
 kinetic energy error for atom=    0.0006 (will be added to EATOM!!)
  PAW_PBE N_h 06Feb2004                 :
 energy of atom  3       EATOM= -264.5486
 kinetic energy error for atom=    0.0081 (will be added to EATOM!!)


 POSCAR:  C  H  N
  positions in cartesian coordinates
  No initial velocities read in
 exchange correlation table for  LEXCH =       42
   RHO(1)=    0.500       N(1)  =     2000
   RHO(2)=  100.500       N(2)  =     4000

 VTST: version 4.1, (05/19/21)

 CHAIN: initializing optimizer
 
 OPT: Using VASP Dynamics algorithm
 CHAIN: Read ICHAIN            0

 POSCAR:  C  H  N
  positions in cartesian coordinates
  No initial velocities read in



--------------------------------------------------------------------------------------------------------


 ion  position               nearest neighbor table
   1  0.470  0.447  0.500-   5 1.08   9 1.32   8 1.37
   2  0.548  0.506  0.500-   6 1.08   3 1.37   9 1.38
   3  0.498  0.544  0.500-   7 1.08   2 1.37   8 1.38
   4  0.404  0.518  0.500-   8 1.01
   5  0.441  0.408  0.500-   1 1.08
   6  0.596  0.519  0.500-   2 1.08
   7  0.493  0.592  0.500-   3 1.08
   8  0.449  0.505  0.500-   4 1.01   1 1.37   3 1.38
   9  0.530  0.446  0.500-   1 1.32   2 1.38

  LATTYP: Found a simple cubic cell.
 ALAT       =    22.0000000000
  
  Lattice vectors:
  
 A1 = (  22.0000000000,   0.0000000000,   0.0000000000)
 A2 = (   0.0000000000,  22.0000000000,   0.0000000000)
 A3 = (   0.0000000000,   0.0000000000,  22.0000000000)


Analysis of symmetry for initial positions (statically):
=====================================================================
 Subroutine PRICEL returns:
 Original cell was already a primitive cell.
 

 Routine SETGRP: Setting up the symmetry group for a 
 simple cubic supercell.


 Subroutine GETGRP returns: Found  1 space group operations
 (whereof  1 operations were pure point group operations)
 out of a pool of 48 trial point group operations.


The static configuration has the point symmetry C_1 .


Analysis of symmetry for dynamics (positions and initial velocities):
=====================================================================
 Subroutine PRICEL returns:
 Original cell was already a primitive cell.
 

 Routine SETGRP: Setting up the symmetry group for a 
 simple cubic supercell.


 Subroutine GETGRP returns: Found  1 space group operations
 (whereof  1 operations were pure point group operations)
 out of a pool of 48 trial point group operations.


The dynamic configuration has the point symmetry C_1 .


 Subroutine INISYM returns: Found  1 space group operations
 (whereof  1 operations are pure point group operations),
 and found     1 'primitive' translations


----------------------------------------------------------------------------------------

                                     Primitive cell                                     

  volume of cell :   10648.0000

  direct lattice vectors                    reciprocal lattice vectors
    22.000000000  0.000000000  0.000000000     0.045454545  0.000000000  0.000000000
     0.000000000 22.000000000  0.000000000     0.000000000  0.045454545  0.000000000
     0.000000000  0.000000000 22.000000000     0.000000000  0.000000000  0.045454545

  length of vectors
    22.000000000 22.000000000 22.000000000     0.045454545  0.045454545  0.045454545

  position of ions in fractional coordinates (direct lattice)
     0.470403864  0.446802045  0.500007045
     0.548042045  0.505964773  0.499974318
     0.498210682  0.543586591  0.499993864
     0.404446591  0.517832955  0.499973409
     0.440732045  0.407547500  0.499984318
     0.595553409  0.518697955  0.499961591
     0.493330682  0.592452500  0.499961591
     0.448651136  0.505100227  0.500038409
     0.530320682  0.445842955  0.499989318

  ion indices of the primitive-cell ions
   primitive index   ion index
                 1           1
                 2           2
                 3           3
                 4           4
                 5           5
                 6           6
                 7           7
                 8           8
                 9           9

----------------------------------------------------------------------------------------



 KPOINTS: auto                                    

Automatic generation of k-mesh.
 Grid dimensions read from file:
 generate k-points for:    1    1    1

 Generating k-lattice:

  Cartesian coordinates                     Fractional coordinates (reciprocal lattice)
     0.045454545  0.000000000  0.000000000     1.000000000  0.000000000  0.000000000
     0.000000000  0.045454545  0.000000000     0.000000000  1.000000000  0.000000000
     0.000000000  0.000000000  0.045454545     0.000000000  0.000000000  1.000000000

  Length of vectors
     0.045454545  0.045454545  0.045454545

  Shift w.r.t. Gamma in fractional coordinates (k-lattice)
     0.000000000  0.000000000  0.000000000

 
 Subroutine IBZKPT returns following result:
 ===========================================
 
 Found      1 irreducible k-points:
 
 Following reciprocal coordinates:
            Coordinates               Weight
  0.000000  0.000000  0.000000      1.000000
 
 Following cartesian coordinates:
            Coordinates               Weight
  0.000000  0.000000  0.000000      1.000000
 


--------------------------------------------------------------------------------------------------------




 Dimension of arrays:
   k-points           NKPTS =      1   k-points in BZ     NKDIM =      1   number of bands    NBANDS=     24
   number of dos      NEDOS =    301   number of ions     NIONS =      9
   non local maximal  LDIM  =      4   non local SUM 2l+1 LMDIM =      8
   total plane-waves  NPLWV = ******
   max r-space proj   IRMAX =      1   max aug-charges    IRDMAX=   9419
   dimension x,y,z NGX =   240 NGY =  240 NGZ =  240
   dimension x,y,z NGXF=   480 NGYF=  480 NGZF=  480
   support grid    NGXF=   480 NGYF=  480 NGZF=  480
   ions per type =               3   4   2
   NGX,Y,Z   is equivalent  to a cutoff of  18.14, 18.14, 18.14 a.u.
   NGXF,Y,Z  is equivalent  to a cutoff of  36.27, 36.27, 36.27 a.u.

 SYSTEM =  unknown system                          
 POSCAR =   C  H  N                                

 Startparameter for this run:
   NWRITE =      2    write-flag & timer
   PREC   = accura    normal or accurate (medium, high low for compatibility)
   ISTART =      0    job   : 0-new  1-cont  2-samecut
   ICHARG =      2    charge: 1-file 2-atom 10-const
   ISPIN  =      1    spin polarized calculation?
   LNONCOLLINEAR =      F non collinear calculations
   LSORBIT =      F    spin-orbit coupling
   INIWAV =      1    electr: 0-lowe 1-rand  2-diag
   LASPH  =      T    aspherical Exc in radial PAW
 Electronic Relaxation 1
   ENCUT  = 1000.0 eV  73.50 Ry    8.57 a.u.  56.73 56.73 56.73*2*pi/ulx,y,z
   ENINI  = 1000.0     initial cutoff
   ENAUG  = 1000.0 eV  augmentation charge cutoff
   NELM   =     60;   NELMIN=  2; NELMDL= -5     # of ELM steps 
   EDIFF  = 0.1E-06   stopping-criterion for ELM
   LREAL  =      F    real-space projection
   NLSPLINE    = F    spline interpolate recip. space projectors
   LCOMPAT=      F    compatible to vasp.4.4
   GGA_COMPAT  = T    GGA compatible to vasp.4.4-vasp.4.6
   LMAXPAW     = -100 max onsite density
   LMAXMIX     =    2 max onsite mixed and CHGCAR
   VOSKOWN=      0    Vosko Wilk Nusair interpolation
   ROPT   =    0.00000   0.00000   0.00000
 Ionic relaxation
   EDIFFG = 0.1E-05   stopping-criterion for IOM
   NSW    =      0    number of steps for IOM
   NBLOCK =      1;   KBLOCK =      1    inner block; outer block 
   IBRION =     -1    ionic relax: 0-MD 1-quasi-New 2-CG
   NFREE  =      0    steps in history (QN), initial steepest desc. (CG)
   ISIF   =      0    stress and relaxation
   IWAVPR =     10    prediction:  0-non 1-charg 2-wave 3-comb
   ISYM   =      2    0-nonsym 1-usesym 2-fastsym
   LCORR  =      T    Harris-Foulkes like correction to forces

   POTIM  = 0.5000    time-step for ionic-motion
   TEIN   =    0.0    initial temperature
   TEBEG  =    0.0;   TEEND  =   0.0 temperature during run
   SMASS  =  -3.00    Nose mass-parameter (am)
   estimated Nose-frequenzy (Omega)   =  0.10E-29 period in steps = 0.13E+47 mass=  -0.111E-25a.u.
   SCALEE = 1.0000    scale energy and forces
   NPACO  =    256;   APACO  = 10.0  distance and # of slots for P.C.
   PSTRESS=    0.0 pullay stress

  Mass of Ions in am
   POMASS =  12.01  1.00 14.00
  Ionic Valenz
   ZVAL   =   4.00  1.00  5.00
  Atomic Wigner-Seitz radii
   RWIGS  =  -1.00 -1.00 -1.00
  virtual crystal weights 
   VCA    =   1.00  1.00  1.00
   NELECT =      26.0000    total number of electrons
   NUPDOWN=      -1.0000    fix difference up-down

 DOS related values:
   EMIN   =  10.00;   EMAX   =-10.00  energy-range for DOS
   EFERMI =   0.00;   METHOD = LEGACY      
   ISMEAR =     0;   SIGMA  =   0.01  broadening in eV -4-tet -1-fermi 0-gaus

 Electronic relaxation 2 (details)
   IALGO  =     58    algorithm
   LDIAG  =      T    sub-space diagonalisation (order eigenvalues)
   LSUBROT=      F    optimize rotation matrix (better conditioning)
   TURBO    =      0    0=normal 1=particle mesh
   IRESTART =      0    0=no restart 2=restart with 2 vectors
   NREBOOT  =      0    no. of reboots
   NMIN     =      0    reboot dimension
   EREF     =   0.00    reference energy to select bands
   IMIX   =      4    mixing-type and parameters
     AMIX     =   0.40;   BMIX     =  1.00
     AMIX_MAG =   1.60;   BMIX_MAG =  1.00
     AMIN     =   0.10
     WC   =   100.;   INIMIX=   1;  MIXPRE=   1;  MAXMIX= -45

 Intra band minimization:
   WEIMIN = 0.0000     energy-eigenvalue tresh-hold
   EBREAK =  0.10E-08  absolut break condition
   DEPER  =   0.30     relativ break condition  

   TIME   =   0.40     timestep for ELM

  volume/ion in A,a.u.               =    1183.11      7984.03
  Fermi-wavevector in a.u.,A,eV,Ry     =   0.220450  0.416590  0.661218  0.048598
  Thomas-Fermi vector in A             =   1.001172

 Write flags
   LWAVE        =      F    write WAVECAR
   LDOWNSAMPLE  =      F    k-point downsampling of WAVECAR
   LCHARG       =      F    write CHGCAR
   LVTOT        =      F    write LOCPOT, total local potential
   LVHAR        =      F    write LOCPOT, Hartree potential only
   LELF         =      F    write electronic localiz. function (ELF)
   LORBIT       =      0    0 simple, 1 ext, 2 COOP (PROOUT), +10 PAW based schemes


 Dipole corrections
   LMONO  =      F    monopole corrections only (constant potential shift)
   LDIPOL =      F    correct potential (dipole corrections)
   IDIPOL =      0    1-x, 2-y, 3-z, 4-all directions 
   EPSILON=  1.0000000 bulk dielectric constant

 Exchange correlation treatment:
   GGA     =    BO    GGA type
   LEXCH   =    42    internal setting for exchange type
   LIBXC   =     F    Libxc                    
   VOSKOWN =     0    Vosko Wilk Nusair interpolation
   LHFCALC =     F    Hartree Fock is set to
   LHFONE  =     F    Hartree Fock one center treatment
   AEXX    =    0.0000 exact exchange contribution

 vdW DFT:
   LUSE_VDW   =     T    switch on vdW DFT
   IVDW_NL    =     1    kernel type
   LSPIN_VDW  =     F    use spin-polarized vdW DFT
   Zab_VDW    =-.8491    correlation parameter
   PARAM1     =0.1833
   PARAM2     =0.2200
   PARAM3     =0.0000
   -- rVV10 --
   BPARAM     = 6.3000
   CPARAM     = 0.0093

 Linear response parameters
   LEPSILON=     F    determine dielectric tensor
   LRPA    =     F    only Hartree local field effects (RPA)
   LNABLA  =     F    use nabla operator in PAW spheres
   LVEL    =     F    velocity operator in full k-point grid
   CSHIFT  =0.1000    complex shift for real part using Kramers Kronig
   OMEGAMAX=  -1.0    maximum frequency
   DEG_THRESHOLD= 0.2000000E-02 threshold for treating states as degnerate
   RTIME   =   -0.100 relaxation time in fs
  (WPLASMAI=    0.000 imaginary part of plasma frequency in eV, 0.658/RTIME)
   DFIELD  = 0.0000000 0.0000000 0.0000000 field for delta impulse in time

  Optional k-point grid parameters
   LKPOINTS_OPT  =     F    use optional k-point grid
   KPOINTS_OPT_MODE=     1    mode for optional k-point grid

 Orbital magnetization related:
   ORBITALMAG=     F  switch on orbital magnetization
   LCHIMAG   =     F  perturbation theory with respect to B field
   DQ        =  0.001000  dq finite difference perturbation B field
   LLRAUG    =     F  two centre corrections for induced B field
   LBONE     =     F  B-component reconstruction in AE one-centre
   LVGVCALC  =     T  calculate vGv susceptibility
   LVGVAPPL  =     F  apply vGv susceptibility instead of pGv for G=0

 Random number generation:
   RANDOM_GENERATOR = DEFAULT
   PCG_SEED         = not used


--------------------------------------------------------------------------------------------------------


 Static calculation
 charge density and potential will be updated during run
 non-spin polarized calculation
 Conjugate gradient for all bands (Freysoldt, et al. PRB 79, 241103 (2009))
 preconditioned conjugated gradient                                        
 perform sub-space diagonalisation
    before iterative eigenvector-optimisation
 modified Broyden-mixing scheme, WC =      100.0
 initial mixing is a Kerker type mixing with AMIX =  0.4000 and BMIX =      1.0000
 Hartree-type preconditioning will be used
 using additional bands           11
 reciprocal scheme for non local part
 use partial core corrections
 no Harris-corrections to forces 
 use gradient corrections 
 use of overlap-Matrix (Vanderbilt PP)
 Gauss-broadening in eV      SIGMA  =   0.01


--------------------------------------------------------------------------------------------------------


  energy-cutoff  :     1000.00
  volume of cell :    10648.00
      direct lattice vectors                 reciprocal lattice vectors
    22.000000000  0.000000000  0.000000000     0.045454545  0.000000000  0.000000000
     0.000000000 22.000000000  0.000000000     0.000000000  0.045454545  0.000000000
     0.000000000  0.000000000 22.000000000     0.000000000  0.000000000  0.045454545

  length of vectors
    22.000000000 22.000000000 22.000000000     0.045454545  0.045454545  0.045454545



 k-points in units of 2pi/SCALE and weight: auto                                    
   0.00000000  0.00000000  0.00000000       1.000

 k-points in reciprocal lattice and weights: auto                                    
   0.00000000  0.00000000  0.00000000       1.000

 position of ions in fractional coordinates (direct lattice) 
   0.47040386  0.44680205  0.50000705
   0.54804205  0.50596477  0.49997432
   0.49821068  0.54358659  0.49999386
   0.40444659  0.51783295  0.49997341
   0.44073205  0.40754750  0.49998432
   0.59555341  0.51869795  0.49996159
   0.49333068  0.59245250  0.49996159
   0.44865114  0.50510023  0.50003841
   0.53032068  0.44584295  0.49998932

 position of ions in cartesian coordinates  (Angst):
  10.34888500  9.82964500 11.00015500
  12.05692500 11.13122500 10.99943500
  10.96063500 11.95890500 10.99986500
   8.89782500 11.39232500 10.99941500
   9.69610500  8.96604500 10.99965500
  13.10217500 11.41135500 10.99915500
  10.85327500 13.03395500 10.99915500
   9.87032500 11.11220500 11.00084500
  11.66705500  9.80854500 10.99976500



--------------------------------------------------------------------------------------------------------


 use parallel FFT for orbitals z direction half grid
 k-point   1 :   0.0000 0.0000 0.0000  plane waves:  381993

 maximum and minimum number of plane-waves per node :     11948    11928

 maximum number of plane-waves:    381993
 maximum index in each direction: 
   IXMAX=   56   IYMAX=   56   IZMAX=   56
   IXMIN=  -56   IYMIN=  -56   IZMIN=    0


 parallel 3D FFT for wavefunctions:
    minimum data exchange during FFTs selected (reduces bandwidth)
 parallel 3D FFT for charge:
    minimum data exchange during FFTs selected (reduces bandwidth)


 total amount of memory used by VASP MPI-rank0   108656. kBytes
=======================================================================

   base      :      30000. kBytes
   nonl-proj :       4010. kBytes
   fftplans  :      24880. kBytes
   grid      :      48046. kBytes
   one-center:          1. kBytes
   wavefun   :       1719. kBytes

     INWAV:  cpu time      0.0001: real time      0.0003
 Broyden mixing: mesh for mixing (old mesh)
   NGX =113   NGY =113   NGZ =113
  (NGX  =480   NGY  =480   NGZ  =480)
  gives a total of ****** points

 initial charge density was supplied:
 charge density of overlapping atoms calculated
 number of electron      26.0000000 magnetization 
 keeping initial charge density in first step


--------------------------------------------------------------------------------------------------------


 Maximum index for augmentation-charges          509 (set IRDMAX)


--------------------------------------------------------------------------------------------------------


 First call to EWALD:  gamma=   0.081
 Maximum number of real-space cells 3x 3x 3
 Maximum number of reciprocal cells 3x 3x 3

    FEWALD:  cpu time      0.0056: real time      0.0056


--------------------------------------- Ionic step        1  -------------------------------------------




--------------------------------------- Iteration      1(   1)  ---------------------------------------


vdW kernel read from vdw_kernel.bindat
  0.0000  0.2424  0.5071  0.7962  1.1119  1.4567  1.8333  2.2446  2.6937  3.1842
  3.7199  4.3049  4.9438  5.6415  6.4036  7.2358  8.1446  9.1372 10.2212 11.4050
 12.6979 14.1099 15.6519 17.3360 19.1751 21.1837 23.3773 25.7729 28.3892 31.2465
 34.3669 37.7748 41.4965 45.5611 50.0000

    POTLOK:  cpu time     22.7054: real time     22.7260
    SETDIJ:  cpu time      0.0091: real time      0.0099
    TRIAL :  cpu time      0.6957: real time      0.6981
    CORREC:  cpu time      0.0024: real time      0.0024
    --------------------------------------------
      LOOP:  cpu time     23.4203: real time     23.4441

 eigenvalue-minimisations  :    64
 total energy-change (2. order) : 0.2383871E+03  (-0.6448480E+03)
 number of electron      26.0000000 magnetization 
 augmentation part       26.0000000 magnetization 

 Free energy of the ion-electron system (eV)
  ---------------------------------------------------
  alpha Z        PSCENC =         0.19661355
  Ewald energy   TEWEN  =      1675.60574849
  -Hartree energ DENC   =     -2382.84811810
  -exchange      EXHF   =         0.00000000
  -V(xc)+E(xc)   XCENC  =        61.98459786
  PAW double counting   =       764.00609091     -742.37204017
  entropy T*S    EENTRO =        -0.00000000
  eigenvalues    EBANDS =      -169.16854561
  atomic energy  EATOM  =      1030.98276914
  ---------------------------------------------------
  free energy    TOTEN  =       238.38711606 eV

  energy without entropy =      238.38711606  energy(sigma->0) =      238.38711606


--------------------------------------------------------------------------------------------------------




--------------------------------------- Iteration      1(   2)  ---------------------------------------


    TRIAL :  cpu time      0.7324: real time      0.7328
    CORREC:  cpu time      0.0006: real time      0.0006
    --------------------------------------------
      LOOP:  cpu time      0.7498: real time      0.7634

 eigenvalue-minimisations  :    72
 total energy-change (2. order) :-0.1178747E+03  (-0.1145858E+03)
 number of electron      26.0000000 magnetization 
 augmentation part       26.0000000 magnetization 

 Free energy of the ion-electron system (eV)
  ---------------------------------------------------
  alpha Z        PSCENC =         0.19661355
  Ewald energy   TEWEN  =      1675.60574849
  -Hartree energ DENC   =     -2382.84811810
  -exchange      EXHF   =         0.00000000
  -V(xc)+E(xc)   XCENC  =        61.98459786
  PAW double counting   =       764.00609091     -742.37204017
  entropy T*S    EENTRO =        -0.00511484
  eigenvalues    EBANDS =      -287.03810207
  atomic energy  EATOM  =      1030.98276914
  ---------------------------------------------------
  free energy    TOTEN  =       120.51244476 eV

  energy without entropy =      120.51755960  energy(sigma->0) =      120.51500218


--------------------------------------------------------------------------------------------------------




--------------------------------------- Iteration      1(   3)  ---------------------------------------


    TRIAL :  cpu time      0.9095: real time      0.9098
    CORREC:  cpu time      0.0001: real time      0.0001
    --------------------------------------------
      LOOP:  cpu time      0.9260: real time      0.9426

 eigenvalue-minimisations  :    96
 total energy-change (2. order) :-0.1349975E+03  (-0.1329284E+03)
 number of electron      26.0000000 magnetization 
 augmentation part       26.0000000 magnetization 

 Free energy of the ion-electron system (eV)
  ---------------------------------------------------
  alpha Z        PSCENC =         0.19661355
  Ewald energy   TEWEN  =      1675.60574849
  -Hartree energ DENC   =     -2382.84811810
  -exchange      EXHF   =         0.00000000
  -V(xc)+E(xc)   XCENC  =        61.98459786
  PAW double counting   =       764.00609091     -742.37204017
  entropy T*S    EENTRO =        -0.00000000
  eigenvalues    EBANDS =      -422.04073902
  atomic energy  EATOM  =      1030.98276914
  ---------------------------------------------------
  free energy    TOTEN  =       -14.48507736 eV

  energy without entropy =      -14.48507736  energy(sigma->0) =      -14.48507736


--------------------------------------------------------------------------------------------------------




--------------------------------------- Iteration      1(   4)  ---------------------------------------


    TRIAL :  cpu time      0.6684: real time      0.6686
    CORREC:  cpu time      0.0001: real time      0.0001
    --------------------------------------------
      LOOP:  cpu time      0.6984: real time      0.6989

 eigenvalue-minimisations  :    64
 total energy-change (2. order) :-0.3943570E+02  (-0.3935016E+02)
 number of electron      26.0000000 magnetization 
 augmentation part       26.0000000 magnetization 

 Free energy of the ion-electron system (eV)
  ---------------------------------------------------
  alpha Z        PSCENC =         0.19661355
  Ewald energy   TEWEN  =      1675.60574849
  -Hartree energ DENC   =     -2382.84811810
  -exchange      EXHF   =         0.00000000
  -V(xc)+E(xc)   XCENC  =        61.98459786
  PAW double counting   =       764.00609091     -742.37204017
  entropy T*S    EENTRO =        -0.00000000
  eigenvalues    EBANDS =      -461.47643439
  atomic energy  EATOM  =      1030.98276914
  ---------------------------------------------------
  free energy    TOTEN  =       -53.92077273 eV

  energy without entropy =      -53.92077273  energy(sigma->0) =      -53.92077273


--------------------------------------------------------------------------------------------------------




--------------------------------------- Iteration      1(   5)  ---------------------------------------


    TRIAL :  cpu time      0.7269: real time      0.7269
    CORREC:  cpu time      0.0001: real time      0.0001
    CHARGE:  cpu time      0.2092: real time      0.2107
    --------------------------------------------
      LOOP:  cpu time      0.9497: real time      0.9680

 eigenvalue-minimisations  :    72
 total energy-change (2. order) :-0.2641843E+01  (-0.2630832E+01)
 number of electron      26.0000000 magnetization 
 augmentation part       -0.0287502 magnetization 

 Free energy of the ion-electron system (eV)
  ---------------------------------------------------
  alpha Z        PSCENC =         0.19661355
  Ewald energy   TEWEN  =      1675.60574849
  -Hartree energ DENC   =     -2382.84811810
  -exchange      EXHF   =         0.00000000
  -V(xc)+E(xc)   XCENC  =        61.98459786
  PAW double counting   =       764.00609091     -742.37204017
  entropy T*S    EENTRO =        -0.00000000
  eigenvalues    EBANDS =      -464.11827733
  atomic energy  EATOM  =      1030.98276914
  ---------------------------------------------------
  free energy    TOTEN  =       -56.56261566 eV

  energy without entropy =      -56.56261566  energy(sigma->0) =      -56.56261566


--------------------------------------------------------------------------------------------------------




--------------------------------------- Iteration      1(   6)  ---------------------------------------


    POTLOK:  cpu time     22.2083: real time     22.2144
    SETDIJ:  cpu time      0.0011: real time      0.0011
    TRIAL :  cpu time      0.3944: real time      0.3952
    CORREC:  cpu time     22.4493: real time     22.4552
    CHARGE:  cpu time      0.1706: real time      0.1707
    --------------------------------------------
      LOOP:  cpu time     45.2376: real time     45.2677

 eigenvalue-minimisations  :     0
 total energy-change (2. order) : 0.1141815E+02  (-0.4792285E+01)
 number of electron      26.0000000 magnetization 
 augmentation part       -0.0403900 magnetization 

 Free energy of the ion-electron system (eV)
  ---------------------------------------------------
  alpha Z        PSCENC =         0.19661355
  Ewald energy   TEWEN  =      1675.60574849
  -Hartree energ DENC   =     -2619.61610088
  -exchange      EXHF   =         0.00000000
  -V(xc)+E(xc)   XCENC  =        71.32385827
  PAW double counting   =      6613.83577412    -6593.47429258
  entropy T*S    EENTRO =        -0.00000000
  eigenvalues    EBANDS =      -223.99883955
  atomic energy  EATOM  =      1030.98276914
  ---------------------------------------------------
  free energy    TOTEN  =       -45.14446945 eV

  energy without entropy =      -45.14446945  energy(sigma->0) =      -45.14446945


--------------------------------------------------------------------------------------------------------




--------------------------------------- Iteration      1(   7)  ---------------------------------------


    POTLOK:  cpu time     22.1774: real time     22.1835
    SETDIJ:  cpu time      0.0020: real time      0.0020
    TRIAL :  cpu time      0.3834: real time      0.3835
    CORREC:  cpu time     22.4573: real time     22.4645
    CHARGE:  cpu time      0.1679: real time      0.1680
    --------------------------------------------
      LOOP:  cpu time     45.2200: real time     45.2337

 eigenvalue-minimisations  :     0
 total energy-change (2. order) :-0.4853150E+01  (-0.4826862E+00)
 number of electron      26.0000000 magnetization 
 augmentation part       -0.0535199 magnetization 

 Free energy of the ion-electron system (eV)
  ---------------------------------------------------
  alpha Z        PSCENC =         0.19661355
  Ewald energy   TEWEN  =      1675.60574849
  -Hartree energ DENC   =     -2510.25568906
  -exchange      EXHF   =         0.00000000
  -V(xc)+E(xc)   XCENC  =        67.39487856
  PAW double counting   =      8599.64708398    -8578.69446693
  entropy T*S    EENTRO =        -0.00000000
  eigenvalues    EBANDS =      -334.87455724
  atomic energy  EATOM  =      1030.98276914
  ---------------------------------------------------
  free energy    TOTEN  =       -49.99761951 eV

  energy without entropy =      -49.99761951  energy(sigma->0) =      -49.99761951


--------------------------------------------------------------------------------------------------------




--------------------------------------- Iteration      1(   8)  ---------------------------------------


    POTLOK:  cpu time     22.2301: real time     22.2365
    SETDIJ:  cpu time      0.0009: real time      0.0009
    TRIAL :  cpu time      0.3801: real time      0.3805
    CORREC:  cpu time     22.4897: real time     22.4966
    CHARGE:  cpu time      0.1683: real time      0.1684
    --------------------------------------------
      LOOP:  cpu time     45.2845: real time     45.3167

 eigenvalue-minimisations  :     0
 total energy-change (2. order) :-0.4844681E+00  (-0.1969363E+00)
 number of electron      26.0000000 magnetization 
 augmentation part       -0.0559738 magnetization 

 Free energy of the ion-electron system (eV)
  ---------------------------------------------------
  alpha Z        PSCENC =         0.19661355
  Ewald energy   TEWEN  =      1675.60574849
  -Hartree energ DENC   =     -2509.27574601
  -exchange      EXHF   =         0.00000000
  -V(xc)+E(xc)   XCENC  =        67.38438642
  PAW double counting   =      9168.28271025    -9147.26453552
  entropy T*S    EENTRO =        -0.00000000
  eigenvalues    EBANDS =      -336.39403393
  atomic energy  EATOM  =      1030.98276914
  ---------------------------------------------------
  free energy    TOTEN  =       -50.48208762 eV

  energy without entropy =      -50.48208762  energy(sigma->0) =      -50.48208762


--------------------------------------------------------------------------------------------------------




--------------------------------------- Iteration      1(   9)  ---------------------------------------


    POTLOK:  cpu time     22.1782: real time     22.1843
    SETDIJ:  cpu time      0.0012: real time      0.0012
    TRIAL :  cpu time      0.3805: real time      0.3806
    CORREC:  cpu time     22.4862: real time     22.4921
    CHARGE:  cpu time      0.1677: real time      0.1682
    --------------------------------------------
      LOOP:  cpu time     45.2299: real time     45.2609

 eigenvalue-minimisations  :     0
 total energy-change (2. order) :-0.1953632E+00  (-0.9161240E-01)
 number of electron      26.0000000 magnetization 
 augmentation part       -0.0563637 magnetization 

 Free energy of the ion-electron system (eV)
  ---------------------------------------------------
  alpha Z        PSCENC =         0.19661355
  Ewald energy   TEWEN  =      1675.60574849
  -Hartree energ DENC   =     -2506.00935572
  -exchange      EXHF   =         0.00000000
  -V(xc)+E(xc)   XCENC  =        67.25952365
  PAW double counting   =      9455.86005615    -9434.79845170
  entropy T*S    EENTRO =        -0.00000000
  eigenvalues    EBANDS =      -339.77435433
  atomic energy  EATOM  =      1030.98276914
  ---------------------------------------------------
  free energy    TOTEN  =       -50.67745077 eV

  energy without entropy =      -50.67745077  energy(sigma->0) =      -50.67745077


--------------------------------------------------------------------------------------------------------




--------------------------------------- Iteration      1(  10)  ---------------------------------------


    POTLOK:  cpu time     22.2063: real time     22.2119
    SETDIJ:  cpu time      0.0009: real time      0.0009
    TRIAL :  cpu time      0.3806: real time      0.3806
    CORREC:  cpu time     22.4932: real time     22.4996
    CHARGE:  cpu time      0.1689: real time      0.1690
    --------------------------------------------
      LOOP:  cpu time     45.2680: real time     45.2948

 eigenvalue-minimisations  :     0
 total energy-change (2. order) :-0.9003145E-01  (-0.2986442E-01)
 number of electron      26.0000000 magnetization 
 augmentation part       -0.0559754 magnetization 

 Free energy of the ion-electron system (eV)
  ---------------------------------------------------
  alpha Z        PSCENC =         0.19661355
  Ewald energy   TEWEN  =      1675.60574849
  -Hartree energ DENC   =     -2502.96113943
  -exchange      EXHF   =         0.00000000
  -V(xc)+E(xc)   XCENC  =        67.16598620
  PAW double counting   =      9373.34178097    -9352.27098709
  entropy T*S    EENTRO =        -0.00000000
  eigenvalues    EBANDS =      -342.82825405
  atomic energy  EATOM  =      1030.98276914
  ---------------------------------------------------
  free energy    TOTEN  =       -50.76748223 eV

  energy without entropy =      -50.76748223  energy(sigma->0) =      -50.76748223


--------------------------------------------------------------------------------------------------------




--------------------------------------- Iteration      1(  11)  ---------------------------------------


    POTLOK:  cpu time     22.2033: real time     22.2088
    SETDIJ:  cpu time      0.0009: real time      0.0009
    TRIAL :  cpu time      0.3797: real time      0.3804
    CORREC:  cpu time     22.4499: real time     22.4554
    CHARGE:  cpu time      0.1682: real time      0.1683
    --------------------------------------------
      LOOP:  cpu time     45.2198: real time     45.2467

 eigenvalue-minimisations  :     0
 total energy-change (2. order) :-0.2971652E-01  (-0.8393322E-02)
 number of electron      26.0000000 magnetization 
 augmentation part       -0.0553101 magnetization 

 Free energy of the ion-electron system (eV)
  ---------------------------------------------------
  alpha Z        PSCENC =         0.19661355
  Ewald energy   TEWEN  =      1675.60574849
  -Hartree energ DENC   =     -2502.66521920
  -exchange      EXHF   =         0.00000000
  -V(xc)+E(xc)   XCENC  =        67.16969817
  PAW double counting   =      9189.46771017    -9168.41024505
  entropy T*S    EENTRO =        -0.00000000
  eigenvalues    EBANDS =      -343.14427401
  atomic energy  EATOM  =      1030.98276914
  ---------------------------------------------------
  free energy    TOTEN  =       -50.79719875 eV

  energy without entropy =      -50.79719875  energy(sigma->0) =      -50.79719875


--------------------------------------------------------------------------------------------------------




--------------------------------------- Iteration      1(  12)  ---------------------------------------


    POTLOK:  cpu time     22.2033: real time     22.2093
    SETDIJ:  cpu time      0.0009: real time      0.0009
    TRIAL :  cpu time      0.3819: real time      0.3823
    CORREC:  cpu time     22.4780: real time     22.4837
    CHARGE:  cpu time      0.1685: real time      0.1686
    --------------------------------------------
      LOOP:  cpu time     45.2652: real time     45.2774

 eigenvalue-minimisations  :     0
 total energy-change (2. order) :-0.8395794E-02  (-0.2442388E-02)
 number of electron      26.0000000 magnetization 
 augmentation part       -0.0549424 magnetization 

 Free energy of the ion-electron system (eV)
  ---------------------------------------------------
  alpha Z        PSCENC =         0.19661355
  Ewald energy   TEWEN  =      1675.60574849
  -Hartree energ DENC   =     -2502.31914577
  -exchange      EXHF   =         0.00000000
  -V(xc)+E(xc)   XCENC  =        67.15665297
  PAW double counting   =      9102.79610179    -9081.74591590
  entropy T*S    EENTRO =        -0.00000000
  eigenvalues    EBANDS =      -343.47841880
  atomic energy  EATOM  =      1030.98276914
  ---------------------------------------------------
  free energy    TOTEN  =       -50.80559454 eV

  energy without entropy =      -50.80559454  energy(sigma->0) =      -50.80559454


--------------------------------------------------------------------------------------------------------




--------------------------------------- Iteration      1(  13)  ---------------------------------------


    POTLOK:  cpu time     22.1922: real time     22.1983
    SETDIJ:  cpu time      0.0009: real time      0.0009
    TRIAL :  cpu time      0.3833: real time      0.3834
    CORREC:  cpu time     22.4223: real time     22.4287
    CHARGE:  cpu time      0.1681: real time      0.1686
    --------------------------------------------
      LOOP:  cpu time     45.1823: real time     45.2129

 eigenvalue-minimisations  :     0
 total energy-change (2. order) :-0.2451802E-02  (-0.7255694E-03)
 number of electron      26.0000000 magnetization 
 augmentation part       -0.0547763 magnetization 

 Free energy of the ion-electron system (eV)
  ---------------------------------------------------
  alpha Z        PSCENC =         0.19661355
  Ewald energy   TEWEN  =      1675.60574849
  -Hartree energ DENC   =     -2502.12545667
  -exchange      EXHF   =         0.00000000
  -V(xc)+E(xc)   XCENC  =        67.14598433
  PAW double counting   =      9083.33768936    -9062.29006210
  entropy T*S    EENTRO =        -0.00000000
  eigenvalues    EBANDS =      -343.66133245
  atomic energy  EATOM  =      1030.98276914
  ---------------------------------------------------
  free energy    TOTEN  =       -50.80804634 eV

  energy without entropy =      -50.80804634  energy(sigma->0) =      -50.80804634


--------------------------------------------------------------------------------------------------------




--------------------------------------- Iteration      1(  14)  ---------------------------------------


    POTLOK:  cpu time     22.2020: real time     22.2076
    SETDIJ:  cpu time      0.0018: real time      0.0018
    TRIAL :  cpu time      0.3822: real time      0.3823
    CORREC:  cpu time     22.4389: real time     22.4454
    CHARGE:  cpu time      0.1680: real time      0.1682
    --------------------------------------------
      LOOP:  cpu time     45.2095: real time     45.2382

 eigenvalue-minimisations  :     0
 total energy-change (2. order) :-0.7354972E-03  (-0.2383220E-03)
 number of electron      26.0000000 magnetization 
 augmentation part       -0.0547267 magnetization 

 Free energy of the ion-electron system (eV)
  ---------------------------------------------------
  alpha Z        PSCENC =         0.19661355
  Ewald energy   TEWEN  =      1675.60574849
  -Hartree energ DENC   =     -2502.30127748
  -exchange      EXHF   =         0.00000000
  -V(xc)+E(xc)   XCENC  =        67.15034085
  PAW double counting   =      9087.12967954    -9066.08345812
  entropy T*S    EENTRO =        -0.00000000
  eigenvalues    EBANDS =      -343.48919781
  atomic energy  EATOM  =      1030.98276914
  ---------------------------------------------------
  free energy    TOTEN  =       -50.80878184 eV

  energy without entropy =      -50.80878184  energy(sigma->0) =      -50.80878184


--------------------------------------------------------------------------------------------------------




--------------------------------------- Iteration      1(  15)  ---------------------------------------


    POTLOK:  cpu time     22.1937: real time     22.1994
    SETDIJ:  cpu time      0.0009: real time      0.0009
    TRIAL :  cpu time      0.3811: real time      0.3811
    CORREC:  cpu time     22.3852: real time     22.3914
    CHARGE:  cpu time      0.1685: real time      0.1687
    --------------------------------------------
      LOOP:  cpu time     45.1660: real time     45.1785

 eigenvalue-minimisations  :     0
 total energy-change (2. order) :-0.2457283E-03  (-0.8701156E-04)
 number of electron      26.0000000 magnetization 
 augmentation part       -0.0547094 magnetization 

 Free energy of the ion-electron system (eV)
  ---------------------------------------------------
  alpha Z        PSCENC =         0.19661355
  Ewald energy   TEWEN  =      1675.60574849
  -Hartree energ DENC   =     -2502.38311561
  -exchange      EXHF   =         0.00000000
  -V(xc)+E(xc)   XCENC  =        67.15236042
  PAW double counting   =      9095.11460158    -9074.06830523
  entropy T*S    EENTRO =        -0.00000000
  eigenvalues    EBANDS =      -343.40969990
  atomic energy  EATOM  =      1030.98276914
  ---------------------------------------------------
  free energy    TOTEN  =       -50.80902757 eV

  energy without entropy =      -50.80902757  energy(sigma->0) =      -50.80902757


--------------------------------------------------------------------------------------------------------




--------------------------------------- Iteration      1(  16)  ---------------------------------------


    POTLOK:  cpu time     22.1902: real time     22.1960
    SETDIJ:  cpu time      0.0009: real time      0.0009
    TRIAL :  cpu time      0.3801: real time      0.3806
    CORREC:  cpu time     22.4074: real time     22.4143
    CHARGE:  cpu time      0.1686: real time      0.1687
    --------------------------------------------
      LOOP:  cpu time     45.1660: real time     45.1920

 eigenvalue-minimisations  :     0
 total energy-change (2. order) :-0.9087557E-04  (-0.3102143E-04)
 number of electron      26.0000000 magnetization 
 augmentation part       -0.0546863 magnetization 

 Free energy of the ion-electron system (eV)
  ---------------------------------------------------
  alpha Z        PSCENC =         0.19661355
  Ewald energy   TEWEN  =      1675.60574849
  -Hartree energ DENC   =     -2502.40783103
  -exchange      EXHF   =         0.00000000
  -V(xc)+E(xc)   XCENC  =        67.15282636
  PAW double counting   =      9098.95871799    -9077.91201294
  entropy T*S    EENTRO =        -0.00000000
  eigenvalues    EBANDS =      -343.38595000
  atomic energy  EATOM  =      1030.98276914
  ---------------------------------------------------
  free energy    TOTEN  =       -50.80911844 eV

  energy without entropy =      -50.80911844  energy(sigma->0) =      -50.80911844


--------------------------------------------------------------------------------------------------------




--------------------------------------- Iteration      1(  17)  ---------------------------------------


    POTLOK:  cpu time     22.1292: real time     22.1345
    SETDIJ:  cpu time      0.0011: real time      0.0011
    TRIAL :  cpu time      0.3802: real time      0.3806
    CORREC:  cpu time     22.4153: real time     22.4210
    CHARGE:  cpu time      0.1688: real time      0.1689
    --------------------------------------------
      LOOP:  cpu time     45.1154: real time     45.1397

 eigenvalue-minimisations  :     0
 total energy-change (2. order) :-0.3277952E-04  (-0.1002038E-04)
 number of electron      26.0000000 magnetization 
 augmentation part       -0.0546708 magnetization 

 Free energy of the ion-electron system (eV)
  ---------------------------------------------------
  alpha Z        PSCENC =         0.19661355
  Ewald energy   TEWEN  =      1675.60574849
  -Hartree energ DENC   =     -2502.45395046
  -exchange      EXHF   =         0.00000000
  -V(xc)+E(xc)   XCENC  =        67.15445526
  PAW double counting   =      9098.67349661    -9077.62674089
  entropy T*S    EENTRO =        -0.00000000
  eigenvalues    EBANDS =      -343.34154292
  atomic energy  EATOM  =      1030.98276914
  ---------------------------------------------------
  free energy    TOTEN  =       -50.80915122 eV

  energy without entropy =      -50.80915122  energy(sigma->0) =      -50.80915122


--------------------------------------------------------------------------------------------------------




--------------------------------------- Iteration      1(  18)  ---------------------------------------


    POTLOK:  cpu time     22.0803: real time     22.0865
    SETDIJ:  cpu time      0.0008: real time      0.0008
    TRIAL :  cpu time      0.3830: real time      0.3831
    CORREC:  cpu time     22.3861: real time     22.3922
    CHARGE:  cpu time      0.1679: real time      0.1680
    --------------------------------------------
      LOOP:  cpu time     45.0514: real time     45.0641

 eigenvalue-minimisations  :     0
 total energy-change (2. order) :-0.1063009E-04  (-0.3509535E-05)
 number of electron      26.0000000 magnetization 
 augmentation part       -0.0546626 magnetization 

 Free energy of the ion-electron system (eV)
  ---------------------------------------------------
  alpha Z        PSCENC =         0.19661355
  Ewald energy   TEWEN  =      1675.60574849
  -Hartree energ DENC   =     -2502.46272493
  -exchange      EXHF   =         0.00000000
  -V(xc)+E(xc)   XCENC  =        67.15487685
  PAW double counting   =      9097.86987107    -9076.82308890
  entropy T*S    EENTRO =        -0.00000000
  eigenvalues    EBANDS =      -343.33322713
  atomic energy  EATOM  =      1030.98276914
  ---------------------------------------------------
  free energy    TOTEN  =       -50.80916185 eV

  energy without entropy =      -50.80916185  energy(sigma->0) =      -50.80916185


--------------------------------------------------------------------------------------------------------




--------------------------------------- Iteration      1(  19)  ---------------------------------------


    POTLOK:  cpu time     22.1641: real time     22.1703
    SETDIJ:  cpu time      0.0008: real time      0.0008
    TRIAL :  cpu time      0.3808: real time      0.3809
    CORREC:  cpu time     22.3772: real time     22.3834
    CHARGE:  cpu time      0.1677: real time      0.1680
    --------------------------------------------
      LOOP:  cpu time     45.1076: real time     45.1355

 eigenvalue-minimisations  :     0
 total energy-change (2. order) :-0.3720970E-05  (-0.1508577E-05)
 number of electron      26.0000000 magnetization 
 augmentation part       -0.0546571 magnetization 

 Free energy of the ion-electron system (eV)
  ---------------------------------------------------
  alpha Z        PSCENC =         0.19661355
  Ewald energy   TEWEN  =      1675.60574849
  -Hartree energ DENC   =     -2502.45992378
  -exchange      EXHF   =         0.00000000
  -V(xc)+E(xc)   XCENC  =        67.15486052
  PAW double counting   =      9097.60849151    -9076.56169359
  entropy T*S    EENTRO =        -0.00000000
  eigenvalues    EBANDS =      -343.33603140
  atomic energy  EATOM  =      1030.98276914
  ---------------------------------------------------
  free energy    TOTEN  =       -50.80916557 eV

  energy without entropy =      -50.80916557  energy(sigma->0) =      -50.80916557


--------------------------------------------------------------------------------------------------------




--------------------------------------- Iteration      1(  20)  ---------------------------------------


    POTLOK:  cpu time     22.1275: real time     22.1334
    SETDIJ:  cpu time      0.0037: real time      0.0037
    TRIAL :  cpu time      0.3847: real time      0.3848
    CORREC:  cpu time     22.3673: real time     22.3736
    CHARGE:  cpu time      0.1688: real time      0.1689
    --------------------------------------------
      LOOP:  cpu time     45.0696: real time     45.1002

 eigenvalue-minimisations  :     0
 total energy-change (2. order) :-0.1609703E-05  (-0.6590111E-06)
 number of electron      26.0000000 magnetization 
 augmentation part       -0.0546550 magnetization 

 Free energy of the ion-electron system (eV)
  ---------------------------------------------------
  alpha Z        PSCENC =         0.19661355
  Ewald energy   TEWEN  =      1675.60574849
  -Hartree energ DENC   =     -2502.46332659
  -exchange      EXHF   =         0.00000000
  -V(xc)+E(xc)   XCENC  =        67.15503166
  PAW double counting   =      9097.75183392    -9076.70506226
  entropy T*S    EENTRO =        -0.00000000
  eigenvalues    EBANDS =      -343.33277509
  atomic energy  EATOM  =      1030.98276914
  ---------------------------------------------------
  free energy    TOTEN  =       -50.80916718 eV

  energy without entropy =      -50.80916718  energy(sigma->0) =      -50.80916718


--------------------------------------------------------------------------------------------------------




--------------------------------------- Iteration      1(  21)  ---------------------------------------


    POTLOK:  cpu time     22.1219: real time     22.1270
    SETDIJ:  cpu time      0.0010: real time      0.0010
    TRIAL :  cpu time      0.3801: real time      0.3801
    CORREC:  cpu time     22.3907: real time     22.3967
    CHARGE:  cpu time      0.1694: real time      0.1696
    --------------------------------------------
      LOOP:  cpu time     45.0813: real time     45.1087

 eigenvalue-minimisations  :     0
 total energy-change (2. order) :-0.6853552E-06  (-0.2604842E-06)
 number of electron      26.0000000 magnetization 
 augmentation part       -0.0546540 magnetization 

 Free energy of the ion-electron system (eV)
  ---------------------------------------------------
  alpha Z        PSCENC =         0.19661355
  Ewald energy   TEWEN  =      1675.60574849
  -Hartree energ DENC   =     -2502.46237548
  -exchange      EXHF   =         0.00000000
  -V(xc)+E(xc)   XCENC  =        67.15501369
  PAW double counting   =      9098.13651304    -9077.08974884
  entropy T*S    EENTRO =        -0.00000000
  eigenvalues    EBANDS =      -343.33370144
  atomic energy  EATOM  =      1030.98276914
  ---------------------------------------------------
  free energy    TOTEN  =       -50.80916787 eV

  energy without entropy =      -50.80916787  energy(sigma->0) =      -50.80916787


--------------------------------------------------------------------------------------------------------




--------------------------------------- Iteration      1(  22)  ---------------------------------------


    POTLOK:  cpu time     22.1012: real time     22.1069
    SETDIJ:  cpu time      0.0012: real time      0.0012
    TRIAL :  cpu time      0.3821: real time      0.3821
    CORREC:  cpu time     22.3711: real time     22.3770
    CHARGE:  cpu time      0.1684: real time      0.1685
    --------------------------------------------
      LOOP:  cpu time     45.0448: real time     45.0724

 eigenvalue-minimisations  :     0
 total energy-change (2. order) :-0.2696843E-06  (-0.1204585E-06)
 number of electron      26.0000000 magnetization 
 augmentation part       -0.0546525 magnetization 

 Free energy of the ion-electron system (eV)
  ---------------------------------------------------
  alpha Z        PSCENC =         0.19661355
  Ewald energy   TEWEN  =      1675.60574849
  -Hartree energ DENC   =     -2502.46057587
  -exchange      EXHF   =         0.00000000
  -V(xc)+E(xc)   XCENC  =        67.15494196
  PAW double counting   =      9098.43257697    -9077.38580969
  entropy T*S    EENTRO =        -0.00000000
  eigenvalues    EBANDS =      -343.33543268
  atomic energy  EATOM  =      1030.98276914
  ---------------------------------------------------
  free energy    TOTEN  =       -50.80916814 eV

  energy without entropy =      -50.80916814  energy(sigma->0) =      -50.80916814


--------------------------------------------------------------------------------------------------------




--------------------------------------- Iteration      1(  23)  ---------------------------------------


    POTLOK:  cpu time     22.0837: real time     22.0896
    SETDIJ:  cpu time      0.0010: real time      0.0010
    TRIAL :  cpu time      0.3807: real time      0.3807
    CORREC:  cpu time     22.3986: real time     22.4044
    CHARGE:  cpu time      0.1703: real time      0.1704
    --------------------------------------------
      LOOP:  cpu time     45.0493: real time     45.0787

 eigenvalue-minimisations  :     0
 total energy-change (2. order) :-0.1176295E-06  (-0.5739533E-07)
 number of electron      26.0000000 magnetization 
 augmentation part       -0.0546516 magnetization 

 Free energy of the ion-electron system (eV)
  ---------------------------------------------------
  alpha Z        PSCENC =         0.19661355
  Ewald energy   TEWEN  =      1675.60574849
  -Hartree energ DENC   =     -2502.46156061
  -exchange      EXHF   =         0.00000000
  -V(xc)+E(xc)   XCENC  =        67.15496639
  PAW double counting   =      9098.54164040    -9077.49488136
  entropy T*S    EENTRO =        -0.00000000
  eigenvalues    EBANDS =      -343.33446426
  atomic energy  EATOM  =      1030.98276914
  ---------------------------------------------------
  free energy    TOTEN  =       -50.80916826 eV

  energy without entropy =      -50.80916826  energy(sigma->0) =      -50.80916826


--------------------------------------------------------------------------------------------------------




--------------------------------------- Iteration      1(  24)  ---------------------------------------


    POTLOK:  cpu time     22.1126: real time     22.1182
    SETDIJ:  cpu time      0.0019: real time      0.0019
    TRIAL :  cpu time      0.3802: real time      0.3803
    CORREC:  cpu time     22.3839: real time     22.3902
    EDDIAG:  cpu time      0.1711: real time      0.1713
    CHARGE:  cpu time      0.1680: real time      0.1681
    --------------------------------------------
      LOOP:  cpu time     45.2371: real time     45.2627

 eigenvalue-minimisations  :     0
 total energy-change (2. order) :-0.4197591E-07  ( 0.6975840E-07)
 number of electron      26.0000000 magnetization 
 augmentation part       -0.0546510 magnetization 

 Free energy of the ion-electron system (eV)
  ---------------------------------------------------
  alpha Z        PSCENC =         0.19661355
  Ewald energy   TEWEN  =      1675.60574849
  -Hartree energ DENC   =     -2502.45978377
  -exchange      EXHF   =         0.00000000
  -V(xc)+E(xc)   XCENC  =        67.15489312
  PAW double counting   =      9098.53833956    -9077.49157827
  entropy T*S    EENTRO =        -0.00000000
  eigenvalues    EBANDS =      -343.33617010
  atomic energy  EATOM  =      1030.98276914
  ---------------------------------------------------
  free energy    TOTEN  =       -50.80916830 eV

  energy without entropy =      -50.80916830  energy(sigma->0) =      -50.80916830


--------------------------------------------------------------------------------------------------------


  average scaling for gradient   1.1333


 average (electrostatic) potential at core
  the test charge radii are     0.5770  0.4325  0.5902
  (the norm of the test charge is              1.0000)
       1 -88.0357       2 -86.9909       3 -87.4707       4 -48.9305       5 -46.7182
       6 -46.0382       7 -46.7564       8-105.6912       9-103.3753



 E-fermi :  -5.7520     XC(G=0):  -0.3077     alpha+bet : -0.0573

 Fermi energy:        -5.7519688599

 k-point     1 :       0.0000    0.0000    0.0000
  band No.  band energies     occupation 
      1     -25.4398      2.00000
      2     -21.7335      2.00000
      3     -18.4916      2.00000
      4     -15.3761      2.00000
      5     -14.6957      2.00000
      6     -13.9990      2.00000
      7     -10.9527      2.00000
      8     -10.8686      2.00000
      9     -10.7145      2.00000
     10     -10.0675      2.00000
     11      -7.0945      2.00000
     12      -6.3988      2.00000
     13      -5.8355      2.00000
     14      -1.0308      0.00000
     15      -0.7727      0.00000
     16      -0.7174      0.00000
     17      -0.5682      0.00000
     18      -0.3683      0.00000
     19      -0.2890      0.00000
     20      -0.2067      0.00000
     21      -0.1050      0.00000
     22       0.1586      0.00000
     23       0.2075      0.00000
     24       0.2826      0.00000


--------------------------------------------------------------------------------------------------------


 soft charge-density along one line, spin component           1
         0         1         2         3         4         5         6         7         8         9
 total charge-density along one line

 pseudopotential strength for first ion, spin component:           1
 12.749  21.457   0.011   0.000  -0.002   0.019   0.000  -0.004
 21.457  36.109   0.018   0.000  -0.004   0.032   0.000  -0.008
  0.011   0.018  -3.273  -0.000   0.003  -5.869  -0.000   0.005
  0.000   0.000  -0.000  -3.273   0.000  -0.000  -5.868   0.000
 -0.002  -0.004   0.003   0.000  -3.270   0.005   0.000  -5.863
  0.019   0.032  -5.869  -0.000   0.005 -10.500  -0.000   0.009
  0.000   0.000  -0.000  -5.868   0.000  -0.000 -10.499   0.000
 -0.004  -0.008   0.005   0.000  -5.863   0.009   0.000 -10.489
 total augmentation occupancy for first ion, spin component:           1
  7.117  -2.471   1.141  -0.000   0.988  -0.546   0.000  -0.465
 -2.471   0.933  -0.628  -0.000  -0.472   0.277   0.000   0.226
  1.141  -0.628   6.495   0.002  -0.173  -2.196  -0.001   0.136
 -0.000  -0.000   0.002   2.656  -0.001  -0.001  -0.591   0.000
  0.988  -0.472  -0.173  -0.001   7.231   0.136   0.000  -2.474
 -0.546   0.277  -2.196  -0.001   0.136   0.760   0.000  -0.070
  0.000   0.000  -0.001  -0.591   0.000   0.000   0.147  -0.000
 -0.465   0.226   0.136   0.000  -2.474  -0.070  -0.000   0.873


------------------------ aborting loop because EDIFF is reached ----------------------------------------


    FORLOC:  cpu time      0.0370: real time      0.0370
    FORNL :  cpu time      0.0231: real time      0.0234
    FORCOR:  cpu time     21.0403: real time     21.0457
    OFIELD:  cpu time      0.0065: real time      0.0065

 VOLUME and BASIS-vectors are now :
 -----------------------------------------------------------------------------
  energy-cutoff  :     1000.00
  volume of cell :    10648.00
      direct lattice vectors                 reciprocal lattice vectors
    22.000000000  0.000000000  0.000000000     0.045454545  0.000000000  0.000000000
     0.000000000 22.000000000  0.000000000     0.000000000  0.045454545  0.000000000
     0.000000000  0.000000000 22.000000000     0.000000000  0.000000000  0.045454545

  length of vectors
    22.000000000 22.000000000 22.000000000     0.045454545  0.045454545  0.045454545


 FORCES acting on ions:
    Electron-Ion                     Ewald-Force                    Non-Local-Force
 -----------------------------------------------------------------------------------------------
   0.134E+03 0.188E+03 -.347E-01   -.132E+03 -.194E+03 0.249E-01   -.217E+01 0.646E+01 0.114E-01
   -.207E+03 -.797E+02 0.108E+00   0.208E+03 0.833E+02 -.116E+00   -.928E+00 -.372E+01 0.913E-02
   -.160E+02 -.223E+03 0.232E-01   0.250E+02 0.226E+03 -.335E-01   -.933E+01 -.317E+01 0.109E-01
   0.957E+02 -.279E+02 0.976E-01   -.103E+03 0.300E+02 -.107E+00   0.733E+01 -.211E+01 0.108E-01
   0.480E+02 0.678E+02 0.300E-01   -.516E+02 -.727E+02 -.316E-01   0.358E+01 0.496E+01 0.321E-02
   -.779E+02 -.226E+02 0.245E-01   0.837E+02 0.242E+02 -.263E-01   -.586E+01 -.153E+01 0.154E-02
   0.378E+01 -.811E+02 0.461E-01   -.428E+01 0.871E+02 -.490E-01   0.495E+00 -.605E+01 0.433E-02
   0.237E+03 -.758E+02 -.329E+00   -.237E+03 0.751E+02 0.382E+00   -.331E+00 0.791E+00 -.586E-01
   -.187E+03 0.230E+03 0.326E-01   0.211E+03 -.259E+03 -.435E-01   -.237E+02 0.295E+02 0.966E-02
 -----------------------------------------------------------------------------------------------
   0.310E+02 -.251E+02 -.209E-02   -.284E-13 0.000E+00 0.416E-16   -.310E+02 0.251E+02 0.233E-02


 POSITION                                       TOTAL-FORCE (eV/Angst)
 -----------------------------------------------------------------------------------
     10.34888      9.82965     11.00015         0.010130      0.007966      0.001214
     12.05692     11.13123     10.99944        -0.004390     -0.002887      0.001366
     10.96063     11.95891     10.99986        -0.002945     -0.002934      0.000237
      8.89782     11.39232     10.99941         0.003031      0.001772      0.001305
      9.69611      8.96604     10.99965        -0.001787     -0.001356      0.001537
     13.10218     11.41135     10.99915         0.002039      0.000247     -0.000320
     10.85327     13.03396     10.99915        -0.002522      0.000482      0.001323
      9.87033     11.11221     11.00085         0.004948     -0.003957     -0.005264
     11.66706      9.80855     10.99976        -0.008504      0.000666     -0.001399
 -----------------------------------------------------------------------------------
    total drift:                                0.001519      0.000178      0.000238


--------------------------------------------------------------------------------------------------------



  FREE ENERGIE OF THE ION-ELECTRON SYSTEM (eV)
  ---------------------------------------------------
  free  energy   TOTEN  =       -50.80916830 eV

  energy  without entropy=      -50.80916830  energy(sigma->0) =      -50.80916830



--------------------------------------------------------------------------------------------------------


    POTLOK:  cpu time     21.2229: real time     21.2288


--------------------------------------------------------------------------------------------------------


 stress matrix after NEB project (eV)
      0.00000      0.00000      0.00000
      0.00000      0.00000      0.00000
      0.00000      0.00000      0.00000
  FORCES: max atom, RMS     0.012944    0.006591
  FORCE total and by dimension    0.019774    0.010130
  Stress total and by dimension    0.000000    0.000000
     LOOP+:  cpu time    927.3258: real time    927.8926
    4ORBIT:  cpu time      0.0000: real time      0.0000

 total amount of memory used by VASP MPI-rank0   108656. kBytes
=======================================================================

   base      :      30000. kBytes
   nonl-proj :       4010. kBytes
   fftplans  :      24880. kBytes
   grid      :      48046. kBytes
   one-center:          1. kBytes
   wavefun   :       1719. kBytes

  
  
 General timing and accounting informations for this job:
 ========================================================
  
                  Total CPU time used (sec):      955.527
                            User time (sec):      943.982
                          System time (sec):       11.545
                         Elapsed time (sec):      964.259
  
                   Maximum memory used (kb):      614304.
                   Average memory used (kb):          N/A
  
                          Minor page faults:       378583
                          Major page faults:          604
                 Voluntary context switches:         7384
