 vasp.6.4.1 05Apr23 (build Jun  6 2023 14:46:38) gamma-only                      
 executed on        HPECrayEX_GCC date 2024.08.21  20:01:49
 running  512 mpi-ranks, with    1 threads/rank, on    4 nodes
 distrk:  each k-point on  256 cores,    2 groups
 distr:  one band on NCORE=  32 cores,    8 groups


--------------------------------------------------------------------------------------------------------


 INCAR:
   ALGO = Conjugate
   KPAR = 2
   NCORE = 32
   ISMEAR = 0
   SIGMA = 0.01
   PREC = Accurate
   EDIFF = 1E-7
   ENCUT = 1000
   ISIF = 0
   GGA = RE
   IVDW = 11
   LWAVE = .FALSE.
   LCHARG = .FALSE.
   SYMPREC = 1E-7
   LWAVE = .FALSE.
   LCHARG = .FALSE.

 POTCAR:    PAW_PBE C_h 06Feb2004                 
 POTCAR:    PAW_PBE H_h 06Feb2004                 
 POTCAR:    PAW_PBE N_h 06Feb2004                 
 POTCAR:    PAW_PBE C_h 06Feb2004                 
   VRHFIN =C: s2p2                                                                                  
   LEXCH  = PE                                                                                      
   EATOM  =   147.1560 eV,   10.8157 Ry                                                             
                                                                                                    
   TITEL  = PAW_PBE C_h 06Feb2004                                                                   
   LULTRA =        F    use ultrasoft PP ?                                                          
   IUNSCR =        1    unscreen: 0-lin 1-nonlin 2-no                                               
   RPACOR =    0.800    partial core radius                                                         
   POMASS =   12.011; ZVAL   =    4.000    mass and valenz                                          
   RCORE  =    1.100    outmost cutoff radius                                                       
   RWIGS  =    1.630; RWIGS  =    0.863    wigner-seitz radius (au A)                               
   ENMAX  =  700.000; ENMIN  =  500.000 eV                                                          
   ICORE  =        2    local potential                                                             
   LCOR   =        T    correct aug charges                                                         
   LPAW   =        T    paw PP                                                                      
   EAUG   =  946.768                                                                                
   DEXC   =    0.000                                                                                
   RMAX   =    1.128    core radius for proj-oper                                                   
   RAUG   =    1.300    factor for augmentation sphere                                              
   RDEP   =    1.162    radius for radial grids                                                     
   RDEPT  =    1.088    core radius for aug-charge                                                  
                                                                                                    
   Atomic configuration                                                                             
    4 entries                                                                                       
     n  l   j            E        occ.                                                              
     1  0  0.50      -273.3789   2.0000                                                             
     2  0  0.50       -13.7508   2.0000                                                             
     2  1  0.50        -5.2854   2.0000                                                             
     3  2  1.50        -5.4423   0.0000                                                             
   Description                                                                                      
     l       E           TYP  RCUT    TYP  RCUT                                                     
     0    -13.7508458     23  1.100                                                                 
     0     -8.2022199     23  1.100                                                                 
     1     -5.2854383     23  1.100                                                                 
     1      1.1560700     23  1.100                                                                 
     2     -5.4423304      7  1.100                                                                 
  local pseudopotential read in
  partial core-charges read in
  partial kinetic energy density read in
  atomic valenz-charges read in
  non local Contribution for L=           0  read in
    real space projection operators read in
  non local Contribution for L=           0  read in
    real space projection operators read in
  non local Contribution for L=           1  read in
    real space projection operators read in
  non local Contribution for L=           1  read in
    real space projection operators read in
    PAW grid and wavefunctions read in

   number of l-projection  operators is LMAX  =           4
   number of lm-projection operators is LMMAX =           8

 POTCAR:    PAW_PBE H_h 06Feb2004                 
   VRHFIN =H: ultrasoft test                                                                        
   LEXCH  = PE                                                                                      
   EATOM  =    12.4884 eV,    0.9179 Ry                                                             
                                                                                                    
   TITEL  = PAW_PBE H_h 06Feb2004                                                                   
   LULTRA =        F    use ultrasoft PP ?                                                          
   IUNSCR =        0    unscreen: 0-lin 1-nonlin 2-no                                               
   RPACOR =    0.000    partial core radius                                                         
   POMASS =    1.000; ZVAL   =    1.000    mass and valenz                                          
   RCORE  =    0.800    outmost cutoff radius                                                       
   RWIGS  =    0.700; RWIGS  =    0.370    wigner-seitz radius (au A)                               
   ENMAX  =  700.000; ENMIN  =  350.000 eV                                                          
   RCLOC  =    0.701    cutoff for local pot                                                        
   LCOR   =        T    correct aug charges                                                         
   LPAW   =        T    paw PP                                                                      
   EAUG   = 1000.000                                                                                
   RMAX   =    0.819    core radius for proj-oper                                                   
   RAUG   =    1.000    factor for augmentation sphere                                              
   RDEP   =    0.817    radius for radial grids                                                     
   RDEPT  =    0.817    core radius for aug-charge                                                  
                                                                                                    
   Atomic configuration                                                                             
    2 entries                                                                                       
     n  l   j            E        occ.                                                              
     1  0  0.50        -6.4927   1.0000                                                             
     2  1  0.50        -3.4015   0.0000                                                             
   Description                                                                                      
     l       E           TYP  RCUT    TYP  RCUT                                                     
     0     -6.4927493     23  0.800                                                                 
     0      6.8029130     23  0.800                                                                 
     1     -6.8029130     23  0.800                                                                 
  local pseudopotential read in
  atomic valenz-charges read in
  non local Contribution for L=           0  read in
    real space projection operators read in
  non local Contribution for L=           0  read in
    real space projection operators read in
  non local Contribution for L=           1  read in
    real space projection operators read in
    PAW grid and wavefunctions read in

   number of l-projection  operators is LMAX  =           3
   number of lm-projection operators is LMMAX =           5

 POTCAR:    PAW_PBE N_h 06Feb2004                 
   VRHFIN =N: s2p3                                                                                  
   LEXCH  = PE                                                                                      
   EATOM  =   264.5486 eV,   19.4438 Ry                                                             
                                                                                                    
   TITEL  = PAW_PBE N_h 06Feb2004                                                                   
   LULTRA =        F    use ultrasoft PP ?                                                          
   IUNSCR =        1    unscreen: 0-lin 1-nonlin 2-no                                               
   RPACOR =    0.800    partial core radius                                                         
   POMASS =   14.001; ZVAL   =    5.000    mass and valenz                                          
   RCORE  =    1.100    outmost cutoff radius                                                       
   RWIGS  =    1.480; RWIGS  =    0.783    wigner-seitz radius (au A)                               
   ENMAX  =  700.000; ENMIN  =  500.000 eV                                                          
   ICORE  =        2    local potential                                                             
   LCOR   =        T    correct aug charges                                                         
   LPAW   =        T    paw PP                                                                      
   EAUG   =  904.640                                                                                
   DEXC   =    0.000                                                                                
   RMAX   =    1.127    core radius for proj-oper                                                   
   RAUG   =    1.300    factor for augmentation sphere                                              
   RDEP   =    1.115    radius for radial grids                                                     
   RDEPT  =    1.106    core radius for aug-charge                                                  
                                                                                                    
   Atomic configuration                                                                             
    4 entries                                                                                       
     n  l   j            E        occ.                                                              
     1  0  0.50      -384.7179   2.0000                                                             
     2  0  0.50       -18.5828   2.0000                                                             
     2  1  0.50        -7.0898   3.0000                                                             
     3  2  1.50        -6.8029   0.0000                                                             
   Description                                                                                      
     l       E           TYP  RCUT    TYP  RCUT                                                     
     0    -18.5828117     23  1.100                                                                 
     0    -15.0750597     23  1.100                                                                 
     1     -7.0897851     23  1.100                                                                 
     1     -1.9663412     23  1.100                                                                 
     2     -6.8029130      7  1.100                                                                 
  local pseudopotential read in
  partial core-charges read in
  partial kinetic energy density read in
  kinetic energy density of atom read in
  atomic valenz-charges read in
  non local Contribution for L=           0  read in
    real space projection operators read in
  non local Contribution for L=           0  read in
    real space projection operators read in
  non local Contribution for L=           1  read in
    real space projection operators read in
  non local Contribution for L=           1  read in
    real space projection operators read in
    PAW grid and wavefunctions read in

   number of l-projection  operators is LMAX  =           4
   number of lm-projection operators is LMMAX =           8

 -----------------------------------------------------------------------------
|                                                                             |
|               ----> ADVICE to this user running VASP <----                  |
|                                                                             |
|     You enforced a specific xc type in the INCAR file but a different       |
|     type was found in the POTCAR file.                                      |
|     I HOPE YOU KNOW WHAT YOU ARE DOING!                                     |
|                                                                             |
 -----------------------------------------------------------------------------

  PAW_PBE C_h 06Feb2004                 :
 energy of atom  1       EATOM= -147.1560
 kinetic energy error for atom=    0.0031 (will be added to EATOM!!)
  PAW_PBE H_h 06Feb2004                 :
 energy of atom  2       EATOM=  -12.4884
 kinetic energy error for atom=    0.0006 (will be added to EATOM!!)
  PAW_PBE N_h 06Feb2004                 :
 energy of atom  3       EATOM= -264.5486
 kinetic energy error for atom=    0.0081 (will be added to EATOM!!)


 POSCAR:  C  H  N
  positions in cartesian coordinates
  No initial velocities read in
 exchange correlation table for  LEXCH =       40
   RHO(1)=    0.500       N(1)  =     2000
   RHO(2)=  100.500       N(2)  =     4000

 VTST: version 4.1, (05/19/21)

 CHAIN: initializing optimizer
 
 OPT: Using VASP Dynamics algorithm
 CHAIN: Read ICHAIN            0

 POSCAR:  C  H  N
  positions in cartesian coordinates
  No initial velocities read in



--------------------------------------------------------------------------------------------------------


 ion  position               nearest neighbor table
   1  0.470  0.447  0.500-   5 1.08   9 1.32   8 1.37
   2  0.548  0.506  0.500-   6 1.08   3 1.37   9 1.38
   3  0.498  0.544  0.500-   7 1.08   2 1.37   8 1.38
   4  0.404  0.518  0.500-   8 1.01
   5  0.441  0.408  0.500-   1 1.08
   6  0.596  0.519  0.500-   2 1.08
   7  0.493  0.592  0.500-   3 1.08
   8  0.449  0.505  0.500-   4 1.01   1 1.37   3 1.38
   9  0.530  0.446  0.500-   1 1.32   2 1.38

  LATTYP: Found a simple cubic cell.
 ALAT       =    22.0000000000
  
  Lattice vectors:
  
 A1 = (  22.0000000000,   0.0000000000,   0.0000000000)
 A2 = (   0.0000000000,  22.0000000000,   0.0000000000)
 A3 = (   0.0000000000,   0.0000000000,  22.0000000000)


Analysis of symmetry for initial positions (statically):
=====================================================================
 Subroutine PRICEL returns:
 Original cell was already a primitive cell.
 

 Routine SETGRP: Setting up the symmetry group for a 
 simple cubic supercell.


 Subroutine GETGRP returns: Found  1 space group operations
 (whereof  1 operations were pure point group operations)
 out of a pool of 48 trial point group operations.


The static configuration has the point symmetry C_1 .


Analysis of symmetry for dynamics (positions and initial velocities):
=====================================================================
 Subroutine PRICEL returns:
 Original cell was already a primitive cell.
 

 Routine SETGRP: Setting up the symmetry group for a 
 simple cubic supercell.


 Subroutine GETGRP returns: Found  1 space group operations
 (whereof  1 operations were pure point group operations)
 out of a pool of 48 trial point group operations.


The dynamic configuration has the point symmetry C_1 .


 Subroutine INISYM returns: Found  1 space group operations
 (whereof  1 operations are pure point group operations),
 and found     1 'primitive' translations


----------------------------------------------------------------------------------------

                                     Primitive cell                                     

  volume of cell :   10648.0000

  direct lattice vectors                    reciprocal lattice vectors
    22.000000000  0.000000000  0.000000000     0.045454545  0.000000000  0.000000000
     0.000000000 22.000000000  0.000000000     0.000000000  0.045454545  0.000000000
     0.000000000  0.000000000 22.000000000     0.000000000  0.000000000  0.045454545

  length of vectors
    22.000000000 22.000000000 22.000000000     0.045454545  0.045454545  0.045454545

  position of ions in fractional coordinates (direct lattice)
     0.470403864  0.446802045  0.500007045
     0.548042045  0.505964773  0.499974318
     0.498210682  0.543586591  0.499993864
     0.404446591  0.517832955  0.499973409
     0.440732045  0.407547500  0.499984318
     0.595553409  0.518697955  0.499961591
     0.493330682  0.592452500  0.499961591
     0.448651136  0.505100227  0.500038409
     0.530320682  0.445842955  0.499989318

  ion indices of the primitive-cell ions
   primitive index   ion index
                 1           1
                 2           2
                 3           3
                 4           4
                 5           5
                 6           6
                 7           7
                 8           8
                 9           9

----------------------------------------------------------------------------------------



 KPOINTS: auto                                    

Automatic generation of k-mesh.
 Grid dimensions read from file:
 generate k-points for:    1    1    1

 Generating k-lattice:

  Cartesian coordinates                     Fractional coordinates (reciprocal lattice)
     0.045454545  0.000000000  0.000000000     1.000000000  0.000000000  0.000000000
     0.000000000  0.045454545  0.000000000     0.000000000  1.000000000  0.000000000
     0.000000000  0.000000000  0.045454545     0.000000000  0.000000000  1.000000000

  Length of vectors
     0.045454545  0.045454545  0.045454545

  Shift w.r.t. Gamma in fractional coordinates (k-lattice)
     0.000000000  0.000000000  0.000000000

 
 Subroutine IBZKPT returns following result:
 ===========================================
 
 Found      1 irreducible k-points:
 
 Following reciprocal coordinates:
            Coordinates               Weight
  0.000000  0.000000  0.000000      1.000000
 
 Following cartesian coordinates:
            Coordinates               Weight
  0.000000  0.000000  0.000000      1.000000
 


--------------------------------------------------------------------------------------------------------




 Dimension of arrays:
   k-points           NKPTS =      1   k-points in BZ     NKDIM =      1   number of bands    NBANDS=     24
   number of dos      NEDOS =    301   number of ions     NIONS =      9
   non local maximal  LDIM  =      4   non local SUM 2l+1 LMDIM =      8
   total plane-waves  NPLWV = ******
   max r-space proj   IRMAX =      1   max aug-charges    IRDMAX=   9419
   dimension x,y,z NGX =   240 NGY =  240 NGZ =  240
   dimension x,y,z NGXF=   480 NGYF=  480 NGZF=  480
   support grid    NGXF=   480 NGYF=  480 NGZF=  480
   ions per type =               3   4   2
   NGX,Y,Z   is equivalent  to a cutoff of  18.14, 18.14, 18.14 a.u.
   NGXF,Y,Z  is equivalent  to a cutoff of  36.27, 36.27, 36.27 a.u.

 SYSTEM =  unknown system                          
 POSCAR =   C  H  N                                

 Startparameter for this run:
   NWRITE =      2    write-flag & timer
   PREC   = accura    normal or accurate (medium, high low for compatibility)
   ISTART =      0    job   : 0-new  1-cont  2-samecut
   ICHARG =      2    charge: 1-file 2-atom 10-const
   ISPIN  =      1    spin polarized calculation?
   LNONCOLLINEAR =      F non collinear calculations
   LSORBIT =      F    spin-orbit coupling
   INIWAV =      1    electr: 0-lowe 1-rand  2-diag
   LASPH  =      F    aspherical Exc in radial PAW
 Electronic Relaxation 1
   ENCUT  = 1000.0 eV  73.50 Ry    8.57 a.u.  56.73 56.73 56.73*2*pi/ulx,y,z
   ENINI  = 1000.0     initial cutoff
   ENAUG  = 1000.0 eV  augmentation charge cutoff
   NELM   =     60;   NELMIN=  2; NELMDL= -5     # of ELM steps 
   EDIFF  = 0.1E-06   stopping-criterion for ELM
   LREAL  =      F    real-space projection
   NLSPLINE    = F    spline interpolate recip. space projectors
   LCOMPAT=      F    compatible to vasp.4.4
   GGA_COMPAT  = T    GGA compatible to vasp.4.4-vasp.4.6
   LMAXPAW     = -100 max onsite density
   LMAXMIX     =    2 max onsite mixed and CHGCAR
   VOSKOWN=      0    Vosko Wilk Nusair interpolation
   ROPT   =    0.00000   0.00000   0.00000
 Ionic relaxation
   EDIFFG = 0.1E-05   stopping-criterion for IOM
   NSW    =      0    number of steps for IOM
   NBLOCK =      1;   KBLOCK =      1    inner block; outer block 
   IBRION =     -1    ionic relax: 0-MD 1-quasi-New 2-CG
   NFREE  =      0    steps in history (QN), initial steepest desc. (CG)
   ISIF   =      0    stress and relaxation
   IWAVPR =     10    prediction:  0-non 1-charg 2-wave 3-comb
   ISYM   =      2    0-nonsym 1-usesym 2-fastsym
   LCORR  =      T    Harris-Foulkes like correction to forces

   POTIM  = 0.5000    time-step for ionic-motion
   TEIN   =    0.0    initial temperature
   TEBEG  =    0.0;   TEEND  =   0.0 temperature during run
   SMASS  =  -3.00    Nose mass-parameter (am)
   estimated Nose-frequenzy (Omega)   =  0.10E-29 period in steps = 0.13E+47 mass=  -0.111E-25a.u.
   SCALEE = 1.0000    scale energy and forces
   NPACO  =    256;   APACO  = 10.0  distance and # of slots for P.C.
   PSTRESS=    0.0 pullay stress

  Mass of Ions in am
   POMASS =  12.01  1.00 14.00
  Ionic Valenz
   ZVAL   =   4.00  1.00  5.00
  Atomic Wigner-Seitz radii
   RWIGS  =  -1.00 -1.00 -1.00
  virtual crystal weights 
   VCA    =   1.00  1.00  1.00
   NELECT =      26.0000    total number of electrons
   NUPDOWN=      -1.0000    fix difference up-down

 DOS related values:
   EMIN   =  10.00;   EMAX   =-10.00  energy-range for DOS
   EFERMI =   0.00;   METHOD = LEGACY      
   ISMEAR =     0;   SIGMA  =   0.01  broadening in eV -4-tet -1-fermi 0-gaus

 Electronic relaxation 2 (details)
   IALGO  =     58    algorithm
   LDIAG  =      T    sub-space diagonalisation (order eigenvalues)
   LSUBROT=      F    optimize rotation matrix (better conditioning)
   TURBO    =      0    0=normal 1=particle mesh
   IRESTART =      0    0=no restart 2=restart with 2 vectors
   NREBOOT  =      0    no. of reboots
   NMIN     =      0    reboot dimension
   EREF     =   0.00    reference energy to select bands
   IMIX   =      4    mixing-type and parameters
     AMIX     =   0.40;   BMIX     =  1.00
     AMIX_MAG =   1.60;   BMIX_MAG =  1.00
     AMIN     =   0.10
     WC   =   100.;   INIMIX=   1;  MIXPRE=   1;  MAXMIX= -45

 Intra band minimization:
   WEIMIN = 0.0000     energy-eigenvalue tresh-hold
   EBREAK =  0.10E-08  absolut break condition
   DEPER  =   0.30     relativ break condition  

   TIME   =   0.40     timestep for ELM

  volume/ion in A,a.u.               =    1183.11      7984.03
  Fermi-wavevector in a.u.,A,eV,Ry     =   0.220450  0.416590  0.661218  0.048598
  Thomas-Fermi vector in A             =   1.001172

 Write flags
   LWAVE        =      F    write WAVECAR
   LDOWNSAMPLE  =      F    k-point downsampling of WAVECAR
   LCHARG       =      F    write CHGCAR
   LVTOT        =      F    write LOCPOT, total local potential
   LVHAR        =      F    write LOCPOT, Hartree potential only
   LELF         =      F    write electronic localiz. function (ELF)
   LORBIT       =      0    0 simple, 1 ext, 2 COOP (PROOUT), +10 PAW based schemes


 Dipole corrections
   LMONO  =      F    monopole corrections only (constant potential shift)
   LDIPOL =      F    correct potential (dipole corrections)
   IDIPOL =      0    1-x, 2-y, 3-z, 4-all directions 
   EPSILON=  1.0000000 bulk dielectric constant

 Exchange correlation treatment:
   GGA     =    RE    GGA type
   LEXCH   =    40    internal setting for exchange type
   LIBXC   =     F    Libxc                    
   VOSKOWN =     0    Vosko Wilk Nusair interpolation
   LHFCALC =     F    Hartree Fock is set to
   LHFONE  =     F    Hartree Fock one center treatment
   AEXX    =    0.0000 exact exchange contribution

 Linear response parameters
   LEPSILON=     F    determine dielectric tensor
   LRPA    =     F    only Hartree local field effects (RPA)
   LNABLA  =     F    use nabla operator in PAW spheres
   LVEL    =     F    velocity operator in full k-point grid
   CSHIFT  =0.1000    complex shift for real part using Kramers Kronig
   OMEGAMAX=  -1.0    maximum frequency
   DEG_THRESHOLD= 0.2000000E-02 threshold for treating states as degnerate
   RTIME   =   -0.100 relaxation time in fs
  (WPLASMAI=    0.000 imaginary part of plasma frequency in eV, 0.658/RTIME)
   DFIELD  = 0.0000000 0.0000000 0.0000000 field for delta impulse in time

  Optional k-point grid parameters
   LKPOINTS_OPT  =     F    use optional k-point grid
   KPOINTS_OPT_MODE=     1    mode for optional k-point grid

 Orbital magnetization related:
   ORBITALMAG=     F  switch on orbital magnetization
   LCHIMAG   =     F  perturbation theory with respect to B field
   DQ        =  0.001000  dq finite difference perturbation B field
   LLRAUG    =     F  two centre corrections for induced B field
   LBONE     =     F  B-component reconstruction in AE one-centre
   LVGVCALC  =     T  calculate vGv susceptibility
   LVGVAPPL  =     F  apply vGv susceptibility instead of pGv for G=0

 Random number generation:
   RANDOM_GENERATOR = DEFAULT
   PCG_SEED         = not used


--------------------------------------------------------------------------------------------------------


 Static calculation
 charge density and potential will be updated during run
 non-spin polarized calculation
 Conjugate gradient for all bands (Freysoldt, et al. PRB 79, 241103 (2009))
 preconditioned conjugated gradient                                        
 perform sub-space diagonalisation
    before iterative eigenvector-optimisation
 modified Broyden-mixing scheme, WC =      100.0
 initial mixing is a Kerker type mixing with AMIX =  0.4000 and BMIX =      1.0000
 Hartree-type preconditioning will be used
 using additional bands           11
 reciprocal scheme for non local part
 use partial core corrections
 no Harris-corrections to forces 
 use gradient corrections 
 use of overlap-Matrix (Vanderbilt PP)
 Gauss-broadening in eV      SIGMA  =   0.01


--------------------------------------------------------------------------------------------------------


  energy-cutoff  :     1000.00
  volume of cell :    10648.00
      direct lattice vectors                 reciprocal lattice vectors
    22.000000000  0.000000000  0.000000000     0.045454545  0.000000000  0.000000000
     0.000000000 22.000000000  0.000000000     0.000000000  0.045454545  0.000000000
     0.000000000  0.000000000 22.000000000     0.000000000  0.000000000  0.045454545

  length of vectors
    22.000000000 22.000000000 22.000000000     0.045454545  0.045454545  0.045454545



 k-points in units of 2pi/SCALE and weight: auto                                    
   0.00000000  0.00000000  0.00000000       1.000

 k-points in reciprocal lattice and weights: auto                                    
   0.00000000  0.00000000  0.00000000       1.000

 position of ions in fractional coordinates (direct lattice) 
   0.47040386  0.44680205  0.50000705
   0.54804205  0.50596477  0.49997432
   0.49821068  0.54358659  0.49999386
   0.40444659  0.51783295  0.49997341
   0.44073205  0.40754750  0.49998432
   0.59555341  0.51869795  0.49996159
   0.49333068  0.59245250  0.49996159
   0.44865114  0.50510023  0.50003841
   0.53032068  0.44584295  0.49998932

 position of ions in cartesian coordinates  (Angst):
  10.34888500  9.82964500 11.00015500
  12.05692500 11.13122500 10.99943500
  10.96063500 11.95890500 10.99986500
   8.89782500 11.39232500 10.99941500
   9.69610500  8.96604500 10.99965500
  13.10217500 11.41135500 10.99915500
  10.85327500 13.03395500 10.99915500
   9.87032500 11.11220500 11.00084500
  11.66705500  9.80854500 10.99976500



--------------------------------------------------------------------------------------------------------


 use parallel FFT for orbitals z direction half grid
 k-point   1 :   0.0000 0.0000 0.0000  plane waves:  381993

 maximum and minimum number of plane-waves per node :     11948    11928

 maximum number of plane-waves:    381993
 maximum index in each direction: 
   IXMAX=   56   IYMAX=   56   IZMAX=   56
   IXMIN=  -56   IYMIN=  -56   IZMIN=    0


 parallel 3D FFT for wavefunctions:
    minimum data exchange during FFTs selected (reduces bandwidth)
 parallel 3D FFT for charge:
    minimum data exchange during FFTs selected (reduces bandwidth)


 total amount of memory used by VASP MPI-rank0   108656. kBytes
=======================================================================

   base      :      30000. kBytes
   nonl-proj :       4010. kBytes
   fftplans  :      24880. kBytes
   grid      :      48046. kBytes
   one-center:          1. kBytes
   wavefun   :       1719. kBytes

     INWAV:  cpu time      0.0001: real time      0.0003
 Broyden mixing: mesh for mixing (old mesh)
   NGX =113   NGY =113   NGZ =113
  (NGX  =480   NGY  =480   NGZ  =480)
  gives a total of ****** points

 initial charge density was supplied:
 charge density of overlapping atoms calculated
 number of electron      26.0000000 magnetization 
 keeping initial charge density in first step


--------------------------------------------------------------------------------------------------------


 Maximum index for augmentation-charges          509 (set IRDMAX)


--------------------------------------------------------------------------------------------------------


 First call to EWALD:  gamma=   0.081
 Maximum number of real-space cells 3x 3x 3
 Maximum number of reciprocal cells 3x 3x 3

    FEWALD:  cpu time      0.0044: real time      0.0044


--------------------------------------- Ionic step        1  -------------------------------------------




--------------------------------------- Iteration      1(   1)  ---------------------------------------


    POTLOK:  cpu time      0.6100: real time      0.6110
    SETDIJ:  cpu time      0.0098: real time      0.0103
    TRIAL :  cpu time      0.6982: real time      0.7003
    CORREC:  cpu time      0.0028: real time      0.0028
    --------------------------------------------
      LOOP:  cpu time      1.3313: real time      1.3352

 eigenvalue-minimisations  :    64
 total energy-change (2. order) : 0.2295473E+03  (-0.6449713E+03)
 number of electron      26.0000000 magnetization 
 augmentation part       26.0000000 magnetization 

 Free energy of the ion-electron system (eV)
  ---------------------------------------------------
  alpha Z        PSCENC =         0.19661355
  Ewald energy   TEWEN  =      1675.60574849
  -Hartree energ DENC   =     -2382.84811810
  -exchange      EXHF   =         0.00000000
  -V(xc)+E(xc)   XCENC  =        63.07708202
  PAW double counting   =       762.01253228     -742.14246931
  entropy T*S    EENTRO =        -0.00000000
  eigenvalues    EBANDS =      -166.27731644
  atomic energy  EATOM  =      1019.92323204
  ---------------------------------------------------
  free energy    TOTEN  =       229.54730452 eV

  energy without entropy =      229.54730452  energy(sigma->0) =      229.54730452


--------------------------------------------------------------------------------------------------------




--------------------------------------- Iteration      1(   2)  ---------------------------------------


    TRIAL :  cpu time      0.7341: real time      0.7343
    CORREC:  cpu time      0.0006: real time      0.0006
    --------------------------------------------
      LOOP:  cpu time      0.7506: real time      0.7644

 eigenvalue-minimisations  :    72
 total energy-change (2. order) :-0.1173402E+03  (-0.1142608E+03)
 number of electron      26.0000000 magnetization 
 augmentation part       26.0000000 magnetization 

 Free energy of the ion-electron system (eV)
  ---------------------------------------------------
  alpha Z        PSCENC =         0.19661355
  Ewald energy   TEWEN  =      1675.60574849
  -Hartree energ DENC   =     -2382.84811810
  -exchange      EXHF   =         0.00000000
  -V(xc)+E(xc)   XCENC  =        63.07708202
  PAW double counting   =       762.01253228     -742.14246931
  entropy T*S    EENTRO =        -0.00626097
  eigenvalues    EBANDS =      -283.61127416
  atomic energy  EATOM  =      1019.92323204
  ---------------------------------------------------
  free energy    TOTEN  =       112.20708584 eV

  energy without entropy =      112.21334680  energy(sigma->0) =      112.21021632


--------------------------------------------------------------------------------------------------------




--------------------------------------- Iteration      1(   3)  ---------------------------------------


    TRIAL :  cpu time      0.9111: real time      0.9115
    CORREC:  cpu time      0.0001: real time      0.0001
    --------------------------------------------
      LOOP:  cpu time      0.9243: real time      0.9413

 eigenvalue-minimisations  :    96
 total energy-change (2. order) :-0.1334553E+03  (-0.1310375E+03)
 number of electron      26.0000000 magnetization 
 augmentation part       26.0000000 magnetization 

 Free energy of the ion-electron system (eV)
  ---------------------------------------------------
  alpha Z        PSCENC =         0.19661355
  Ewald energy   TEWEN  =      1675.60574849
  -Hartree energ DENC   =     -2382.84811810
  -exchange      EXHF   =         0.00000000
  -V(xc)+E(xc)   XCENC  =        63.07708202
  PAW double counting   =       762.01253228     -742.14246931
  entropy T*S    EENTRO =        -0.00000000
  eigenvalues    EBANDS =      -417.07286245
  atomic energy  EATOM  =      1019.92323204
  ---------------------------------------------------
  free energy    TOTEN  =       -21.24824148 eV

  energy without entropy =      -21.24824148  energy(sigma->0) =      -21.24824148


--------------------------------------------------------------------------------------------------------




--------------------------------------- Iteration      1(   4)  ---------------------------------------


    TRIAL :  cpu time      0.6726: real time      0.6726
    CORREC:  cpu time      0.0001: real time      0.0001
    --------------------------------------------
      LOOP:  cpu time      0.7048: real time      0.7050

 eigenvalue-minimisations  :    64
 total energy-change (2. order) :-0.3855594E+02  (-0.3847317E+02)
 number of electron      26.0000000 magnetization 
 augmentation part       26.0000000 magnetization 

 Free energy of the ion-electron system (eV)
  ---------------------------------------------------
  alpha Z        PSCENC =         0.19661355
  Ewald energy   TEWEN  =      1675.60574849
  -Hartree energ DENC   =     -2382.84811810
  -exchange      EXHF   =         0.00000000
  -V(xc)+E(xc)   XCENC  =        63.07708202
  PAW double counting   =       762.01253228     -742.14246931
  entropy T*S    EENTRO =        -0.00000000
  eigenvalues    EBANDS =      -455.62879899
  atomic energy  EATOM  =      1019.92323204
  ---------------------------------------------------
  free energy    TOTEN  =       -59.80417803 eV

  energy without entropy =      -59.80417803  energy(sigma->0) =      -59.80417803


--------------------------------------------------------------------------------------------------------




--------------------------------------- Iteration      1(   5)  ---------------------------------------


    TRIAL :  cpu time      0.7314: real time      0.7314
    CORREC:  cpu time      0.0001: real time      0.0001
    CHARGE:  cpu time      0.2105: real time      0.2120
    --------------------------------------------
      LOOP:  cpu time      0.9712: real time      0.9730

 eigenvalue-minimisations  :    72
 total energy-change (2. order) :-0.2367776E+01  (-0.2360465E+01)
 number of electron      26.0000000 magnetization 
 augmentation part       -0.0449606 magnetization 

 Free energy of the ion-electron system (eV)
  ---------------------------------------------------
  alpha Z        PSCENC =         0.19661355
  Ewald energy   TEWEN  =      1675.60574849
  -Hartree energ DENC   =     -2382.84811810
  -exchange      EXHF   =         0.00000000
  -V(xc)+E(xc)   XCENC  =        63.07708202
  PAW double counting   =       762.01253228     -742.14246931
  entropy T*S    EENTRO =        -0.00000000
  eigenvalues    EBANDS =      -457.99657546
  atomic energy  EATOM  =      1019.92323204
  ---------------------------------------------------
  free energy    TOTEN  =       -62.17195450 eV

  energy without entropy =      -62.17195450  energy(sigma->0) =      -62.17195450


--------------------------------------------------------------------------------------------------------




--------------------------------------- Iteration      1(   6)  ---------------------------------------


    POTLOK:  cpu time      0.6171: real time      0.6176
    SETDIJ:  cpu time      0.0027: real time      0.0027
    TRIAL :  cpu time      0.3941: real time      0.3953
    CORREC:  cpu time      0.9041: real time      0.9049
    CHARGE:  cpu time      0.1700: real time      0.1704
    --------------------------------------------
      LOOP:  cpu time      2.1025: real time      2.1209

 eigenvalue-minimisations  :     0
 total energy-change (2. order) : 0.1020739E+02  (-0.4149150E+01)
 number of electron      26.0000000 magnetization 
 augmentation part       -0.0538926 magnetization 

 Free energy of the ion-electron system (eV)
  ---------------------------------------------------
  alpha Z        PSCENC =         0.19661355
  Ewald energy   TEWEN  =      1675.60574849
  -Hartree energ DENC   =     -2610.58287834
  -exchange      EXHF   =         0.00000000
  -V(xc)+E(xc)   XCENC  =        71.93949836
  PAW double counting   =      9711.28447010    -9692.16687264
  entropy T*S    EENTRO =        -0.00000000
  eigenvalues    EBANDS =      -228.16437164
  atomic energy  EATOM  =      1019.92323204
  ---------------------------------------------------
  free energy    TOTEN  =       -51.96456010 eV

  energy without entropy =      -51.96456010  energy(sigma->0) =      -51.96456010


--------------------------------------------------------------------------------------------------------




--------------------------------------- Iteration      1(   7)  ---------------------------------------


    POTLOK:  cpu time      0.6154: real time      0.6155
    SETDIJ:  cpu time      0.0025: real time      0.0025
    TRIAL :  cpu time      0.3814: real time      0.3819
    CORREC:  cpu time      0.8990: real time      0.8993
    CHARGE:  cpu time      0.1711: real time      0.1715
    --------------------------------------------
      LOOP:  cpu time      2.0832: real time      2.1014

 eigenvalue-minimisations  :     0
 total energy-change (2. order) :-0.4197652E+01  (-0.4284467E+00)
 number of electron      26.0000000 magnetization 
 augmentation part       -0.0651630 magnetization 

 Free energy of the ion-electron system (eV)
  ---------------------------------------------------
  alpha Z        PSCENC =         0.19661355
  Ewald energy   TEWEN  =      1675.60574849
  -Hartree energ DENC   =     -2508.66720888
  -exchange      EXHF   =         0.00000000
  -V(xc)+E(xc)   XCENC  =        68.35072202
  PAW double counting   =     11869.03522584   -11849.58061217
  entropy T*S    EENTRO =        -0.00000000
  eigenvalues    EBANDS =      -331.02593257
  atomic energy  EATOM  =      1019.92323204
  ---------------------------------------------------
  free energy    TOTEN  =       -56.16221168 eV

  energy without entropy =      -56.16221168  energy(sigma->0) =      -56.16221168


--------------------------------------------------------------------------------------------------------




--------------------------------------- Iteration      1(   8)  ---------------------------------------


    POTLOK:  cpu time      0.6176: real time      0.6177
    SETDIJ:  cpu time      0.0008: real time      0.0008
    TRIAL :  cpu time      0.3812: real time      0.3816
    CORREC:  cpu time      0.8955: real time      0.8963
    CHARGE:  cpu time      0.1693: real time      0.1694
    --------------------------------------------
      LOOP:  cpu time      2.0785: real time      2.0971

 eigenvalue-minimisations  :     0
 total energy-change (2. order) :-0.4298414E+00  (-0.1721066E+00)
 number of electron      26.0000000 magnetization 
 augmentation part       -0.0669691 magnetization 

 Free energy of the ion-electron system (eV)
  ---------------------------------------------------
  alpha Z        PSCENC =         0.19661355
  Ewald energy   TEWEN  =      1675.60574849
  -Hartree energ DENC   =     -2507.67605423
  -exchange      EXHF   =         0.00000000
  -V(xc)+E(xc)   XCENC  =        68.35264746
  PAW double counting   =     12399.65095813   -12380.15466646
  entropy T*S    EENTRO =        -0.00000000
  eigenvalues    EBANDS =      -332.49053209
  atomic energy  EATOM  =      1019.92323204
  ---------------------------------------------------
  free energy    TOTEN  =       -56.59205312 eV

  energy without entropy =      -56.59205312  energy(sigma->0) =      -56.59205312


--------------------------------------------------------------------------------------------------------




--------------------------------------- Iteration      1(   9)  ---------------------------------------


    POTLOK:  cpu time      0.6155: real time      0.6157
    SETDIJ:  cpu time      0.0016: real time      0.0016
    TRIAL :  cpu time      0.3799: real time      0.3803
    CORREC:  cpu time      0.8971: real time      0.8978
    CHARGE:  cpu time      0.1693: real time      0.1694
    --------------------------------------------
      LOOP:  cpu time      2.0786: real time      2.0960

 eigenvalue-minimisations  :     0
 total energy-change (2. order) :-0.1708603E+00  (-0.7871434E-01)
 number of electron      26.0000000 magnetization 
 augmentation part       -0.0674781 magnetization 

 Free energy of the ion-electron system (eV)
  ---------------------------------------------------
  alpha Z        PSCENC =         0.19661355
  Ewald energy   TEWEN  =      1675.60574849
  -Hartree energ DENC   =     -2504.85686553
  -exchange      EXHF   =         0.00000000
  -V(xc)+E(xc)   XCENC  =        68.25036650
  PAW double counting   =     12612.04983074   -12592.53003940
  entropy T*S    EENTRO =        -0.00000000
  eigenvalues    EBANDS =      -335.40179977
  atomic energy  EATOM  =      1019.92323204
  ---------------------------------------------------
  free energy    TOTEN  =       -56.76291340 eV

  energy without entropy =      -56.76291340  energy(sigma->0) =      -56.76291340


--------------------------------------------------------------------------------------------------------




--------------------------------------- Iteration      1(  10)  ---------------------------------------


    POTLOK:  cpu time      0.6153: real time      0.6154
    SETDIJ:  cpu time      0.0011: real time      0.0011
    TRIAL :  cpu time      0.3803: real time      0.3810
    CORREC:  cpu time      0.8971: real time      0.8976
    CHARGE:  cpu time      0.1699: real time      0.1700
    --------------------------------------------
      LOOP:  cpu time      2.0799: real time      2.0958

 eigenvalue-minimisations  :     0
 total energy-change (2. order) :-0.7745878E-01  (-0.2633186E-01)
 number of electron      26.0000000 magnetization 
 augmentation part       -0.0674638 magnetization 

 Free energy of the ion-electron system (eV)
  ---------------------------------------------------
  alpha Z        PSCENC =         0.19661355
  Ewald energy   TEWEN  =      1675.60574849
  -Hartree energ DENC   =     -2502.14416382
  -exchange      EXHF   =         0.00000000
  -V(xc)+E(xc)   XCENC  =        68.16045781
  PAW double counting   =     12471.34338058   -12451.81846651
  entropy T*S    EENTRO =        -0.00000000
  eigenvalues    EBANDS =      -338.10717432
  atomic energy  EATOM  =      1019.92323204
  ---------------------------------------------------
  free energy    TOTEN  =       -56.84037218 eV

  energy without entropy =      -56.84037218  energy(sigma->0) =      -56.84037218


--------------------------------------------------------------------------------------------------------




--------------------------------------- Iteration      1(  11)  ---------------------------------------


    POTLOK:  cpu time      0.6121: real time      0.6125
    SETDIJ:  cpu time      0.0007: real time      0.0007
    TRIAL :  cpu time      0.3827: real time      0.3828
    CORREC:  cpu time      0.8914: real time      0.8923
    CHARGE:  cpu time      0.1707: real time      0.1708
    --------------------------------------------
      LOOP:  cpu time      2.0719: real time      2.0892

 eigenvalue-minimisations  :     0
 total energy-change (2. order) :-0.2617660E-01  (-0.7542176E-02)
 number of electron      26.0000000 magnetization 
 augmentation part       -0.0670347 magnetization 

 Free energy of the ion-electron system (eV)
  ---------------------------------------------------
  alpha Z        PSCENC =         0.19661355
  Ewald energy   TEWEN  =      1675.60574849
  -Hartree energ DENC   =     -2501.94829638
  -exchange      EXHF   =         0.00000000
  -V(xc)+E(xc)   XCENC  =        68.16067363
  PAW double counting   =     12268.76150378   -12249.24404359
  entropy T*S    EENTRO =        -0.00000000
  eigenvalues    EBANDS =      -338.32198029
  atomic energy  EATOM  =      1019.92323204
  ---------------------------------------------------
  free energy    TOTEN  =       -56.86654878 eV

  energy without entropy =      -56.86654878  energy(sigma->0) =      -56.86654878


--------------------------------------------------------------------------------------------------------




--------------------------------------- Iteration      1(  12)  ---------------------------------------


    POTLOK:  cpu time      0.6097: real time      0.6102
    SETDIJ:  cpu time      0.0030: real time      0.0030
    TRIAL :  cpu time      0.3817: real time      0.3818
    CORREC:  cpu time      0.8911: real time      0.8916
    CHARGE:  cpu time      0.1707: real time      0.1708
    --------------------------------------------
      LOOP:  cpu time      2.0719: real time      2.0884

 eigenvalue-minimisations  :     0
 total energy-change (2. order) :-0.7532009E-02  (-0.2238266E-02)
 number of electron      26.0000000 magnetization 
 augmentation part       -0.0667656 magnetization 

 Free energy of the ion-electron system (eV)
  ---------------------------------------------------
  alpha Z        PSCENC =         0.19661355
  Ewald energy   TEWEN  =      1675.60574849
  -Hartree energ DENC   =     -2501.68033344
  -exchange      EXHF   =         0.00000000
  -V(xc)+E(xc)   XCENC  =        68.14975706
  PAW double counting   =     12191.51986772   -12172.00670898
  entropy T*S    EENTRO =        -0.00000000
  eigenvalues    EBANDS =      -338.58225723
  atomic energy  EATOM  =      1019.92323204
  ---------------------------------------------------
  free energy    TOTEN  =       -56.87408079 eV

  energy without entropy =      -56.87408079  energy(sigma->0) =      -56.87408079


--------------------------------------------------------------------------------------------------------




--------------------------------------- Iteration      1(  13)  ---------------------------------------


    POTLOK:  cpu time      0.6089: real time      0.6094
    SETDIJ:  cpu time      0.0006: real time      0.0006
    TRIAL :  cpu time      0.3813: real time      0.3814
    CORREC:  cpu time      0.8860: real time      0.8866
    CHARGE:  cpu time      0.1700: real time      0.1701
    --------------------------------------------
      LOOP:  cpu time      2.0596: real time      2.0793

 eigenvalue-minimisations  :     0
 total energy-change (2. order) :-0.2239499E-02  (-0.6945960E-03)
 number of electron      26.0000000 magnetization 
 augmentation part       -0.0666226 magnetization 

 Free energy of the ion-electron system (eV)
  ---------------------------------------------------
  alpha Z        PSCENC =         0.19661355
  Ewald energy   TEWEN  =      1675.60574849
  -Hartree energ DENC   =     -2501.44061505
  -exchange      EXHF   =         0.00000000
  -V(xc)+E(xc)   XCENC  =        68.13862915
  PAW double counting   =     12188.13644275   -12168.62451578
  entropy T*S    EENTRO =        -0.00000000
  eigenvalues    EBANDS =      -338.81185542
  atomic energy  EATOM  =      1019.92323204
  ---------------------------------------------------
  free energy    TOTEN  =       -56.87632029 eV

  energy without entropy =      -56.87632029  energy(sigma->0) =      -56.87632029


--------------------------------------------------------------------------------------------------------




--------------------------------------- Iteration      1(  14)  ---------------------------------------


    POTLOK:  cpu time      0.6001: real time      0.6005
    SETDIJ:  cpu time      0.0043: real time      0.0043
    TRIAL :  cpu time      0.3863: real time      0.3864
    CORREC:  cpu time      0.8770: real time      0.8778
    CHARGE:  cpu time      0.1700: real time      0.1701
    --------------------------------------------
      LOOP:  cpu time      2.0535: real time      2.0711

 eigenvalue-minimisations  :     0
 total energy-change (2. order) :-0.6955499E-03  (-0.2390635E-03)
 number of electron      26.0000000 magnetization 
 augmentation part       -0.0665579 magnetization 

 Free energy of the ion-electron system (eV)
  ---------------------------------------------------
  alpha Z        PSCENC =         0.19661355
  Ewald energy   TEWEN  =      1675.60574849
  -Hartree energ DENC   =     -2501.58187142
  -exchange      EXHF   =         0.00000000
  -V(xc)+E(xc)   XCENC  =        68.14252816
  PAW double counting   =     12202.57083331   -12183.05958183
  entropy T*S    EENTRO =        -0.00000000
  eigenvalues    EBANDS =      -338.67451814
  atomic energy  EATOM  =      1019.92323204
  ---------------------------------------------------
  free energy    TOTEN  =       -56.87701584 eV

  energy without entropy =      -56.87701584  energy(sigma->0) =      -56.87701584


--------------------------------------------------------------------------------------------------------




--------------------------------------- Iteration      1(  15)  ---------------------------------------


    POTLOK:  cpu time      0.5935: real time      0.5940
    SETDIJ:  cpu time      0.0009: real time      0.0009
    TRIAL :  cpu time      0.3815: real time      0.3816
    CORREC:  cpu time      0.8678: real time      0.8685
    CHARGE:  cpu time      0.1700: real time      0.1701
    --------------------------------------------
      LOOP:  cpu time      2.0264: real time      2.0456

 eigenvalue-minimisations  :     0
 total energy-change (2. order) :-0.2395839E-03  (-0.9400468E-04)
 number of electron      26.0000000 magnetization 
 augmentation part       -0.0665219 magnetization 

 Free energy of the ion-electron system (eV)
  ---------------------------------------------------
  alpha Z        PSCENC =         0.19661355
  Ewald energy   TEWEN  =      1675.60574849
  -Hartree energ DENC   =     -2501.66444349
  -exchange      EXHF   =         0.00000000
  -V(xc)+E(xc)   XCENC  =        68.14486259
  PAW double counting   =     12215.28182531   -12195.77054226
  entropy T*S    EENTRO =        -0.00000000
  eigenvalues    EBANDS =      -338.59455164
  atomic energy  EATOM  =      1019.92323204
  ---------------------------------------------------
  free energy    TOTEN  =       -56.87725542 eV

  energy without entropy =      -56.87725542  energy(sigma->0) =      -56.87725542


--------------------------------------------------------------------------------------------------------




--------------------------------------- Iteration      1(  16)  ---------------------------------------


    POTLOK:  cpu time      0.5882: real time      0.5889
    SETDIJ:  cpu time      0.0011: real time      0.0011
    TRIAL :  cpu time      0.3816: real time      0.3816
    CORREC:  cpu time      0.8688: real time      0.8693
    CHARGE:  cpu time      0.1693: real time      0.1694
    --------------------------------------------
      LOOP:  cpu time      2.0263: real time      2.0407

 eigenvalue-minimisations  :     0
 total energy-change (2. order) :-0.9440182E-04  (-0.3552518E-04)
 number of electron      26.0000000 magnetization 
 augmentation part       -0.0664874 magnetization 

 Free energy of the ion-electron system (eV)
  ---------------------------------------------------
  alpha Z        PSCENC =         0.19661355
  Ewald energy   TEWEN  =      1675.60574849
  -Hartree energ DENC   =     -2501.68636378
  -exchange      EXHF   =         0.00000000
  -V(xc)+E(xc)   XCENC  =        68.14523890
  PAW double counting   =     12219.94790663   -12200.43639038
  entropy T*S    EENTRO =        -0.00000000
  eigenvalues    EBANDS =      -338.57333526
  atomic energy  EATOM  =      1019.92323204
  ---------------------------------------------------
  free energy    TOTEN  =       -56.87734982 eV

  energy without entropy =      -56.87734982  energy(sigma->0) =      -56.87734982


--------------------------------------------------------------------------------------------------------




--------------------------------------- Iteration      1(  17)  ---------------------------------------


    POTLOK:  cpu time      0.5819: real time      0.5823
    SETDIJ:  cpu time      0.0042: real time      0.0042
    TRIAL :  cpu time      0.3811: real time      0.3811
    CORREC:  cpu time      0.8714: real time      0.8720
    CHARGE:  cpu time      0.1703: real time      0.1704
    --------------------------------------------
      LOOP:  cpu time      2.0250: real time      2.0423

 eigenvalue-minimisations  :     0
 total energy-change (2. order) :-0.3573301E-04  (-0.1223727E-04)
 number of electron      26.0000000 magnetization 
 augmentation part       -0.0664724 magnetization 

 Free energy of the ion-electron system (eV)
  ---------------------------------------------------
  alpha Z        PSCENC =         0.19661355
  Ewald energy   TEWEN  =      1675.60574849
  -Hartree energ DENC   =     -2501.74143560
  -exchange      EXHF   =         0.00000000
  -V(xc)+E(xc)   XCENC  =        68.14714637
  PAW double counting   =     12218.41967239   -12198.90816623
  entropy T*S    EENTRO =        -0.00000000
  eigenvalues    EBANDS =      -338.52019656
  atomic energy  EATOM  =      1019.92323204
  ---------------------------------------------------
  free energy    TOTEN  =       -56.87738555 eV

  energy without entropy =      -56.87738555  energy(sigma->0) =      -56.87738555


--------------------------------------------------------------------------------------------------------




--------------------------------------- Iteration      1(  18)  ---------------------------------------


    POTLOK:  cpu time      0.5822: real time      0.5828
    SETDIJ:  cpu time      0.0050: real time      0.0050
    TRIAL :  cpu time      0.3823: real time      0.3824
    CORREC:  cpu time      0.8640: real time      0.8645
    CHARGE:  cpu time      0.1706: real time      0.1707
    --------------------------------------------
      LOOP:  cpu time      2.0346: real time      2.0359

 eigenvalue-minimisations  :     0
 total energy-change (2. order) :-0.1232501E-04  (-0.4363893E-05)
 number of electron      26.0000000 magnetization 
 augmentation part       -0.0664683 magnetization 

 Free energy of the ion-electron system (eV)
  ---------------------------------------------------
  alpha Z        PSCENC =         0.19661355
  Ewald energy   TEWEN  =      1675.60574849
  -Hartree energ DENC   =     -2501.74011046
  -exchange      EXHF   =         0.00000000
  -V(xc)+E(xc)   XCENC  =        68.14722869
  PAW double counting   =     12216.83318810   -12197.32165796
  entropy T*S    EENTRO =        -0.00000000
  eigenvalues    EBANDS =      -338.52164032
  atomic energy  EATOM  =      1019.92323204
  ---------------------------------------------------
  free energy    TOTEN  =       -56.87739788 eV

  energy without entropy =      -56.87739788  energy(sigma->0) =      -56.87739788


--------------------------------------------------------------------------------------------------------




--------------------------------------- Iteration      1(  19)  ---------------------------------------


    POTLOK:  cpu time      0.5828: real time      0.5833
    SETDIJ:  cpu time      0.0019: real time      0.0019
    TRIAL :  cpu time      0.3807: real time      0.3808
    CORREC:  cpu time      0.8644: real time      0.8650
    CHARGE:  cpu time      0.1703: real time      0.1705
    --------------------------------------------
      LOOP:  cpu time      2.0169: real time      2.0324

 eigenvalue-minimisations  :     0
 total energy-change (2. order) :-0.4355745E-05  (-0.1622730E-05)
 number of electron      26.0000000 magnetization 
 augmentation part       -0.0664697 magnetization 

 Free energy of the ion-electron system (eV)
  ---------------------------------------------------
  alpha Z        PSCENC =         0.19661355
  Ewald energy   TEWEN  =      1675.60574849
  -Hartree energ DENC   =     -2501.73934008
  -exchange      EXHF   =         0.00000000
  -V(xc)+E(xc)   XCENC  =        68.14731489
  PAW double counting   =     12216.43582406   -12196.92430422
  entropy T*S    EENTRO =        -0.00000000
  eigenvalues    EBANDS =      -338.52249096
  atomic energy  EATOM  =      1019.92323204
  ---------------------------------------------------
  free energy    TOTEN  =       -56.87740224 eV

  energy without entropy =      -56.87740224  energy(sigma->0) =      -56.87740224


--------------------------------------------------------------------------------------------------------




--------------------------------------- Iteration      1(  20)  ---------------------------------------


    POTLOK:  cpu time      0.5826: real time      0.5827
    SETDIJ:  cpu time      0.0027: real time      0.0027
    TRIAL :  cpu time      0.3820: real time      0.3822
    CORREC:  cpu time      0.8685: real time      0.8693
    CHARGE:  cpu time      0.1698: real time      0.1703
    --------------------------------------------
      LOOP:  cpu time      2.0203: real time      2.0378

 eigenvalue-minimisations  :     0
 total energy-change (2. order) :-0.1577850E-05  (-0.5848396E-06)
 number of electron      26.0000000 magnetization 
 augmentation part       -0.0664729 magnetization 

 Free energy of the ion-electron system (eV)
  ---------------------------------------------------
  alpha Z        PSCENC =         0.19661355
  Ewald energy   TEWEN  =      1675.60574849
  -Hartree energ DENC   =     -2501.73992052
  -exchange      EXHF   =         0.00000000
  -V(xc)+E(xc)   XCENC  =        68.14739370
  PAW double counting   =     12216.73711403   -12197.22561237
  entropy T*S    EENTRO =        -0.00000000
  eigenvalues    EBANDS =      -338.52197273
  atomic energy  EATOM  =      1019.92323204
  ---------------------------------------------------
  free energy    TOTEN  =       -56.87740381 eV

  energy without entropy =      -56.87740381  energy(sigma->0) =      -56.87740381


--------------------------------------------------------------------------------------------------------




--------------------------------------- Iteration      1(  21)  ---------------------------------------


    POTLOK:  cpu time      0.5822: real time      0.5823
    SETDIJ:  cpu time      0.0043: real time      0.0043
    TRIAL :  cpu time      0.3802: real time      0.3805
    CORREC:  cpu time      0.8655: real time      0.8658
    CHARGE:  cpu time      0.1703: real time      0.1707
    --------------------------------------------
      LOOP:  cpu time      2.0312: real time      2.0324

 eigenvalue-minimisations  :     0
 total energy-change (2. order) :-0.5663751E-06  (-0.2285284E-06)
 number of electron      26.0000000 magnetization 
 augmentation part       -0.0664730 magnetization 

 Free energy of the ion-electron system (eV)
  ---------------------------------------------------
  alpha Z        PSCENC =         0.19661355
  Ewald energy   TEWEN  =      1675.60574849
  -Hartree energ DENC   =     -2501.73273007
  -exchange      EXHF   =         0.00000000
  -V(xc)+E(xc)   XCENC  =        68.14714339
  PAW double counting   =     12217.12310373   -12197.61159436
  entropy T*S    EENTRO =        -0.00000000
  eigenvalues    EBANDS =      -338.52892114
  atomic energy  EATOM  =      1019.92323204
  ---------------------------------------------------
  free energy    TOTEN  =       -56.87740438 eV

  energy without entropy =      -56.87740438  energy(sigma->0) =      -56.87740438


--------------------------------------------------------------------------------------------------------




--------------------------------------- Iteration      1(  22)  ---------------------------------------


    POTLOK:  cpu time      0.5820: real time      0.5821
    SETDIJ:  cpu time      0.0041: real time      0.0041
    TRIAL :  cpu time      0.3812: real time      0.3817
    CORREC:  cpu time      0.8671: real time      0.8674
    CHARGE:  cpu time      0.1688: real time      0.1691
    --------------------------------------------
      LOOP:  cpu time      2.0338: real time      2.0351

 eigenvalue-minimisations  :     0
 total energy-change (2. order) :-0.2133020E-06  (-0.6229120E-07)
 number of electron      26.0000000 magnetization 
 augmentation part       -0.0664734 magnetization 

 Free energy of the ion-electron system (eV)
  ---------------------------------------------------
  alpha Z        PSCENC =         0.19661355
  Ewald energy   TEWEN  =      1675.60574849
  -Hartree energ DENC   =     -2501.73544970
  -exchange      EXHF   =         0.00000000
  -V(xc)+E(xc)   XCENC  =        68.14722256
  PAW double counting   =     12217.19730067   -12197.68580470
  entropy T*S    EENTRO =        -0.00000000
  eigenvalues    EBANDS =      -338.52626749
  atomic energy  EATOM  =      1019.92323204
  ---------------------------------------------------
  free energy    TOTEN  =       -56.87740459 eV

  energy without entropy =      -56.87740459  energy(sigma->0) =      -56.87740459


--------------------------------------------------------------------------------------------------------




--------------------------------------- Iteration      1(  23)  ---------------------------------------


    POTLOK:  cpu time      0.5837: real time      0.5838
    SETDIJ:  cpu time      0.0032: real time      0.0032
    TRIAL :  cpu time      0.3809: real time      0.3814
    CORREC:  cpu time      0.8674: real time      0.8677
    EDDIAG:  cpu time      0.1718: real time      0.1726
    CHARGE:  cpu time      0.1700: real time      0.1701
    --------------------------------------------
      LOOP:  cpu time      2.1946: real time      2.2113

 eigenvalue-minimisations  :     0
 total energy-change (2. order) :-0.6262962E-07  (-0.2268529E-07)
 number of electron      26.0000000 magnetization 
 augmentation part       -0.0664732 magnetization 

 Free energy of the ion-electron system (eV)
  ---------------------------------------------------
  alpha Z        PSCENC =         0.19661355
  Ewald energy   TEWEN  =      1675.60574849
  -Hartree energ DENC   =     -2501.73290976
  -exchange      EXHF   =         0.00000000
  -V(xc)+E(xc)   XCENC  =        68.14712162
  PAW double counting   =     12217.17430726   -12197.66280724
  entropy T*S    EENTRO =        -0.00000000
  eigenvalues    EBANDS =      -338.52871061
  atomic energy  EATOM  =      1019.92323204
  ---------------------------------------------------
  free energy    TOTEN  =       -56.87740466 eV

  energy without entropy =      -56.87740466  energy(sigma->0) =      -56.87740466


--------------------------------------------------------------------------------------------------------


  average scaling for gradient   1.1549


 average (electrostatic) potential at core
  the test charge radii are     0.5770  0.4325  0.5902
  (the norm of the test charge is              1.0000)
       1 -87.4839       2 -86.4527       3 -86.9333       4 -48.2338       5 -45.8169
       6 -45.1219       7 -45.8411       8-105.3295       9-102.9988



 E-fermi :  -5.4988     XC(G=0):  -0.1463     alpha+bet : -0.0573

 Fermi energy:        -5.4988276420

 k-point     1 :       0.0000    0.0000    0.0000
  band No.  band energies     occupation 
      1     -25.3787      2.00000
      2     -21.6378      2.00000
      3     -18.3769      2.00000
      4     -15.2148      2.00000
      5     -14.5236      2.00000
      6     -13.8167      2.00000
      7     -10.7118      2.00000
      8     -10.6225      2.00000
      9     -10.5163      2.00000
     10      -9.8140      2.00000
     11      -6.8782      2.00000
     12      -6.1616      2.00000
     13      -5.6113      2.00000
     14      -0.8226      0.00000
     15      -0.4459      0.00000
     16      -0.0835      0.00000
     17       0.0253      0.00000
     18       0.1304      0.00000
     19       0.1797      0.00000
     20       0.3046      0.00000
     21       0.3544      0.00000
     22       0.4231      0.00000
     23       0.4786      0.00000
     24       0.9601      0.00000


--------------------------------------------------------------------------------------------------------


 soft charge-density along one line, spin component           1
         0         1         2         3         4         5         6         7         8         9
 total charge-density along one line

 pseudopotential strength for first ion, spin component:           1
 12.785  21.517   0.011   0.000  -0.003   0.019   0.000  -0.005
 21.517  36.212   0.018   0.000  -0.005   0.032   0.000  -0.008
  0.011   0.018  -3.127  -0.000   0.001  -5.606  -0.000   0.001
  0.000   0.000  -0.000  -3.125   0.000  -0.000  -5.603   0.000
 -0.003  -0.005   0.001   0.000  -3.126   0.001   0.000  -5.604
  0.019   0.032  -5.606  -0.000   0.001 -10.029  -0.000   0.002
  0.000   0.000  -0.000  -5.603   0.000  -0.000 -10.024   0.000
 -0.005  -0.008   0.001   0.000  -5.604   0.002   0.000 -10.026
 total augmentation occupancy for first ion, spin component:           1
  8.698  -3.201   1.166  -0.000   1.059  -0.572   0.000  -0.501
 -3.201   1.238  -0.653   0.000  -0.510   0.299  -0.000   0.245
  1.166  -0.653   7.590   0.002  -0.145  -2.705  -0.001   0.127
 -0.000   0.000   0.002   3.395  -0.001  -0.001  -0.893   0.000
  1.059  -0.510  -0.145  -0.001   8.403   0.127   0.000  -3.018
 -0.572   0.299  -2.705  -0.001   0.127   0.978   0.000  -0.071
  0.000  -0.000  -0.001  -0.893   0.000   0.000   0.246  -0.000
 -0.501   0.245   0.127   0.000  -3.018  -0.071  -0.000   1.106


------------------------ aborting loop because EDIFF is reached ----------------------------------------


    FORLOC:  cpu time      0.0373: real time      0.0373
    FORNL :  cpu time      0.0233: real time      0.0239
    FORCOR:  cpu time      0.5095: real time      0.5097
    OFIELD:  cpu time      0.0067: real time      0.0067

 ---------------------------------------------------------------------------------------------

         DFTD3 V3.0 Rev 1        
 IVDW         = 11
 DF revpbe    
 parameters
 VDW_S6       =    1.0000
 VDW_S8       =    1.0100
 VDW_SR       =    0.9230
 rs18     =    1.0000
 alpha6   =   14.0000
 alpha8   =   16.0000
 k1-k3    =   16.0000    1.3333   -4.0000
 VDW_RADIUS   =   50.2022 A
 VDW_CNRADIUS =   21.1671 A
 Edisp (eV)   -0.13869

 E6    (eV) :    -0.1006
 E8    (eV) :    -0.0381
 % E8        : 27.45
    FORVDW:  cpu time      0.0728: real time      0.0757

 VOLUME and BASIS-vectors are now :
 -----------------------------------------------------------------------------
  energy-cutoff  :     1000.00
  volume of cell :    10648.00
      direct lattice vectors                 reciprocal lattice vectors
    22.000000000  0.000000000  0.000000000     0.045454545  0.000000000  0.000000000
     0.000000000 22.000000000  0.000000000     0.000000000  0.045454545  0.000000000
     0.000000000  0.000000000 22.000000000     0.000000000  0.000000000  0.045454545

  length of vectors
    22.000000000 22.000000000 22.000000000     0.045454545  0.045454545  0.045454545


 FORCES acting on ions:
    Electron-Ion                     Ewald-Force                    Non-Local-Force
 -----------------------------------------------------------------------------------------------
   0.134E+03 0.188E+03 -.346E-01   -.132E+03 -.194E+03 0.249E-01   -.232E+01 0.632E+01 0.113E-01
   -.207E+03 -.798E+02 0.108E+00   0.208E+03 0.833E+02 -.116E+00   -.923E+00 -.362E+01 0.899E-02
   -.162E+02 -.223E+03 0.233E-01   0.250E+02 0.226E+03 -.335E-01   -.922E+01 -.310E+01 0.106E-01
   0.957E+02 -.279E+02 0.976E-01   -.103E+03 0.300E+02 -.107E+00   0.726E+01 -.209E+01 0.107E-01
   0.480E+02 0.678E+02 0.300E-01   -.516E+02 -.727E+02 -.316E-01   0.351E+01 0.486E+01 0.315E-02
   -.779E+02 -.226E+02 0.245E-01   0.837E+02 0.242E+02 -.263E-01   -.574E+01 -.151E+01 0.147E-02
   0.377E+01 -.811E+02 0.461E-01   -.428E+01 0.871E+02 -.490E-01   0.482E+00 -.592E+01 0.423E-02
   0.237E+03 -.758E+02 -.329E+00   -.237E+03 0.751E+02 0.382E+00   -.130E+00 0.794E+00 -.583E-01
   -.187E+03 0.229E+03 0.326E-01   0.211E+03 -.259E+03 -.435E-01   -.236E+02 0.294E+02 0.948E-02
 -----------------------------------------------------------------------------------------------
   0.307E+02 -.251E+02 -.172E-02   -.284E-13 0.000E+00 0.416E-16   -.307E+02 0.251E+02 0.164E-02


 POSITION                                       TOTAL-FORCE (eV/Angst)
 -----------------------------------------------------------------------------------
     10.34888      9.82965     11.00015        -0.109627     -0.030462      0.001290
     12.05692     11.13123     10.99944         0.161842     -0.047559      0.001267
     10.96063     11.95891     10.99986        -0.104891      0.201358      0.000223
      8.89782     11.39232     10.99941        -0.040081      0.021451      0.001284
      9.69611      8.96604     10.99965        -0.090262     -0.103860      0.001520
     13.10218     11.41135     10.99915         0.130935      0.042239     -0.000338
     10.85327     13.03396     10.99915        -0.024286      0.133641      0.001259
      9.87033     11.11221     11.00085        -0.214680      0.070067     -0.005008
     11.66706      9.80855     10.99976         0.291050     -0.286875     -0.001497
 -----------------------------------------------------------------------------------
    total drift:                                0.000390      0.000315     -0.000081


--------------------------------------------------------------------------------------------------------



  FREE ENERGIE OF THE ION-ELECTRON SYSTEM (eV)
  ---------------------------------------------------
  free  energy   TOTEN  =       -57.01609240 eV

  energy  without entropy=      -57.01609240  energy(sigma->0) =      -57.01609240



--------------------------------------------------------------------------------------------------------


    POTLOK:  cpu time      0.6007: real time      0.6010


--------------------------------------------------------------------------------------------------------


 stress matrix after NEB project (eV)
      0.08367     -0.00207     -0.00005
     -0.00207      0.09713      0.00001
     -0.00005      0.00001     -0.00004
  FORCES: max atom, RMS     0.408668    0.202585
  FORCE total and by dimension    0.607756    0.291050
  Stress total and by dimension    0.128232    0.097134
     LOOP+:  cpu time     43.0520: real time     43.3881
    4ORBIT:  cpu time      0.0000: real time      0.0000

 total amount of memory used by VASP MPI-rank0   108656. kBytes
=======================================================================

   base      :      30000. kBytes
   nonl-proj :       4010. kBytes
   fftplans  :      24880. kBytes
   grid      :      48046. kBytes
   one-center:          1. kBytes
   wavefun   :       1719. kBytes

  
  
 General timing and accounting informations for this job:
 ========================================================
  
                  Total CPU time used (sec):       72.330
                            User time (sec):       68.442
                          System time (sec):        3.888
                         Elapsed time (sec):       79.826
  
                   Maximum memory used (kb):      292664.
                   Average memory used (kb):          N/A
  
                          Minor page faults:       166688
                          Major page faults:          628
                 Voluntary context switches:         7102
