 vasp.6.4.1 05Apr23 (build Jun  6 2023 14:36:51) complex                         
 executed on        HPECrayEX_GCC date 2024.08.20  16:53:08
 running  128 mpi-ranks, with    1 threads/rank, on    1 nodes
 distrk:  each k-point on  128 cores,    1 groups
 distr:  one band on NCORE=  32 cores,    4 groups


--------------------------------------------------------------------------------------------------------


 INCAR:
   ALGO = Conjugate
   NPAR = 4
   ISMEAR = 0
   SIGMA = 0.01
   PREC = Accurate
   EDIFF = 1E-7
   ENCUT = 1000
   ISIF = 0
   GGA = RE
   LUSE_VDW = .TRUE.
   AGGAC = 0.0000
   LASPH = .TRUE.
   LWAVE = .FALSE.
   LCHARGE = .FALSE.

 POTCAR:    PAW_PBE C_h 06Feb2004                 
 POTCAR:    PAW_PBE O_h 06Feb2004                 
 -----------------------------------------------------------------------------
|                                                                             |
|               ----> ADVICE to this user running VASP <----                  |
|                                                                             |
|     You have switched on vdW-DFT.                                           |
|     This routine was written and supplied by Jiri Klimes. We recommend      |
|     that you carefully read and cite the following publications:            |
|       J. Klimes, D.R. Bowler, A. Michelides                                 |
|          J. Phys.: Cond Matt. 22 022201 (2010)                              |
|       J. Klimes, D.R. Bowler, A. Michelides                                 |
|          Phys. Rev. B. 83, 195131 (2011)                                    |
|     and references therein.                                                 |
|                                                                             |
 -----------------------------------------------------------------------------

 POTCAR:    PAW_PBE C_h 06Feb2004                 
   VRHFIN =C: s2p2                                                                                  
   LEXCH  = PE                                                                                      
   EATOM  =   147.1560 eV,   10.8157 Ry                                                             
                                                                                                    
   TITEL  = PAW_PBE C_h 06Feb2004                                                                   
   LULTRA =        F    use ultrasoft PP ?                                                          
   IUNSCR =        1    unscreen: 0-lin 1-nonlin 2-no                                               
   RPACOR =    0.800    partial core radius                                                         
   POMASS =   12.011; ZVAL   =    4.000    mass and valenz                                          
   RCORE  =    1.100    outmost cutoff radius                                                       
   RWIGS  =    1.630; RWIGS  =    0.863    wigner-seitz radius (au A)                               
   ENMAX  =  700.000; ENMIN  =  500.000 eV                                                          
   ICORE  =        2    local potential                                                             
   LCOR   =        T    correct aug charges                                                         
   LPAW   =        T    paw PP                                                                      
   EAUG   =  946.768                                                                                
   DEXC   =    0.000                                                                                
   RMAX   =    1.128    core radius for proj-oper                                                   
   RAUG   =    1.300    factor for augmentation sphere                                              
   RDEP   =    1.162    radius for radial grids                                                     
   RDEPT  =    1.088    core radius for aug-charge                                                  
                                                                                                    
   Atomic configuration                                                                             
    4 entries                                                                                       
     n  l   j            E        occ.                                                              
     1  0  0.50      -273.3789   2.0000                                                             
     2  0  0.50       -13.7508   2.0000                                                             
     2  1  0.50        -5.2854   2.0000                                                             
     3  2  1.50        -5.4423   0.0000                                                             
   Description                                                                                      
     l       E           TYP  RCUT    TYP  RCUT                                                     
     0    -13.7508458     23  1.100                                                                 
     0     -8.2022199     23  1.100                                                                 
     1     -5.2854383     23  1.100                                                                 
     1      1.1560700     23  1.100                                                                 
     2     -5.4423304      7  1.100                                                                 
  local pseudopotential read in
  partial core-charges read in
  partial kinetic energy density read in
  atomic valenz-charges read in
  non local Contribution for L=           0  read in
    real space projection operators read in
  non local Contribution for L=           0  read in
    real space projection operators read in
  non local Contribution for L=           1  read in
    real space projection operators read in
  non local Contribution for L=           1  read in
    real space projection operators read in
    PAW grid and wavefunctions read in

   number of l-projection  operators is LMAX  =           4
   number of lm-projection operators is LMMAX =           8

 POTCAR:    PAW_PBE O_h 06Feb2004                 
   VRHFIN =O: s2p4                                                                                  
   LEXCH  = PE                                                                                      
   EATOM  =   432.3788 eV,   31.7789 Ry                                                             
                                                                                                    
   TITEL  = PAW_PBE O_h 06Feb2004                                                                   
   LULTRA =        F    use ultrasoft PP ?                                                          
   IUNSCR =        1    unscreen: 0-lin 1-nonlin 2-no                                               
   RPACOR =    0.800    partial core radius                                                         
   POMASS =   16.000; ZVAL   =    6.000    mass and valenz                                          
   RCORE  =    1.100    outmost cutoff radius                                                       
   RWIGS  =    1.400; RWIGS  =    0.741    wigner-seitz radius (au A)                               
   ENMAX  =  700.000; ENMIN  =  500.000 eV                                                          
   ICORE  =        2    local potential                                                             
   LCOR   =        T    correct aug charges                                                         
   LPAW   =        T    paw PP                                                                      
   EAUG   =  888.804                                                                                
   DEXC   =    0.000                                                                                
   RMAX   =    1.128    core radius for proj-oper                                                   
   RAUG   =    1.300    factor for augmentation sphere                                              
   RDEP   =    1.125    radius for radial grids                                                     
   RDEPT  =    1.088    core radius for aug-charge                                                  
                                                                                                    
   Atomic configuration                                                                             
    4 entries                                                                                       
     n  l   j            E        occ.                                                              
     1  0  0.50      -514.6923   2.0000                                                             
     2  0  0.50       -23.9615   2.0000                                                             
     2  1  0.50        -9.0305   4.0000                                                             
     3  2  1.50        -9.5241   0.0000                                                             
   Description                                                                                      
     l       E           TYP  RCUT    TYP  RCUT                                                     
     0    -23.9615319     23  1.100                                                                 
     0    -25.3221145     23  1.100                                                                 
     1     -9.0304911     23  1.100                                                                 
     1     -5.4802209     23  1.100                                                                 
     2     -9.5240782      7  1.100                                                                 
  local pseudopotential read in
  partial core-charges read in
  partial kinetic energy density read in
  atomic valenz-charges read in
  non local Contribution for L=           0  read in
    real space projection operators read in
  non local Contribution for L=           0  read in
    real space projection operators read in
  non local Contribution for L=           1  read in
    real space projection operators read in
  non local Contribution for L=           1  read in
    real space projection operators read in
    PAW grid and wavefunctions read in

   number of l-projection  operators is LMAX  =           4
   number of lm-projection operators is LMMAX =           8

 -----------------------------------------------------------------------------
|                                                                             |
|               ----> ADVICE to this user running VASP <----                  |
|                                                                             |
|     You enforced a specific xc type in the INCAR file but a different       |
|     type was found in the POTCAR file.                                      |
|     I HOPE YOU KNOW WHAT YOU ARE DOING!                                     |
|                                                                             |
 -----------------------------------------------------------------------------

  PAW_PBE C_h 06Feb2004                 :
 energy of atom  1       EATOM= -147.1560
 kinetic energy error for atom=    0.0031 (will be added to EATOM!!)
  PAW_PBE O_h 06Feb2004                 :
 energy of atom  2       EATOM= -432.3788
 kinetic energy error for atom=    0.0171 (will be added to EATOM!!)


 POSCAR:  C  O
  positions in cartesian coordinates
  No initial velocities read in
 exchange correlation table for  LEXCH =       40
   RHO(1)=    0.500       N(1)  =     2000
   RHO(2)=  100.500       N(2)  =     4000

 VTST: version 4.1, (05/19/21)

 CHAIN: initializing optimizer
 
 OPT: Using VASP Dynamics algorithm
 CHAIN: Read ICHAIN            0

 POSCAR:  C  O
  positions in cartesian coordinates
  No initial velocities read in



--------------------------------------------------------------------------------------------------------


 ion  position               nearest neighbor table
   1  0.060  0.060  0.060-   5 1.17   6 1.17
   2  0.560  0.060  0.560-   8 1.17   7 1.17
   3  0.060  0.560  0.560-  10 1.17   9 1.17
   4  0.560  0.560  0.060-  12 1.17  11 1.17
   5  0.180  0.180  0.180-   1 1.17
   6  0.940  0.940  0.940-   1 1.17
   7  0.440  0.940  0.680-   2 1.17
   8  0.680  0.180  0.440-   2 1.17
   9  0.940  0.680  0.440-   3 1.17
  10  0.180  0.440  0.680-   3 1.17
  11  0.680  0.440  0.940-   4 1.17
  12  0.440  0.680  0.180-   4 1.17

  LATTYP: Found a simple cubic cell.
 ALAT       =     5.6240000000
  
  Lattice vectors:
  
 A1 = (   5.6240000000,   0.0000000000,   0.0000000000)
 A2 = (   0.0000000000,   5.6240000000,   0.0000000000)
 A3 = (   0.0000000000,   0.0000000000,   5.6240000000)


Analysis of symmetry for initial positions (statically):
=====================================================================
 Subroutine PRICEL returns:
 Original cell was already a primitive cell.
 

 Routine SETGRP: Setting up the symmetry group for a 
 simple cubic supercell.


 Subroutine GETGRP returns: Found 24 space group operations
 (whereof  3 operations were pure point group operations)
 out of a pool of 48 trial point group operations.


The static configuration has the point symmetry C_3 .
 The point group associated with its full space group is T_h .


Analysis of symmetry for dynamics (positions and initial velocities):
=====================================================================
 Subroutine PRICEL returns:
 Original cell was already a primitive cell.
 

 Routine SETGRP: Setting up the symmetry group for a 
 simple cubic supercell.


 Subroutine GETGRP returns: Found 24 space group operations
 (whereof  3 operations were pure point group operations)
 out of a pool of 48 trial point group operations.


The dynamic configuration has the point symmetry C_3 .
 The point group associated with its full space group is T_h .


 Subroutine INISYM returns: Found 24 space group operations
 (whereof  3 operations are pure point group operations),
 and found     1 'primitive' translations


----------------------------------------------------------------------------------------

                                     Primitive cell                                     

  volume of cell :     177.8836

  direct lattice vectors                    reciprocal lattice vectors
     5.624000000  0.000000000  0.000000000     0.177809388  0.000000000  0.000000000
     0.000000000  5.624000000  0.000000000     0.000000000  0.177809388  0.000000000
     0.000000000  0.000000000  5.624000000     0.000000000  0.000000000  0.177809388

  length of vectors
     5.624000000  5.624000000  5.624000000     0.177809388  0.177809388  0.177809388

  position of ions in fractional coordinates (direct lattice)
     0.059987786  0.059987776  0.059987775
     0.559987778  0.059987768  0.559987763
     0.059987778  0.559987765  0.559987768
     0.559987773  0.559987770  0.059987770
     0.179963330  0.179963313  0.179963318
     0.940012222  0.940012223  0.940012218
     0.440012229  0.940012232  0.679963321
     0.679963320  0.179963309  0.440012217
     0.940012202  0.679963342  0.440012187
     0.179963354  0.440012195  0.679963346
     0.679963307  0.440012225  0.940012230
     0.440012246  0.679963308  0.179963311

  ion indices of the primitive-cell ions
   primitive index   ion index
                 1           1
                 2           2
                 3           3
                 4           4
                 5           5
                 6           6
                 7           7
                 8           8
                 9           9
                10          10
                11          11
                12          12

----------------------------------------------------------------------------------------



 KPOINTS: auto                                    

Automatic generation of k-mesh.
 Grid dimensions read from file:
 generate k-points for:    5    5    5

 Generating k-lattice:

  Cartesian coordinates                     Fractional coordinates (reciprocal lattice)
     0.035561878  0.000000000  0.000000000     0.200000000  0.000000000  0.000000000
     0.000000000  0.035561878  0.000000000     0.000000000  0.200000000  0.000000000
     0.000000000  0.000000000  0.035561878     0.000000000  0.000000000  0.200000000

  Length of vectors
     0.035561878  0.035561878  0.035561878

  Shift w.r.t. Gamma in fractional coordinates (k-lattice)
     0.000000000  0.000000000  0.000000000

 
 Subroutine IBZKPT returns following result:
 ===========================================
 
 Found     11 irreducible k-points:
 
 Following reciprocal coordinates:
            Coordinates               Weight
  0.000000  0.000000  0.000000      1.000000
  0.200000  0.000000  0.000000      6.000000
  0.400000  0.000000  0.000000      6.000000
  0.200000  0.200000  0.000000     12.000000
  0.400000  0.200000  0.000000     12.000000
 -0.200000  0.400000  0.000000     12.000000
  0.400000  0.400000  0.000000     12.000000
  0.200000  0.200000  0.200000      8.000000
  0.400000  0.200000  0.200000     24.000000
  0.400000  0.400000  0.200000     24.000000
  0.400000  0.400000  0.400000      8.000000
 
 Following cartesian coordinates:
            Coordinates               Weight
  0.000000  0.000000  0.000000      1.000000
  0.035562  0.000000  0.000000      6.000000
  0.071124  0.000000  0.000000      6.000000
  0.035562  0.035562  0.000000     12.000000
  0.071124  0.035562  0.000000     12.000000
 -0.035562  0.071124  0.000000     12.000000
  0.071124  0.071124  0.000000     12.000000
  0.035562  0.035562  0.035562      8.000000
  0.071124  0.035562  0.035562     24.000000
  0.071124  0.071124  0.035562     24.000000
  0.071124  0.071124  0.071124      8.000000
 


--------------------------------------------------------------------------------------------------------




 Dimension of arrays:
   k-points           NKPTS =     11   k-points in BZ     NKDIM =     11   number of bands    NBANDS=     40
   number of dos      NEDOS =    301   number of ions     NIONS =     12
   non local maximal  LDIM  =      4   non local SUM 2l+1 LMDIM =      8
   total plane-waves  NPLWV = 216000
   max r-space proj   IRMAX =      1   max aug-charges    IRDMAX=   9054
   dimension x,y,z NGX =    60 NGY =   60 NGZ =   60
   dimension x,y,z NGXF=   120 NGYF=  120 NGZF=  120
   support grid    NGXF=   120 NGYF=  120 NGZF=  120
   ions per type =               4   8
   NGX,Y,Z   is equivalent  to a cutoff of  17.74, 17.74, 17.74 a.u.
   NGXF,Y,Z  is equivalent  to a cutoff of  35.47, 35.47, 35.47 a.u.

 SYSTEM =  unknown system                          
 POSCAR =   C  O                                   

 Startparameter for this run:
   NWRITE =      2    write-flag & timer
   PREC   = accura    normal or accurate (medium, high low for compatibility)
   ISTART =      0    job   : 0-new  1-cont  2-samecut
   ICHARG =      2    charge: 1-file 2-atom 10-const
   ISPIN  =      1    spin polarized calculation?
   LNONCOLLINEAR =      F non collinear calculations
   LSORBIT =      F    spin-orbit coupling
   INIWAV =      1    electr: 0-lowe 1-rand  2-diag
   LASPH  =      T    aspherical Exc in radial PAW
 Electronic Relaxation 1
   ENCUT  = 1000.0 eV  73.50 Ry    8.57 a.u.  14.50 14.50 14.50*2*pi/ulx,y,z
   ENINI  = 1000.0     initial cutoff
   ENAUG  =  946.8 eV  augmentation charge cutoff
   NELM   =     60;   NELMIN=  2; NELMDL= -5     # of ELM steps 
   EDIFF  = 0.1E-06   stopping-criterion for ELM
   LREAL  =      F    real-space projection
   NLSPLINE    = F    spline interpolate recip. space projectors
   LCOMPAT=      F    compatible to vasp.4.4
   GGA_COMPAT  = T    GGA compatible to vasp.4.4-vasp.4.6
   LMAXPAW     = -100 max onsite density
   LMAXMIX     =    2 max onsite mixed and CHGCAR
   VOSKOWN=      0    Vosko Wilk Nusair interpolation
   ROPT   =    0.00000   0.00000
 Ionic relaxation
   EDIFFG = 0.1E-05   stopping-criterion for IOM
   NSW    =      0    number of steps for IOM
   NBLOCK =      1;   KBLOCK =      1    inner block; outer block 
   IBRION =     -1    ionic relax: 0-MD 1-quasi-New 2-CG
   NFREE  =      0    steps in history (QN), initial steepest desc. (CG)
   ISIF   =      0    stress and relaxation
   IWAVPR =     10    prediction:  0-non 1-charg 2-wave 3-comb
   ISYM   =      2    0-nonsym 1-usesym 2-fastsym
   LCORR  =      T    Harris-Foulkes like correction to forces

   POTIM  = 0.5000    time-step for ionic-motion
   TEIN   =    0.0    initial temperature
   TEBEG  =    0.0;   TEEND  =   0.0 temperature during run
   SMASS  =  -3.00    Nose mass-parameter (am)
   estimated Nose-frequenzy (Omega)   =  0.10E-29 period in steps = 0.13E+47 mass=  -0.723E-27a.u.
   SCALEE = 1.0000    scale energy and forces
   NPACO  =    256;   APACO  = 10.0  distance and # of slots for P.C.
   PSTRESS=    0.0 pullay stress

  Mass of Ions in am
   POMASS =  12.01 16.00
  Ionic Valenz
   ZVAL   =   4.00  6.00
  Atomic Wigner-Seitz radii
   RWIGS  =  -1.00 -1.00
  virtual crystal weights 
   VCA    =   1.00  1.00
   NELECT =      64.0000    total number of electrons
   NUPDOWN=      -1.0000    fix difference up-down

 DOS related values:
   EMIN   =  10.00;   EMAX   =-10.00  energy-range for DOS
   EFERMI =   0.00;   METHOD = LEGACY      
   ISMEAR =     0;   SIGMA  =   0.01  broadening in eV -4-tet -1-fermi 0-gaus

 Electronic relaxation 2 (details)
   IALGO  =     58    algorithm
   LDIAG  =      T    sub-space diagonalisation (order eigenvalues)
   LSUBROT=      F    optimize rotation matrix (better conditioning)
   TURBO    =      0    0=normal 1=particle mesh
   IRESTART =      0    0=no restart 2=restart with 2 vectors
   NREBOOT  =      0    no. of reboots
   NMIN     =      0    reboot dimension
   EREF     =   0.00    reference energy to select bands
   IMIX   =      4    mixing-type and parameters
     AMIX     =   0.40;   BMIX     =  1.00
     AMIX_MAG =   1.60;   BMIX_MAG =  1.00
     AMIN     =   0.10
     WC   =   100.;   INIMIX=   1;  MIXPRE=   1;  MAXMIX= -45

 Intra band minimization:
   WEIMIN = 0.0000     energy-eigenvalue tresh-hold
   EBREAK =  0.63E-09  absolut break condition
   DEPER  =   0.30     relativ break condition  

   TIME   =   0.40     timestep for ELM

  volume/ion in A,a.u.               =      14.82       100.03
  Fermi-wavevector in a.u.,A,eV,Ry     =   1.164366  2.200333 18.446073  1.355748
  Thomas-Fermi vector in A             =   2.300905

 Write flags
   LWAVE        =      F    write WAVECAR
   LDOWNSAMPLE  =      F    k-point downsampling of WAVECAR
   LCHARG       =      T    write CHGCAR
   LVTOT        =      F    write LOCPOT, total local potential
   LVHAR        =      F    write LOCPOT, Hartree potential only
   LELF         =      F    write electronic localiz. function (ELF)
   LORBIT       =      0    0 simple, 1 ext, 2 COOP (PROOUT), +10 PAW based schemes


 Dipole corrections
   LMONO  =      F    monopole corrections only (constant potential shift)
   LDIPOL =      F    correct potential (dipole corrections)
   IDIPOL =      0    1-x, 2-y, 3-z, 4-all directions 
   EPSILON=  1.0000000 bulk dielectric constant

 Exchange correlation treatment:
   GGA     =    RE    GGA type
   LEXCH   =    40    internal setting for exchange type
   LIBXC   =     F    Libxc                    
   VOSKOWN =     0    Vosko Wilk Nusair interpolation
   LHFCALC =     F    Hartree Fock is set to
   LHFONE  =     F    Hartree Fock one center treatment
   AEXX    =    0.0000 exact exchange contribution

 vdW DFT:
   LUSE_VDW   =     T    switch on vdW DFT
   IVDW_NL    =     1    kernel type
   LSPIN_VDW  =     F    use spin-polarized vdW DFT
   Zab_VDW    =-.8491    correlation parameter
   PARAM1     =0.1234
   PARAM2     =1.0000
   PARAM3     =0.0000
   -- rVV10 --
   BPARAM     = 6.3000
   CPARAM     = 0.0093

 Linear response parameters
   LEPSILON=     F    determine dielectric tensor
   LRPA    =     F    only Hartree local field effects (RPA)
   LNABLA  =     F    use nabla operator in PAW spheres
   LVEL    =     F    velocity operator in full k-point grid
   CSHIFT  =0.1000    complex shift for real part using Kramers Kronig
   OMEGAMAX=  -1.0    maximum frequency
   DEG_THRESHOLD= 0.2000000E-02 threshold for treating states as degnerate
   RTIME   =   -0.100 relaxation time in fs
  (WPLASMAI=    0.000 imaginary part of plasma frequency in eV, 0.658/RTIME)
   DFIELD  = 0.0000000 0.0000000 0.0000000 field for delta impulse in time

  Optional k-point grid parameters
   LKPOINTS_OPT  =     F    use optional k-point grid
   KPOINTS_OPT_MODE=     1    mode for optional k-point grid

 Orbital magnetization related:
   ORBITALMAG=     F  switch on orbital magnetization
   LCHIMAG   =     F  perturbation theory with respect to B field
   DQ        =  0.001000  dq finite difference perturbation B field
   LLRAUG    =     F  two centre corrections for induced B field
   LBONE     =     F  B-component reconstruction in AE one-centre
   LVGVCALC  =     T  calculate vGv susceptibility
   LVGVAPPL  =     F  apply vGv susceptibility instead of pGv for G=0

 Random number generation:
   RANDOM_GENERATOR = DEFAULT
   PCG_SEED         = not used


--------------------------------------------------------------------------------------------------------


 Static calculation
 charge density and potential will be updated during run
 non-spin polarized calculation
 Conjugate gradient for all bands (Freysoldt, et al. PRB 79, 241103 (2009))
 preconditioned conjugated gradient                                        
 perform sub-space diagonalisation
    before iterative eigenvector-optimisation
 modified Broyden-mixing scheme, WC =      100.0
 initial mixing is a Kerker type mixing with AMIX =  0.4000 and BMIX =      1.0000
 Hartree-type preconditioning will be used
 using additional bands            8
 reciprocal scheme for non local part
 use partial core corrections
 no Harris-corrections to forces 
 use gradient corrections 
 use of overlap-Matrix (Vanderbilt PP)
 Gauss-broadening in eV      SIGMA  =   0.01


--------------------------------------------------------------------------------------------------------


  energy-cutoff  :     1000.00
  volume of cell :      177.88
      direct lattice vectors                 reciprocal lattice vectors
     5.624000000  0.000000000  0.000000000     0.177809388  0.000000000  0.000000000
     0.000000000  5.624000000  0.000000000     0.000000000  0.177809388  0.000000000
     0.000000000  0.000000000  5.624000000     0.000000000  0.000000000  0.177809388

  length of vectors
     5.624000000  5.624000000  5.624000000     0.177809388  0.177809388  0.177809388



 k-points in units of 2pi/SCALE and weight: auto                                    
   0.00000000  0.00000000  0.00000000       0.008
   0.03556188  0.00000000  0.00000000       0.048
   0.07112376  0.00000000  0.00000000       0.048
   0.03556188  0.03556188  0.00000000       0.096
   0.07112376  0.03556188  0.00000000       0.096
  -0.03556188  0.07112376  0.00000000       0.096
   0.07112376  0.07112376  0.00000000       0.096
   0.03556188  0.03556188  0.03556188       0.064
   0.07112376  0.03556188  0.03556188       0.192
   0.07112376  0.07112376  0.03556188       0.192
   0.07112376  0.07112376  0.07112376       0.064

 k-points in reciprocal lattice and weights: auto                                    
   0.00000000  0.00000000  0.00000000       0.008
   0.20000000  0.00000000  0.00000000       0.048
   0.40000000  0.00000000  0.00000000       0.048
   0.20000000  0.20000000  0.00000000       0.096
   0.40000000  0.20000000  0.00000000       0.096
  -0.20000000  0.40000000  0.00000000       0.096
   0.40000000  0.40000000  0.00000000       0.096
   0.20000000  0.20000000  0.20000000       0.064
   0.40000000  0.20000000  0.20000000       0.192
   0.40000000  0.40000000  0.20000000       0.192
   0.40000000  0.40000000  0.40000000       0.064

 position of ions in fractional coordinates (direct lattice) 
   0.05998779  0.05998778  0.05998778
   0.55998778  0.05998777  0.55998776
   0.05998778  0.55998777  0.55998777
   0.55998777  0.55998777  0.05998777
   0.17996333  0.17996331  0.17996332
   0.94001222  0.94001222  0.94001222
   0.44001223  0.94001223  0.67996332
   0.67996332  0.17996331  0.44001222
   0.94001220  0.67996334  0.44001219
   0.17996335  0.44001220  0.67996335
   0.67996331  0.44001223  0.94001223
   0.44001225  0.67996331  0.17996331

 position of ions in cartesian coordinates  (Angst):
   0.33737131  0.33737125  0.33737125
   3.14937126  0.33737121  3.14937118
   0.33737126  3.14937119  3.14937121
   3.14937123  3.14937122  0.33737122
   1.01211377  1.01211367  1.01211370
   5.28662874  5.28662874  5.28662871
   2.47462878  5.28662879  3.82411372
   3.82411371  1.01211365  2.47462871
   5.28662862  3.82411384  2.47462854
   1.01211391  2.47462859  3.82411386
   3.82411364  2.47462875  5.28662878
   2.47462887  3.82411364  1.01211366



--------------------------------------------------------------------------------------------------------


 k-point   1 :   0.0000 0.0000 0.0000  plane waves:   12893
 k-point   2 :   0.2000 0.0000 0.0000  plane waves:   12817
 k-point   3 :   0.4000 0.0000 0.0000  plane waves:   12773
 k-point   4 :   0.2000 0.2000 0.0000  plane waves:   12779
 k-point   5 :   0.4000 0.2000 0.0000  plane waves:   12768
 k-point   6 :  -0.2000 0.4000 0.0000  plane waves:   12768
 k-point   7 :   0.4000 0.4000 0.0000  plane waves:   12758
 k-point   8 :   0.2000 0.2000 0.2000  plane waves:   12782
 k-point   9 :   0.4000 0.2000 0.2000  plane waves:   12778
 k-point  10 :   0.4000 0.4000 0.2000  plane waves:   12779
 k-point  11 :   0.4000 0.4000 0.4000  plane waves:   12769

 maximum and minimum number of plane-waves per node :       416      382

 maximum number of plane-waves:     12893
 maximum index in each direction: 
   IXMAX=   14   IYMAX=   14   IZMAX=   14
   IXMIN=  -14   IYMIN=  -14   IZMIN=  -14


 parallel 3D FFT for wavefunctions:
    minimum data exchange during FFTs selected (reduces bandwidth)
 parallel 3D FFT for charge:
    minimum data exchange during FFTs selected (reduces bandwidth)


 total amount of memory used by VASP MPI-rank0    34643. kBytes
=======================================================================

   base      :      30000. kBytes
   nonl-proj :        640. kBytes
   fftplans  :        741. kBytes
   grid      :       1105. kBytes
   one-center:          3. kBytes
   wavefun   :       2154. kBytes

     INWAV:  cpu time      0.0000: real time      0.0000
 Broyden mixing: mesh for mixing (old mesh)
   NGX = 29   NGY = 29   NGZ = 29
  (NGX  =120   NGY  =120   NGZ  =120)
  gives a total of  24389 points

 initial charge density was supplied:
 charge density of overlapping atoms calculated
 number of electron      64.0000000 magnetization 
 keeping initial charge density in first step


--------------------------------------------------------------------------------------------------------


 Maximum index for augmentation-charges          345 (set IRDMAX)


--------------------------------------------------------------------------------------------------------


 First call to EWALD:  gamma=   0.315
 Maximum number of real-space cells 3x 3x 3
 Maximum number of reciprocal cells 3x 3x 3

    FEWALD:  cpu time      0.0020: real time      0.0021


--------------------------------------- Ionic step        1  -------------------------------------------




--------------------------------------- Iteration      1(   1)  ---------------------------------------


vdW kernel read from vdw_kernel.bindat
  0.0000  0.2424  0.5071  0.7962  1.1119  1.4567  1.8333  2.2446  2.6937  3.1842
  3.7199  4.3049  4.9438  5.6415  6.4036  7.2358  8.1446  9.1372 10.2212 11.4050
 12.6979 14.1099 15.6519 17.3360 19.1751 21.1837 23.3773 25.7729 28.3892 31.2465
 34.3669 37.7748 41.4965 45.5611 50.0000

    POTLOK:  cpu time      1.2256: real time      1.2668
    SETDIJ:  cpu time      0.0686: real time      0.0691
    TRIAL :  cpu time      0.3734: real time      0.3795
    CORREC:  cpu time      0.0011: real time      0.0011
    --------------------------------------------
      LOOP:  cpu time      1.6708: real time      1.7555

 eigenvalue-minimisations  :   880
 total energy-change (2. order) : 0.7595954E+03  (-0.4898702E+04)
 number of electron      64.0000000 magnetization 
 augmentation part       64.0000000 magnetization 

 Free energy of the ion-electron system (eV)
  ---------------------------------------------------
  alpha Z        PSCENC =        64.50308324
  Ewald energy   TEWEN  =     -2171.10254707
  -Hartree energ DENC   =     -1496.95817215
  -exchange      EXHF   =         0.00000000
  -V(xc)+E(xc)   XCENC  =       226.47204806
  PAW double counting   =      3245.86397720    -3231.01915599
  entropy T*S    EENTRO =        -0.00001745
  eigenvalues    EBANDS =        32.19714865
  atomic energy  EATOM  =      4089.63908172
  ---------------------------------------------------
  free energy    TOTEN  =       759.59544621 eV

  energy without entropy =      759.59546366  energy(sigma->0) =      759.59545494


--------------------------------------------------------------------------------------------------------




--------------------------------------- Iteration      1(   2)  ---------------------------------------


    TRIAL :  cpu time      0.3959: real time      0.3959
    CORREC:  cpu time      0.0001: real time      0.0001
    --------------------------------------------
      LOOP:  cpu time      0.4096: real time      0.4254

 eigenvalue-minimisations  :  1272
 total energy-change (2. order) :-0.7267479E+03  (-0.7050816E+03)
 number of electron      64.0000000 magnetization 
 augmentation part       64.0000000 magnetization 

 Free energy of the ion-electron system (eV)
  ---------------------------------------------------
  alpha Z        PSCENC =        64.50308324
  Ewald energy   TEWEN  =     -2171.10254707
  -Hartree energ DENC   =     -1496.95817215
  -exchange      EXHF   =         0.00000000
  -V(xc)+E(xc)   XCENC  =       226.47204806
  PAW double counting   =      3245.86397720    -3231.01915599
  entropy T*S    EENTRO =        -0.00000000
  eigenvalues    EBANDS =      -694.55079658
  atomic energy  EATOM  =      4089.63908172
  ---------------------------------------------------
  free energy    TOTEN  =        32.84751844 eV

  energy without entropy =       32.84751844  energy(sigma->0) =       32.84751844


--------------------------------------------------------------------------------------------------------




--------------------------------------- Iteration      1(   3)  ---------------------------------------


    TRIAL :  cpu time      0.3373: real time      0.3373
    CORREC:  cpu time      0.0001: real time      0.0001
    --------------------------------------------
      LOOP:  cpu time      0.3502: real time      0.3672

 eigenvalue-minimisations  :  1056
 total energy-change (2. order) :-0.1063943E+03  (-0.1053632E+03)
 number of electron      64.0000000 magnetization 
 augmentation part       64.0000000 magnetization 

 Free energy of the ion-electron system (eV)
  ---------------------------------------------------
  alpha Z        PSCENC =        64.50308324
  Ewald energy   TEWEN  =     -2171.10254707
  -Hartree energ DENC   =     -1496.95817215
  -exchange      EXHF   =         0.00000000
  -V(xc)+E(xc)   XCENC  =       226.47204806
  PAW double counting   =      3245.86397720    -3231.01915599
  entropy T*S    EENTRO =        -0.00000000
  eigenvalues    EBANDS =      -800.94512958
  atomic energy  EATOM  =      4089.63908172
  ---------------------------------------------------
  free energy    TOTEN  =       -73.54681456 eV

  energy without entropy =      -73.54681456  energy(sigma->0) =      -73.54681456


--------------------------------------------------------------------------------------------------------




--------------------------------------- Iteration      1(   4)  ---------------------------------------


    TRIAL :  cpu time      0.3728: real time      0.3731
    CORREC:  cpu time      0.0001: real time      0.0001
    --------------------------------------------
      LOOP:  cpu time      0.4022: real time      0.4027

 eigenvalue-minimisations  :  1224
 total energy-change (2. order) :-0.3813489E+01  (-0.3790948E+01)
 number of electron      64.0000000 magnetization 
 augmentation part       64.0000000 magnetization 

 Free energy of the ion-electron system (eV)
  ---------------------------------------------------
  alpha Z        PSCENC =        64.50308324
  Ewald energy   TEWEN  =     -2171.10254707
  -Hartree energ DENC   =     -1496.95817215
  -exchange      EXHF   =         0.00000000
  -V(xc)+E(xc)   XCENC  =       226.47204806
  PAW double counting   =      3245.86397720    -3231.01915599
  entropy T*S    EENTRO =        -0.00000000
  eigenvalues    EBANDS =      -804.75861824
  atomic energy  EATOM  =      4089.63908172
  ---------------------------------------------------
  free energy    TOTEN  =       -77.36030322 eV

  energy without entropy =      -77.36030322  energy(sigma->0) =      -77.36030322


--------------------------------------------------------------------------------------------------------




--------------------------------------- Iteration      1(   5)  ---------------------------------------


    TRIAL :  cpu time      0.3509: real time      0.3509
    CORREC:  cpu time      0.0001: real time      0.0001
    CHARGE:  cpu time      0.0685: real time      0.0686
    --------------------------------------------
      LOOP:  cpu time      0.4317: real time      0.4484

 eigenvalue-minimisations  :  1112
 total energy-change (2. order) :-0.1093349E+00  (-0.1090636E+00)
 number of electron      64.0000001 magnetization 
 augmentation part        0.5278232 magnetization 

 Free energy of the ion-electron system (eV)
  ---------------------------------------------------
  alpha Z        PSCENC =        64.50308324
  Ewald energy   TEWEN  =     -2171.10254707
  -Hartree energ DENC   =     -1496.95817215
  -exchange      EXHF   =         0.00000000
  -V(xc)+E(xc)   XCENC  =       226.47204806
  PAW double counting   =      3245.86397720    -3231.01915599
  entropy T*S    EENTRO =        -0.00000000
  eigenvalues    EBANDS =      -804.86795313
  atomic energy  EATOM  =      4089.63908172
  ---------------------------------------------------
  free energy    TOTEN  =       -77.46963811 eV

  energy without entropy =      -77.46963811  energy(sigma->0) =      -77.46963811


--------------------------------------------------------------------------------------------------------




--------------------------------------- Iteration      1(   6)  ---------------------------------------


    POTLOK:  cpu time      0.6319: real time      0.6322
    SETDIJ:  cpu time      0.0636: real time      0.0636
    TRIAL :  cpu time      0.2039: real time      0.2047
    CORREC:  cpu time      0.8934: real time      0.8939
    CHARGE:  cpu time      0.0677: real time      0.0677
    --------------------------------------------
      LOOP:  cpu time      1.8725: real time      1.8923

 eigenvalue-minimisations  :     0
 total energy-change (2. order) : 0.1821995E+02  (-0.9484742E+01)
 number of electron      64.0000001 magnetization 
 augmentation part        0.3769813 magnetization 

 Free energy of the ion-electron system (eV)
  ---------------------------------------------------
  alpha Z        PSCENC =        64.50308324
  Ewald energy   TEWEN  =     -2171.10254707
  -Hartree energ DENC   =     -1799.08509054
  -exchange      EXHF   =         0.00000000
  -V(xc)+E(xc)   XCENC  =       246.36682790
  PAW double counting   =     37583.39827434   -37573.53315368
  entropy T*S    EENTRO =        -0.00000000
  eigenvalues    EBANDS =      -499.43616218
  atomic energy  EATOM  =      4089.63908172
  ---------------------------------------------------
  free energy    TOTEN  =       -59.24968626 eV

  energy without entropy =      -59.24968626  energy(sigma->0) =      -59.24968626


--------------------------------------------------------------------------------------------------------




--------------------------------------- Iteration      1(   7)  ---------------------------------------


    POTLOK:  cpu time      0.6309: real time      0.6309
    SETDIJ:  cpu time      0.0635: real time      0.0635
    TRIAL :  cpu time      0.1820: real time      0.1822
    CORREC:  cpu time      0.8453: real time      0.8453
    CHARGE:  cpu time      0.0531: real time      0.0533
    --------------------------------------------
      LOOP:  cpu time      1.7756: real time      2.3087

 eigenvalue-minimisations  :     0
 total energy-change (2. order) :-0.9543871E+01  (-0.1184371E+01)
 number of electron      64.0000000 magnetization 
 augmentation part        0.2768508 magnetization 

 Free energy of the ion-electron system (eV)
  ---------------------------------------------------
  alpha Z        PSCENC =        64.50308324
  Ewald energy   TEWEN  =     -2171.10254707
  -Hartree energ DENC   =     -1625.70637034
  -exchange      EXHF   =         0.00000000
  -V(xc)+E(xc)   XCENC  =       235.05159686
  PAW double counting   =     44196.13134282   -44184.04098965
  entropy T*S    EENTRO =        -0.00000000
  eigenvalues    EBANDS =      -673.26875446
  atomic energy  EATOM  =      4089.63908172
  ---------------------------------------------------
  free energy    TOTEN  =       -68.79355687 eV

  energy without entropy =      -68.79355687  energy(sigma->0) =      -68.79355687


--------------------------------------------------------------------------------------------------------




--------------------------------------- Iteration      1(   8)  ---------------------------------------


    POTLOK:  cpu time      0.6392: real time      0.6393
    SETDIJ:  cpu time      0.0635: real time      0.0635
    TRIAL :  cpu time      0.1811: real time      0.1811
    CORREC:  cpu time      0.8441: real time      0.8444
    CHARGE:  cpu time      0.0529: real time      0.0529
    --------------------------------------------
      LOOP:  cpu time      1.8000: real time      1.8131

 eigenvalue-minimisations  :     0
 total energy-change (2. order) :-0.1184047E+01  (-0.3026360E+00)
 number of electron      64.0000000 magnetization 
 augmentation part        0.2681452 magnetization 

 Free energy of the ion-electron system (eV)
  ---------------------------------------------------
  alpha Z        PSCENC =        64.50308324
  Ewald energy   TEWEN  =     -2171.10254707
  -Hartree energ DENC   =     -1630.56049315
  -exchange      EXHF   =         0.00000000
  -V(xc)+E(xc)   XCENC  =       235.29642504
  PAW double counting   =     45259.28027819   -45246.73568382
  entropy T*S    EENTRO =        -0.00000000
  eigenvalues    EBANDS =      -670.29774830
  atomic energy  EATOM  =      4089.63908172
  ---------------------------------------------------
  free energy    TOTEN  =       -69.97760413 eV

  energy without entropy =      -69.97760413  energy(sigma->0) =      -69.97760413


--------------------------------------------------------------------------------------------------------




--------------------------------------- Iteration      1(   9)  ---------------------------------------


    POTLOK:  cpu time      0.6304: real time      0.6307
    SETDIJ:  cpu time      0.0636: real time      0.0636
    TRIAL :  cpu time      0.1810: real time      0.1810
    CORREC:  cpu time      0.8444: real time      0.8446
    CHARGE:  cpu time      0.0528: real time      0.0528
    --------------------------------------------
      LOOP:  cpu time      1.7832: real time      1.8022

 eigenvalue-minimisations  :     0
 total energy-change (2. order) :-0.3026811E+00  (-0.8156523E-01)
 number of electron      64.0000000 magnetization 
 augmentation part        0.2698727 magnetization 

 Free energy of the ion-electron system (eV)
  ---------------------------------------------------
  alpha Z        PSCENC =        64.50308324
  Ewald energy   TEWEN  =     -2171.10254707
  -Hartree energ DENC   =     -1634.06544105
  -exchange      EXHF   =         0.00000000
  -V(xc)+E(xc)   XCENC  =       235.51667117
  PAW double counting   =     46755.78070763   -46743.20875621
  entropy T*S    EENTRO =        -0.00000000
  eigenvalues    EBANDS =      -667.34308470
  atomic energy  EATOM  =      4089.63908172
  ---------------------------------------------------
  free energy    TOTEN  =       -70.28028527 eV

  energy without entropy =      -70.28028527  energy(sigma->0) =      -70.28028527


--------------------------------------------------------------------------------------------------------




--------------------------------------- Iteration      1(  10)  ---------------------------------------


    POTLOK:  cpu time      0.6303: real time      0.6305
    SETDIJ:  cpu time      0.0636: real time      0.0636
    TRIAL :  cpu time      0.1806: real time      0.1806
    CORREC:  cpu time      0.8450: real time      0.8453
    CHARGE:  cpu time      0.0532: real time      0.0532
    --------------------------------------------
      LOOP:  cpu time      1.7871: real time      1.8031

 eigenvalue-minimisations  :     0
 total energy-change (2. order) :-0.8143245E-01  (-0.2544864E-01)
 number of electron      64.0000000 magnetization 
 augmentation part        0.2722632 magnetization 

 Free energy of the ion-electron system (eV)
  ---------------------------------------------------
  alpha Z        PSCENC =        64.50308324
  Ewald energy   TEWEN  =     -2171.10254707
  -Hartree energ DENC   =     -1630.25740112
  -exchange      EXHF   =         0.00000000
  -V(xc)+E(xc)   XCENC  =       235.24731478
  PAW double counting   =     46999.96286729   -46987.38021442
  entropy T*S    EENTRO =        -0.00000000
  eigenvalues    EBANDS =      -670.97390214
  atomic energy  EATOM  =      4089.63908172
  ---------------------------------------------------
  free energy    TOTEN  =       -70.36171772 eV

  energy without entropy =      -70.36171772  energy(sigma->0) =      -70.36171772


--------------------------------------------------------------------------------------------------------




--------------------------------------- Iteration      1(  11)  ---------------------------------------


    POTLOK:  cpu time      0.6300: real time      0.6303
    SETDIJ:  cpu time      0.0635: real time      0.0635
    TRIAL :  cpu time      0.1806: real time      0.1807
    CORREC:  cpu time      0.8456: real time      0.8459
    CHARGE:  cpu time      0.0529: real time      0.0529
    --------------------------------------------
      LOOP:  cpu time      1.7858: real time      1.8025

 eigenvalue-minimisations  :     0
 total energy-change (2. order) :-0.2543142E-01  (-0.7430321E-02)
 number of electron      64.0000001 magnetization 
 augmentation part        0.2741904 magnetization 

 Free energy of the ion-electron system (eV)
  ---------------------------------------------------
  alpha Z        PSCENC =        64.50308324
  Ewald energy   TEWEN  =     -2171.10254707
  -Hartree energ DENC   =     -1631.62011308
  -exchange      EXHF   =         0.00000000
  -V(xc)+E(xc)   XCENC  =       235.31047707
  PAW double counting   =     46580.94574603   -46568.39129179
  entropy T*S    EENTRO =        -0.00000000
  eigenvalues    EBANDS =      -669.67158526
  atomic energy  EATOM  =      4089.63908172
  ---------------------------------------------------
  free energy    TOTEN  =       -70.38714914 eV

  energy without entropy =      -70.38714914  energy(sigma->0) =      -70.38714914


--------------------------------------------------------------------------------------------------------




--------------------------------------- Iteration      1(  12)  ---------------------------------------


    POTLOK:  cpu time      0.6306: real time      0.6306
    SETDIJ:  cpu time      0.0637: real time      0.0637
    TRIAL :  cpu time      0.1804: real time      0.1806
    CORREC:  cpu time      0.8431: real time      0.8432
    CHARGE:  cpu time      0.0527: real time      0.0530
    --------------------------------------------
      LOOP:  cpu time      1.8024: real time      1.8034

 eigenvalue-minimisations  :     0
 total energy-change (2. order) :-0.7434951E-02  (-0.2801402E-02)
 number of electron      64.0000001 magnetization 
 augmentation part        0.2742090 magnetization 

 Free energy of the ion-electron system (eV)
  ---------------------------------------------------
  alpha Z        PSCENC =        64.50308324
  Ewald energy   TEWEN  =     -2171.10254707
  -Hartree energ DENC   =     -1631.04305381
  -exchange      EXHF   =         0.00000000
  -V(xc)+E(xc)   XCENC  =       235.26655827
  PAW double counting   =     46613.14997589   -46600.59467622
  entropy T*S    EENTRO =        -0.00000000
  eigenvalues    EBANDS =      -670.21300611
  atomic energy  EATOM  =      4089.63908172
  ---------------------------------------------------
  free energy    TOTEN  =       -70.39458409 eV

  energy without entropy =      -70.39458409  energy(sigma->0) =      -70.39458409


--------------------------------------------------------------------------------------------------------




--------------------------------------- Iteration      1(  13)  ---------------------------------------


    POTLOK:  cpu time      0.6311: real time      0.6312
    SETDIJ:  cpu time      0.0637: real time      0.0637
    TRIAL :  cpu time      0.1807: real time      0.1807
    CORREC:  cpu time      0.8513: real time      0.8516
    CHARGE:  cpu time      0.0528: real time      0.0528
    --------------------------------------------
      LOOP:  cpu time      1.7922: real time      1.8108

 eigenvalue-minimisations  :     0
 total energy-change (2. order) :-0.2801407E-02  (-0.1106624E-02)
 number of electron      64.0000001 magnetization 
 augmentation part        0.2737388 magnetization 

 Free energy of the ion-electron system (eV)
  ---------------------------------------------------
  alpha Z        PSCENC =        64.50308324
  Ewald energy   TEWEN  =     -2171.10254707
  -Hartree energ DENC   =     -1631.12276793
  -exchange      EXHF   =         0.00000000
  -V(xc)+E(xc)   XCENC  =       235.27560876
  PAW double counting   =     46652.64562212   -46640.08684374
  entropy T*S    EENTRO =        -0.00000000
  eigenvalues    EBANDS =      -670.14862260
  atomic energy  EATOM  =      4089.63908172
  ---------------------------------------------------
  free energy    TOTEN  =       -70.39738549 eV

  energy without entropy =      -70.39738549  energy(sigma->0) =      -70.39738549


--------------------------------------------------------------------------------------------------------




--------------------------------------- Iteration      1(  14)  ---------------------------------------


    POTLOK:  cpu time      0.6307: real time      0.6309
    SETDIJ:  cpu time      0.0636: real time      0.0636
    TRIAL :  cpu time      0.1809: real time      0.1809
    CORREC:  cpu time      0.8456: real time      0.8458
    CHARGE:  cpu time      0.0532: real time      0.0532
    --------------------------------------------
      LOOP:  cpu time      1.7885: real time      1.8054

 eigenvalue-minimisations  :     0
 total energy-change (2. order) :-0.1106448E-02  (-0.4700838E-03)
 number of electron      64.0000001 magnetization 
 augmentation part        0.2740344 magnetization 

 Free energy of the ion-electron system (eV)
  ---------------------------------------------------
  alpha Z        PSCENC =        64.50308324
  Ewald energy   TEWEN  =     -2171.10254707
  -Hartree energ DENC   =     -1630.81176186
  -exchange      EXHF   =         0.00000000
  -V(xc)+E(xc)   XCENC  =       235.25561593
  PAW double counting   =     46582.76342543   -46570.19943930
  entropy T*S    EENTRO =        -0.00000000
  eigenvalues    EBANDS =      -670.44595003
  atomic energy  EATOM  =      4089.63908172
  ---------------------------------------------------
  free energy    TOTEN  =       -70.39849194 eV

  energy without entropy =      -70.39849194  energy(sigma->0) =      -70.39849194


--------------------------------------------------------------------------------------------------------




--------------------------------------- Iteration      1(  15)  ---------------------------------------


    POTLOK:  cpu time      0.6303: real time      0.6305
    SETDIJ:  cpu time      0.0634: real time      0.0634
    TRIAL :  cpu time      0.1808: real time      0.1808
    CORREC:  cpu time      0.8436: real time      0.8439
    CHARGE:  cpu time      0.0530: real time      0.0530
    --------------------------------------------
      LOOP:  cpu time      1.8011: real time      1.8020

 eigenvalue-minimisations  :     0
 total energy-change (2. order) :-0.4699450E-03  (-0.1956606E-03)
 number of electron      64.0000001 magnetization 
 augmentation part        0.2739508 magnetization 

 Free energy of the ion-electron system (eV)
  ---------------------------------------------------
  alpha Z        PSCENC =        64.50308324
  Ewald energy   TEWEN  =     -2171.10254707
  -Hartree energ DENC   =     -1631.04113416
  -exchange      EXHF   =         0.00000000
  -V(xc)+E(xc)   XCENC  =       235.26851678
  PAW double counting   =     46487.63409966   -46475.07403669
  entropy T*S    EENTRO =        -0.00000000
  eigenvalues    EBANDS =      -670.22602537
  atomic energy  EATOM  =      4089.63908172
  ---------------------------------------------------
  free energy    TOTEN  =       -70.39896189 eV

  energy without entropy =      -70.39896189  energy(sigma->0) =      -70.39896189


--------------------------------------------------------------------------------------------------------




--------------------------------------- Iteration      1(  16)  ---------------------------------------


    POTLOK:  cpu time      0.6928: real time      0.6932
    SETDIJ:  cpu time      0.0636: real time      0.0636
    TRIAL :  cpu time      0.1918: real time      0.1918
    CORREC:  cpu time      0.8476: real time      0.8478
    CHARGE:  cpu time      0.0531: real time      0.0531
    --------------------------------------------
      LOOP:  cpu time      1.8619: real time      1.8782

 eigenvalue-minimisations  :     0
 total energy-change (2. order) :-0.1960856E-03  (-0.7893374E-04)
 number of electron      64.0000001 magnetization 
 augmentation part        0.2739040 magnetization 

 Free energy of the ion-electron system (eV)
  ---------------------------------------------------
  alpha Z        PSCENC =        64.50308324
  Ewald energy   TEWEN  =     -2171.10254707
  -Hartree energ DENC   =     -1630.89705017
  -exchange      EXHF   =         0.00000000
  -V(xc)+E(xc)   XCENC  =       235.25874207
  PAW double counting   =     46451.38695467   -46438.82651658
  entropy T*S    EENTRO =        -0.00000000
  eigenvalues    EBANDS =      -670.36090586
  atomic energy  EATOM  =      4089.63908172
  ---------------------------------------------------
  free energy    TOTEN  =       -70.39915797 eV

  energy without entropy =      -70.39915797  energy(sigma->0) =      -70.39915797


--------------------------------------------------------------------------------------------------------




--------------------------------------- Iteration      1(  17)  ---------------------------------------


    POTLOK:  cpu time      0.6552: real time      0.6554
    SETDIJ:  cpu time      0.0636: real time      0.0636
    TRIAL :  cpu time      0.1815: real time      0.1815
    CORREC:  cpu time      0.8521: real time      0.8524
    CHARGE:  cpu time      0.0675: real time      0.0676
    --------------------------------------------
      LOOP:  cpu time      1.8496: real time      1.8506

 eigenvalue-minimisations  :     0
 total energy-change (2. order) :-0.7823505E-04  (-0.2797251E-04)
 number of electron      64.0000001 magnetization 
 augmentation part        0.2736866 magnetization 

 Free energy of the ion-electron system (eV)
  ---------------------------------------------------
  alpha Z        PSCENC =        64.50308324
  Ewald energy   TEWEN  =     -2171.10254707
  -Hartree energ DENC   =     -1631.00191049
  -exchange      EXHF   =         0.00000000
  -V(xc)+E(xc)   XCENC  =       235.26599352
  PAW double counting   =     46455.82028983   -46443.26081846
  entropy T*S    EENTRO =        -0.00000000
  eigenvalues    EBANDS =      -670.26240850
  atomic energy  EATOM  =      4089.63908172
  ---------------------------------------------------
  free energy    TOTEN  =       -70.39923621 eV

  energy without entropy =      -70.39923621  energy(sigma->0) =      -70.39923621


--------------------------------------------------------------------------------------------------------




--------------------------------------- Iteration      1(  18)  ---------------------------------------


    POTLOK:  cpu time      0.6310: real time      0.6311
    SETDIJ:  cpu time      0.0635: real time      0.0635
    TRIAL :  cpu time      0.1814: real time      0.1816
    CORREC:  cpu time      0.8436: real time      0.8437
    CHARGE:  cpu time      0.0531: real time      0.0531
    --------------------------------------------
      LOOP:  cpu time      1.8011: real time      1.8016

 eigenvalue-minimisations  :     0
 total energy-change (2. order) :-0.2761986E-04  (-0.8515409E-05)
 number of electron      64.0000001 magnetization 
 augmentation part        0.2736809 magnetization 

 Free energy of the ion-electron system (eV)
  ---------------------------------------------------
  alpha Z        PSCENC =        64.50308324
  Ewald energy   TEWEN  =     -2171.10254707
  -Hartree energ DENC   =     -1630.93237217
  -exchange      EXHF   =         0.00000000
  -V(xc)+E(xc)   XCENC  =       235.26146078
  PAW double counting   =     46477.67008023   -46465.10889072
  entropy T*S    EENTRO =        -0.00000000
  eigenvalues    EBANDS =      -670.32915985
  atomic energy  EATOM  =      4089.63908172
  ---------------------------------------------------
  free energy    TOTEN  =       -70.39926383 eV

  energy without entropy =      -70.39926383  energy(sigma->0) =      -70.39926383


--------------------------------------------------------------------------------------------------------




--------------------------------------- Iteration      1(  19)  ---------------------------------------


    POTLOK:  cpu time      0.6376: real time      0.6376
    SETDIJ:  cpu time      0.0635: real time      0.0635
    TRIAL :  cpu time      0.1806: real time      0.1806
    CORREC:  cpu time      0.8457: real time      0.8459
    CHARGE:  cpu time      0.0535: real time      0.0535
    --------------------------------------------
      LOOP:  cpu time      1.7938: real time      1.8112

 eigenvalue-minimisations  :     0
 total energy-change (2. order) :-0.8241201E-05  (-0.2328958E-05)
 number of electron      64.0000001 magnetization 
 augmentation part        0.2736650 magnetization 

 Free energy of the ion-electron system (eV)
  ---------------------------------------------------
  alpha Z        PSCENC =        64.50308324
  Ewald energy   TEWEN  =     -2171.10254707
  -Hartree energ DENC   =     -1630.99591618
  -exchange      EXHF   =         0.00000000
  -V(xc)+E(xc)   XCENC  =       235.26578979
  PAW double counting   =     46492.73266202   -46480.17177892
  entropy T*S    EENTRO =        -0.00000000
  eigenvalues    EBANDS =      -670.26964667
  atomic energy  EATOM  =      4089.63908172
  ---------------------------------------------------
  free energy    TOTEN  =       -70.39927207 eV

  energy without entropy =      -70.39927207  energy(sigma->0) =      -70.39927207


--------------------------------------------------------------------------------------------------------




--------------------------------------- Iteration      1(  20)  ---------------------------------------


    POTLOK:  cpu time      0.6305: real time      0.6308
    SETDIJ:  cpu time      0.0636: real time      0.0636
    TRIAL :  cpu time      0.1804: real time      0.1804
    CORREC:  cpu time      0.8434: real time      0.8436
    CHARGE:  cpu time      0.0530: real time      0.0530
    --------------------------------------------
      LOOP:  cpu time      1.7850: real time      1.8009

 eigenvalue-minimisations  :     0
 total energy-change (2. order) :-0.2367284E-05  (-0.9973212E-06)
 number of electron      64.0000001 magnetization 
 augmentation part        0.2737029 magnetization 

 Free energy of the ion-electron system (eV)
  ---------------------------------------------------
  alpha Z        PSCENC =        64.50308324
  Ewald energy   TEWEN  =     -2171.10254707
  -Hartree energ DENC   =     -1630.96166323
  -exchange      EXHF   =         0.00000000
  -V(xc)+E(xc)   XCENC  =       235.26356493
  PAW double counting   =     46495.61655667   -46483.05532461
  entropy T*S    EENTRO =        -0.00000000
  eigenvalues    EBANDS =      -670.30202610
  atomic energy  EATOM  =      4089.63908172
  ---------------------------------------------------
  free energy    TOTEN  =       -70.39927444 eV

  energy without entropy =      -70.39927444  energy(sigma->0) =      -70.39927444


--------------------------------------------------------------------------------------------------------




--------------------------------------- Iteration      1(  21)  ---------------------------------------


    POTLOK:  cpu time      0.6299: real time      0.6302
    SETDIJ:  cpu time      0.0636: real time      0.0636
    TRIAL :  cpu time      0.1814: real time      0.1814
    CORREC:  cpu time      0.8431: real time      0.8433
    CHARGE:  cpu time      0.0530: real time      0.0530
    --------------------------------------------
      LOOP:  cpu time      1.7831: real time      1.8018

 eigenvalue-minimisations  :     0
 total energy-change (2. order) :-0.1035056E-05  (-0.4806550E-06)
 number of electron      64.0000001 magnetization 
 augmentation part        0.2737185 magnetization 

 Free energy of the ion-electron system (eV)
  ---------------------------------------------------
  alpha Z        PSCENC =        64.50308324
  Ewald energy   TEWEN  =     -2171.10254707
  -Hartree energ DENC   =     -1630.97416161
  -exchange      EXHF   =         0.00000000
  -V(xc)+E(xc)   XCENC  =       235.26435412
  PAW double counting   =     46492.81020393   -46480.24926742
  entropy T*S    EENTRO =        -0.00000000
  eigenvalues    EBANDS =      -670.29002238
  atomic energy  EATOM  =      4089.63908172
  ---------------------------------------------------
  free energy    TOTEN  =       -70.39927547 eV

  energy without entropy =      -70.39927547  energy(sigma->0) =      -70.39927547


--------------------------------------------------------------------------------------------------------




--------------------------------------- Iteration      1(  22)  ---------------------------------------


    POTLOK:  cpu time      0.6311: real time      0.6313
    SETDIJ:  cpu time      0.0635: real time      0.0635
    TRIAL :  cpu time      0.1802: real time      0.1802
    CORREC:  cpu time      0.8438: real time      0.8440
    CHARGE:  cpu time      0.0534: real time      0.0534
    --------------------------------------------
      LOOP:  cpu time      1.7889: real time      1.8025

 eigenvalue-minimisations  :     0
 total energy-change (2. order) :-0.5148395E-06  (-0.2138298E-06)
 number of electron      64.0000001 magnetization 
 augmentation part        0.2737176 magnetization 

 Free energy of the ion-electron system (eV)
  ---------------------------------------------------
  alpha Z        PSCENC =        64.50308324
  Ewald energy   TEWEN  =     -2171.10254707
  -Hartree energ DENC   =     -1630.97561449
  -exchange      EXHF   =         0.00000000
  -V(xc)+E(xc)   XCENC  =       235.26442989
  PAW double counting   =     46490.25581594   -46477.69497606
  entropy T*S    EENTRO =        -0.00000000
  eigenvalues    EBANDS =      -670.28854917
  atomic energy  EATOM  =      4089.63908172
  ---------------------------------------------------
  free energy    TOTEN  =       -70.39927599 eV

  energy without entropy =      -70.39927599  energy(sigma->0) =      -70.39927599


--------------------------------------------------------------------------------------------------------




--------------------------------------- Iteration      1(  23)  ---------------------------------------


    POTLOK:  cpu time      0.6301: real time      0.6302
    SETDIJ:  cpu time      0.0635: real time      0.0635
    TRIAL :  cpu time      0.1806: real time      0.1808
    CORREC:  cpu time      0.8460: real time      0.8460
    CHARGE:  cpu time      0.0531: real time      0.0535
    --------------------------------------------
      LOOP:  cpu time      1.8036: real time      1.8045

 eigenvalue-minimisations  :     0
 total energy-change (2. order) :-0.2254164E-06  (-0.1225832E-06)
 number of electron      64.0000001 magnetization 
 augmentation part        0.2737257 magnetization 

 Free energy of the ion-electron system (eV)
  ---------------------------------------------------
  alpha Z        PSCENC =        64.50308324
  Ewald energy   TEWEN  =     -2171.10254707
  -Hartree energ DENC   =     -1630.96904342
  -exchange      EXHF   =         0.00000000
  -V(xc)+E(xc)   XCENC  =       235.26400982
  PAW double counting   =     46489.93829590   -46477.37738860
  entropy T*S    EENTRO =        -0.00000000
  eigenvalues    EBANDS =      -670.29476781
  atomic energy  EATOM  =      4089.63908172
  ---------------------------------------------------
  free energy    TOTEN  =       -70.39927621 eV

  energy without entropy =      -70.39927621  energy(sigma->0) =      -70.39927621


--------------------------------------------------------------------------------------------------------




--------------------------------------- Iteration      1(  24)  ---------------------------------------


    POTLOK:  cpu time      0.6306: real time      0.6307
    SETDIJ:  cpu time      0.0635: real time      0.0635
    TRIAL :  cpu time      0.1808: real time      0.1808
    CORREC:  cpu time      0.8514: real time      0.8516
    CHARGE:  cpu time      0.0534: real time      0.0534
    --------------------------------------------
      LOOP:  cpu time      1.7940: real time      1.8117

 eigenvalue-minimisations  :     0
 total energy-change (2. order) :-0.1276567E-06  (-0.3903296E-07)
 number of electron      64.0000001 magnetization 
 augmentation part        0.2737249 magnetization 

 Free energy of the ion-electron system (eV)
  ---------------------------------------------------
  alpha Z        PSCENC =        64.50308324
  Ewald energy   TEWEN  =     -2171.10254707
  -Hartree energ DENC   =     -1630.97331564
  -exchange      EXHF   =         0.00000000
  -V(xc)+E(xc)   XCENC  =       235.26430740
  PAW double counting   =     46490.50182902   -46477.94096886
  entropy T*S    EENTRO =        -0.00000000
  eigenvalues    EBANDS =      -670.29074615
  atomic energy  EATOM  =      4089.63908172
  ---------------------------------------------------
  free energy    TOTEN  =       -70.39927634 eV

  energy without entropy =      -70.39927634  energy(sigma->0) =      -70.39927634


--------------------------------------------------------------------------------------------------------




--------------------------------------- Iteration      1(  25)  ---------------------------------------


    POTLOK:  cpu time      0.6309: real time      0.6311
    SETDIJ:  cpu time      0.0635: real time      0.0635
    TRIAL :  cpu time      0.1802: real time      0.1802
    CORREC:  cpu time      0.8658: real time      0.8660
    EDDIAG:  cpu time      0.1175: real time      0.1183
    CHARGE:  cpu time      0.0672: real time      0.0672
    --------------------------------------------
      LOOP:  cpu time      1.9367: real time      1.9573

 eigenvalue-minimisations  :     0
 total energy-change (2. order) :-0.3981404E-07  (-0.1287476E-07)
 number of electron      64.0000001 magnetization 
 augmentation part        0.2737257 magnetization 

 Free energy of the ion-electron system (eV)
  ---------------------------------------------------
  alpha Z        PSCENC =        64.50308324
  Ewald energy   TEWEN  =     -2171.10254707
  -Hartree energ DENC   =     -1630.97128618
  -exchange      EXHF   =         0.00000000
  -V(xc)+E(xc)   XCENC  =       235.26417145
  PAW double counting   =     46490.83520023   -46478.27431472
  entropy T*S    EENTRO =        -0.00000000
  eigenvalues    EBANDS =      -670.29266505
  atomic energy  EATOM  =      4089.63908172
  ---------------------------------------------------
  free energy    TOTEN  =       -70.39927638 eV

  energy without entropy =      -70.39927638  energy(sigma->0) =      -70.39927638


--------------------------------------------------------------------------------------------------------


  average scaling for gradient   0.6279


 average (electrostatic) potential at core
  the test charge radii are     0.5770  0.5955
  (the norm of the test charge is              1.0000)
       1 -86.3650       2 -86.3650       3 -86.3649       4 -86.3650       5-116.5187
       6-116.5187       7-116.5187       8-116.5187       9-116.5187      10-116.5187
      11-116.5187      12-116.5187



 E-fermi :  -3.2258     XC(G=0):  -7.9457     alpha+bet : -6.0625

 Fermi energy:        -3.2257525125

 k-point     1 :       0.0000    0.0000    0.0000
  band No.  band energies     occupation 
      1     -23.8189      2.00000
      2     -23.6131      2.00000
      3     -23.6131      2.00000
      4     -23.6131      2.00000
      5     -22.6956      2.00000
      6     -22.6956      2.00000
      7     -22.6956      2.00000
      8     -22.6423      2.00000
      9      -8.5811      2.00000
     10      -8.5811      2.00000
     11      -8.5811      2.00000
     12      -8.4059      2.00000
     13      -7.9514      2.00000
     14      -7.9514      2.00000
     15      -7.9514      2.00000
     16      -7.2139      2.00000
     17      -7.1865      2.00000
     18      -7.1865      2.00000
     19      -7.0628      2.00000
     20      -7.0628      2.00000
     21      -7.0628      2.00000
     22      -6.6143      2.00000
     23      -6.6143      2.00000
     24      -6.6143      2.00000
     25      -4.0432      2.00000
     26      -4.0432      2.00000
     27      -4.0432      2.00000
     28      -3.5004      2.00000
     29      -3.5004      2.00000
     30      -3.5004      2.00000
     31      -3.3105      2.00000
     32      -3.3105      2.00000
     33       3.5256      0.00000
     34       4.7409      0.00000
     35       4.7409      0.00000
     36       4.8261      0.00000
     37       4.9993      0.00000
     38       5.0995      0.00000
     39       5.5661      0.00000
     40       5.5729      0.00000

 k-point     2 :       0.2000    0.0000    0.0000
  band No.  band energies     occupation 
      1     -23.8004      2.00000
      2     -23.6342      2.00000
      3     -23.6130      2.00000
      4     -23.6130      2.00000
      5     -22.6946      2.00000
      6     -22.6944      2.00000
      7     -22.6906      2.00000
      8     -22.6475      2.00000
      9      -8.6160      2.00000
     10      -8.6118      2.00000
     11      -8.6036      2.00000
     12      -8.4802      2.00000
     13      -7.8594      2.00000
     14      -7.8508      2.00000
     15      -7.8296      2.00000
     16      -7.2678      2.00000
     17      -7.1956      2.00000
     18      -7.1290      2.00000
     19      -7.1122      2.00000
     20      -7.0915      2.00000
     21      -7.0290      2.00000
     22      -6.7107      2.00000
     23      -6.6687      2.00000
     24      -6.6537      2.00000
     25      -3.9762      2.00000
     26      -3.9725      2.00000
     27      -3.9691      2.00000
     28      -3.5228      2.00000
     29      -3.5211      2.00000
     30      -3.4736      2.00000
     31      -3.3741      2.00000
     32      -3.3216      2.00000
     33       3.7824      0.00000
     34       4.7075      0.00000
     35       4.8101      0.00000
     36       4.8220      0.00000
     37       4.9399      0.00000
     38       5.0241      0.00000
     39       5.4771      0.00000
     40       5.5134      0.00000

 k-point     3 :       0.4000    0.0000    0.0000
  band No.  band energies     occupation 
      1     -23.7510      2.00000
      2     -23.6876      2.00000
      3     -23.6128      2.00000
      4     -23.6128      2.00000
      5     -22.6928      2.00000
      6     -22.6926      2.00000
      7     -22.6774      2.00000
      8     -22.6609      2.00000
      9      -8.6485      2.00000
     10      -8.6417      2.00000
     11      -8.6400      2.00000
     12      -8.5897      2.00000
     13      -7.6710      2.00000
     14      -7.6540      2.00000
     15      -7.6249      2.00000
     16      -7.4332      2.00000
     17      -7.1913      2.00000
     18      -7.1814      2.00000
     19      -7.1507      2.00000
     20      -7.0414      2.00000
     21      -6.9792      2.00000
     22      -6.8429      2.00000
     23      -6.8067      2.00000
     24      -6.7518      2.00000
     25      -3.8404      2.00000
     26      -3.8352      2.00000
     27      -3.7779      2.00000
     28      -3.5845      2.00000
     29      -3.5812      2.00000
     30      -3.5493      2.00000
     31      -3.4135      2.00000
     32      -3.3564      2.00000
     33       4.5080      0.00000
     34       4.6804      0.00000
     35       4.7456      0.00000
     36       4.9311      0.00000
     37       5.0230      0.00000
     38       5.1356      0.00000
     39       5.2886      0.00000
     40       5.4021      0.00000

 k-point     4 :       0.2000    0.2000    0.0000
  band No.  band energies     occupation 
      1     -23.7834      2.00000
      2     -23.6319      2.00000
      3     -23.6319      2.00000
      4     -23.6148      2.00000
      5     -22.6936      2.00000
      6     -22.6901      2.00000
      7     -22.6899      2.00000
      8     -22.6521      2.00000
      9      -8.6440      2.00000
     10      -8.6345      2.00000
     11      -8.6100      2.00000
     12      -8.5061      2.00000
     13      -7.8490      2.00000
     14      -7.7914      2.00000
     15      -7.7123      2.00000
     16      -7.3491      2.00000
     17      -7.1805      2.00000
     18      -7.1161      2.00000
     19      -7.1019      2.00000
     20      -7.0546      2.00000
     21      -7.0259      2.00000
     22      -6.8405      2.00000
     23      -6.7046      2.00000
     24      -6.6473      2.00000
     25      -3.9223      2.00000
     26      -3.9105      2.00000
     27      -3.9087      2.00000
     28      -3.5381      2.00000
     29      -3.5016      2.00000
     30      -3.5002      2.00000
     31      -3.3998      2.00000
     32      -3.3623      2.00000
     33       4.0227      0.00000
     34       4.7078      0.00000
     35       4.7591      0.00000
     36       4.9106      0.00000
     37       4.9320      0.00000
     38       5.0377      0.00000
     39       5.4392      0.00000
     40       5.4874      0.00000

 k-point     5 :       0.4000    0.2000    0.0000
  band No.  band energies     occupation 
      1     -23.7381      2.00000
      2     -23.6803      2.00000
      3     -23.6262      2.00000
      4     -23.6197      2.00000
      5     -22.6913      2.00000
      6     -22.6899      2.00000
      7     -22.6786      2.00000
      8     -22.6642      2.00000
      9      -8.6701      2.00000
     10      -8.6524      2.00000
     11      -8.6279      2.00000
     12      -8.5759      2.00000
     13      -7.7337      2.00000
     14      -7.6639      2.00000
     15      -7.5615      2.00000
     16      -7.4694      2.00000
     17      -7.2622      2.00000
     18      -7.1850      2.00000
     19      -7.0449      2.00000
     20      -7.0107      2.00000
     21      -6.9337      2.00000
     22      -6.9279      2.00000
     23      -6.7971      2.00000
     24      -6.7453      2.00000
     25      -3.8068      2.00000
     26      -3.7969      2.00000
     27      -3.7418      2.00000
     28      -3.5829      2.00000
     29      -3.5727      2.00000
     30      -3.5417      2.00000
     31      -3.4537      2.00000
     32      -3.4060      2.00000
     33       4.6346      0.00000
     34       4.6514      0.00000
     35       4.6700      0.00000
     36       4.9600      0.00000
     37       5.0954      0.00000
     38       5.1228      0.00000
     39       5.2935      0.00000
     40       5.4050      0.00000

 k-point     6 :      -0.2000    0.4000    0.0000
  band No.  band energies     occupation 
      1     -23.7381      2.00000
      2     -23.6803      2.00000
      3     -23.6263      2.00000
      4     -23.6197      2.00000
      5     -22.6914      2.00000
      6     -22.6897      2.00000
      7     -22.6787      2.00000
      8     -22.6642      2.00000
      9      -8.6532      2.00000
     10      -8.6487      2.00000
     11      -8.6350      2.00000
     12      -8.5924      2.00000
     13      -7.6855      2.00000
     14      -7.6786      2.00000
     15      -7.5811      2.00000
     16      -7.5283      2.00000
     17      -7.1896      2.00000
     18      -7.0952      2.00000
     19      -7.0942      2.00000
     20      -7.0590      2.00000
     21      -7.0043      2.00000
     22      -6.8548      2.00000
     23      -6.8394      2.00000
     24      -6.7223      2.00000
     25      -3.8020      2.00000
     26      -3.7933      2.00000
     27      -3.7473      2.00000
     28      -3.5870      2.00000
     29      -3.5731      2.00000
     30      -3.5483      2.00000
     31      -3.4501      2.00000
     32      -3.4015      2.00000
     33       4.6440      0.00000
     34       4.6875      0.00000
     35       4.7349      0.00000
     36       4.8616      0.00000
     37       5.1359      0.00000
     38       5.2141      0.00000
     39       5.3101      0.00000
     40       5.3621      0.00000

 k-point     7 :       0.4000    0.4000    0.0000
  band No.  band energies     occupation 
      1     -23.7039      2.00000
      2     -23.6612      2.00000
      3     -23.6612      2.00000
      4     -23.6381      2.00000
      5     -22.6872      2.00000
      6     -22.6824      2.00000
      7     -22.6823      2.00000
      8     -22.6725      2.00000
      9      -8.6611      2.00000
     10      -8.6471      2.00000
     11      -8.6309      2.00000
     12      -8.6088      2.00000
     13      -7.6856      2.00000
     14      -7.6847      2.00000
     15      -7.6054      2.00000
     16      -7.5570      2.00000
     17      -7.2205      2.00000
     18      -7.1429      2.00000
     19      -7.0827      2.00000
     20      -7.0008      2.00000
     21      -6.8842      2.00000
     22      -6.8675      2.00000
     23      -6.8541      2.00000
     24      -6.7496      2.00000
     25      -3.7159      2.00000
     26      -3.6905      2.00000
     27      -3.6743      2.00000
     28      -3.5975      2.00000
     29      -3.5670      2.00000
     30      -3.5525      2.00000
     31      -3.5350      2.00000
     32      -3.5117      2.00000
     33       4.6341      0.00000
     34       4.6870      0.00000
     35       4.7484      0.00000
     36       4.7643      0.00000
     37       5.2516      0.00000
     38       5.3155      0.00000
     39       5.3610      0.00000
     40       5.5037      0.00000

 k-point     8 :       0.2000    0.2000    0.2000
  band No.  band energies     occupation 
      1     -23.7679      2.00000
      2     -23.6319      2.00000
      3     -23.6314      2.00000
      4     -23.6314      2.00000
      5     -22.6907      2.00000
      6     -22.6907      2.00000
      7     -22.6878      2.00000
      8     -22.6564      2.00000
      9      -8.6837      2.00000
     10      -8.6120      2.00000
     11      -8.6120      2.00000
     12      -8.5180      2.00000
     13      -7.8337      2.00000
     14      -7.8337      2.00000
     15      -7.6396      2.00000
     16      -7.3662      2.00000
     17      -7.1519      2.00000
     18      -7.1519      2.00000
     19      -7.0810      2.00000
     20      -7.0100      2.00000
     21      -7.0100      2.00000
     22      -6.9306      2.00000
     23      -6.6826      2.00000
     24      -6.6826      2.00000
     25      -3.8759      2.00000
     26      -3.8606      2.00000
     27      -3.8606      2.00000
     28      -3.5250      2.00000
     29      -3.5250      2.00000
     30      -3.5178      2.00000
     31      -3.4114      2.00000
     32      -3.4114      2.00000
     33       4.2534      0.00000
     34       4.6662      0.00000
     35       4.6886      0.00000
     36       4.9533      0.00000
     37       4.9659      0.00000
     38       5.0215      0.00000
     39       5.3730      0.00000
     40       5.5298      0.00000

 k-point     9 :       0.4000    0.2000    0.2000
  band No.  band energies     occupation 
      1     -23.7268      2.00000
      2     -23.6747      2.00000
      3     -23.6311      2.00000
      4     -23.6309      2.00000
      5     -22.6896      2.00000
      6     -22.6886      2.00000
      7     -22.6798      2.00000
      8     -22.6672      2.00000
      9      -8.6807      2.00000
     10      -8.6372      2.00000
     11      -8.6041      2.00000
     12      -8.5709      2.00000
     13      -7.7987      2.00000
     14      -7.7672      2.00000
     15      -7.6089      2.00000
     16      -7.4779      2.00000
     17      -7.1822      2.00000
     18      -7.1569      2.00000
     19      -7.0097      2.00000
     20      -6.9843      2.00000
     21      -6.9509      2.00000
     22      -6.8964      2.00000
     23      -6.7772      2.00000
     24      -6.7483      2.00000
     25      -3.7729      2.00000
     26      -3.7656      2.00000
     27      -3.7230      2.00000
     28      -3.5831      2.00000
     29      -3.5787      2.00000
     30      -3.5459      2.00000
     31      -3.4841      2.00000
     32      -3.4432      2.00000
     33       4.6129      0.00000
     34       4.6476      0.00000
     35       4.7896      0.00000
     36       4.9329      0.00000
     37       5.0044      0.00000
     38       5.2023      0.00000
     39       5.3717      0.00000
     40       5.5033      0.00000

 k-point    10 :       0.4000    0.4000    0.2000
  band No.  band energies     occupation 
      1     -23.6971      2.00000
      2     -23.6607      2.00000
      3     -23.6604      2.00000
      4     -23.6438      2.00000
      5     -22.6867      2.00000
      6     -22.6837      2.00000
      7     -22.6823      2.00000
      8     -22.6747      2.00000
      9      -8.6572      2.00000
     10      -8.6166      2.00000
     11      -8.5953      2.00000
     12      -8.5797      2.00000
     13      -7.8382      2.00000
     14      -7.8038      2.00000
     15      -7.7339      2.00000
     16      -7.6286      2.00000
     17      -7.1030      2.00000
     18      -7.0421      2.00000
     19      -6.9882      2.00000
     20      -6.9391      2.00000
     21      -6.8791      2.00000
     22      -6.8501      2.00000
     23      -6.8227      2.00000
     24      -6.7582      2.00000
     25      -3.6994      2.00000
     26      -3.6804      2.00000
     27      -3.6710      2.00000
     28      -3.6020      2.00000
     29      -3.5769      2.00000
     30      -3.5696      2.00000
     31      -3.5527      2.00000
     32      -3.5339      2.00000
     33       4.6205      0.00000
     34       4.6411      0.00000
     35       4.7729      0.00000
     36       4.7875      0.00000
     37       5.2668      0.00000
     38       5.3661      0.00000
     39       5.4154      0.00000
     40       5.6448      0.00000

 k-point    11 :       0.4000    0.4000    0.4000
  band No.  band energies     occupation 
      1     -23.6798      2.00000
      2     -23.6596      2.00000
      3     -23.6594      2.00000
      4     -23.6594      2.00000
      5     -22.6846      2.00000
      6     -22.6845      2.00000
      7     -22.6834      2.00000
      8     -22.6797      2.00000
      9      -8.6057      2.00000
     10      -8.5564      2.00000
     11      -8.5564      2.00000
     12      -8.5465      2.00000
     13      -7.9479      2.00000
     14      -7.9479      2.00000
     15      -7.9077      2.00000
     16      -7.8296      2.00000
     17      -6.9424      2.00000
     18      -6.9086      2.00000
     19      -6.9086      2.00000
     20      -6.8948      2.00000
     21      -6.8266      2.00000
     22      -6.8266      2.00000
     23      -6.7766      2.00000
     24      -6.7766      2.00000
     25      -3.6539      2.00000
     26      -3.6539      2.00000
     27      -3.6532      2.00000
     28      -3.6079      2.00000
     29      -3.6079      2.00000
     30      -3.5996      2.00000
     31      -3.5886      2.00000
     32      -3.5886      2.00000
     33       4.6430      0.00000
     34       4.6469      0.00000
     35       4.7333      0.00000
     36       4.7602      0.00000
     37       5.4593      0.00000
     38       5.5039      0.00000
     39       5.5343      0.00000
     40       5.6269      0.00000


--------------------------------------------------------------------------------------------------------


 soft charge-density along one line, spin component           1
         0         1         2         3         4         5         6         7         8         9
 total charge-density along one line

 pseudopotential strength for first ion, spin component:           1
 12.698  21.369  -0.000  -0.000  -0.000  -0.000  -0.000  -0.000
 21.369  35.962  -0.000  -0.000  -0.000  -0.000  -0.000  -0.000
 -0.000  -0.000  -3.167   0.004   0.004  -5.676   0.007   0.007
 -0.000  -0.000   0.004  -3.167   0.004   0.007  -5.676   0.007
 -0.000  -0.000   0.004   0.004  -3.167   0.007   0.007  -5.676
 -0.000  -0.000  -5.676   0.007   0.007 -10.151   0.012   0.012
 -0.000  -0.000   0.007  -5.676   0.007   0.012 -10.151   0.012
 -0.000  -0.000   0.007   0.007  -5.676   0.012   0.012 -10.151
 total augmentation occupancy for first ion, spin component:           1
  9.891  -3.896   0.000   0.000   0.000   0.000   0.000   0.000
 -3.896   1.682   0.000   0.000   0.000   0.000   0.000   0.000
  0.000   0.000   7.261   3.994   3.994  -2.611  -1.742  -1.742
  0.000   0.000   3.994   7.261   3.994  -1.742  -2.611  -1.742
  0.000   0.000   3.994   3.994   7.261  -1.742  -1.742  -2.611
  0.000   0.000  -2.611  -1.742  -1.742   0.984   0.753   0.753
  0.000   0.000  -1.742  -2.611  -1.742   0.753   0.984   0.753
  0.000   0.000  -1.742  -1.742  -2.611   0.753   0.753   0.984


------------------------ aborting loop because EDIFF is reached ----------------------------------------


    FORLOC:  cpu time      0.0015: real time      0.0015
    FORNL :  cpu time      0.0575: real time      0.0577
    FORCOR:  cpu time      0.6965: real time      0.6969
    OFIELD:  cpu time      0.0025: real time      0.0025

 VOLUME and BASIS-vectors are now :
 -----------------------------------------------------------------------------
  energy-cutoff  :     1000.00
  volume of cell :      177.88
      direct lattice vectors                 reciprocal lattice vectors
     5.624000000  0.000000000  0.000000000     0.177809388  0.000000000  0.000000000
     0.000000000  5.624000000  0.000000000     0.000000000  0.177809388  0.000000000
     0.000000000  0.000000000  5.624000000     0.000000000  0.000000000  0.177809388

  length of vectors
     5.624000000  5.624000000  5.624000000     0.177809388  0.177809388  0.177809388


 FORCES acting on ions:
    Electron-Ion                     Ewald-Force                    Non-Local-Force
 -----------------------------------------------------------------------------------------------
   -.153E-04 -.579E-05 0.239E-04   -.396E-04 -.449E-04 -.460E-04   -.164E-21 0.372E-22 -.199E-21
   0.753E-05 0.319E-04 0.363E-04   -.655E-05 -.202E-04 0.511E-05   -.870E-22 0.630E-21 -.429E-21
   0.152E-04 0.451E-04 0.282E-04   -.152E-04 0.645E-05 -.691E-05   -.438E-21 0.188E-22 -.128E-21
   0.259E-04 0.104E-04 0.127E-04   0.118E-04 -.979E-05 -.197E-04   -.174E-21 -.963E-22 -.228E-21
   -.106E+03 -.106E+03 -.106E+03   0.141E+03 0.141E+03 0.141E+03   -.351E+02 -.351E+02 -.351E+02
   0.106E+03 0.106E+03 0.106E+03   -.141E+03 -.141E+03 -.141E+03   0.351E+02 0.351E+02 0.351E+02
   0.106E+03 0.106E+03 -.106E+03   -.141E+03 -.141E+03 0.141E+03   0.351E+02 0.351E+02 -.351E+02
   -.106E+03 -.106E+03 0.106E+03   0.141E+03 0.141E+03 -.141E+03   -.351E+02 -.351E+02 0.351E+02
   0.106E+03 -.106E+03 0.106E+03   -.141E+03 0.141E+03 -.141E+03   0.351E+02 -.351E+02 0.351E+02
   -.106E+03 0.106E+03 -.106E+03   0.141E+03 -.141E+03 0.141E+03   -.351E+02 0.351E+02 -.351E+02
   -.106E+03 0.106E+03 0.106E+03   0.141E+03 -.141E+03 -.141E+03   -.351E+02 0.351E+02 0.351E+02
   0.106E+03 -.106E+03 -.106E+03   -.141E+03 0.141E+03 0.141E+03   0.351E+02 -.351E+02 -.351E+02
 -----------------------------------------------------------------------------------------------
   0.356E-03 0.546E-03 0.733E-03   0.284E-13 0.853E-13 -.568E-13   0.000E+00 -.711E-14 0.142E-13


 POSITION                                       TOTAL-FORCE (eV/Angst)
 -----------------------------------------------------------------------------------
      0.33737      0.33737      0.33737         0.000000     -0.000000     -0.000000
      3.14937      0.33737      3.14937         0.000000     -0.000000     -0.000000
      0.33737      3.14937      3.14937         0.000000     -0.000000     -0.000000
      3.14937      3.14937      0.33737         0.000000     -0.000000     -0.000000
      1.01211      1.01211      1.01211         0.170221      0.170221      0.170221
      5.28663      5.28663      5.28663        -0.170221     -0.170221     -0.170221
      2.47463      5.28663      3.82411        -0.170221     -0.170221      0.170221
      3.82411      1.01211      2.47463         0.170221      0.170221     -0.170221
      5.28663      3.82411      2.47463        -0.170221      0.170221     -0.170221
      1.01211      2.47463      3.82411         0.170221     -0.170221      0.170221
      3.82411      2.47463      5.28663         0.170221     -0.170221     -0.170221
      2.47463      3.82411      1.01211        -0.170221      0.170221      0.170221
 -----------------------------------------------------------------------------------
    total drift:                                0.000356      0.000546      0.000733


--------------------------------------------------------------------------------------------------------



  FREE ENERGIE OF THE ION-ELECTRON SYSTEM (eV)
  ---------------------------------------------------
  free  energy   TOTEN  =       -70.39927638 eV

  energy  without entropy=      -70.39927638  energy(sigma->0) =      -70.39927638



--------------------------------------------------------------------------------------------------------


    POTLOK:  cpu time      0.7023: real time      0.7026


--------------------------------------------------------------------------------------------------------


 stress matrix after NEB project (eV)
      0.00000      0.00000      0.00000
      0.00000      0.00000      0.00000
      0.00000      0.00000      0.00000
  FORCES: max atom, RMS     0.294832    0.240729
  FORCE total and by dimension    0.833910    0.170221
  Stress total and by dimension    0.000000    0.000000
     LOOP+:  cpu time     43.4965: real time     44.4387
    4ORBIT:  cpu time      0.0000: real time      0.0000

 total amount of memory used by VASP MPI-rank0    34643. kBytes
=======================================================================

   base      :      30000. kBytes
   nonl-proj :        640. kBytes
   fftplans  :        741. kBytes
   grid      :       1105. kBytes
   one-center:          3. kBytes
   wavefun   :       2154. kBytes

  
  
 General timing and accounting informations for this job:
 ========================================================
  
                  Total CPU time used (sec):       50.773
                            User time (sec):       48.863
                          System time (sec):        1.910
                         Elapsed time (sec):       51.979
  
                   Maximum memory used (kb):      195200.
                   Average memory used (kb):          N/A
  
                          Minor page faults:       121563
                          Major page faults:          556
                 Voluntary context switches:         3005
