 vasp.6.4.1 05Apr23 (build Jun  6 2023 14:36:51) complex                         
 executed on        HPECrayEX_GCC date 2024.08.20  14:17:41
 running  256 mpi-ranks, with    1 threads/rank, on    2 nodes
 distrk:  each k-point on  128 cores,    2 groups
 distr:  one band on NCORE=  32 cores,    4 groups


--------------------------------------------------------------------------------------------------------


 INCAR:
   ALGO = Conjugate
   KPAR = 2
   NCORE = 32
   ISMEAR = 0
   SIGMA = 0.01
   PREC = Accurate
   EDIFF = 1E-7
   ENCUT = 1000
   ISIF = 0
   METAGGA = SCAN
   LUSE_VDW = .TRUE.
   BPARAM = 15.7
   LASPH = .TRUE.
   SYMPREC = 1E-7
   NELM = 200
   LWAVE = .FALSE.
   LCHARGE = .FALSE.

 POTCAR:    PAW_PBE C_h 06Feb2004                 
 POTCAR:    PAW_PBE O_h 06Feb2004                 
 -----------------------------------------------------------------------------
|                                                                             |
|               ----> ADVICE to this user running VASP <----                  |
|                                                                             |
|     You have switched on vdW-DFT.                                           |
|     This routine was written and supplied by Jiri Klimes. We recommend      |
|     that you carefully read and cite the following publications:            |
|       J. Klimes, D.R. Bowler, A. Michelides                                 |
|          J. Phys.: Cond Matt. 22 022201 (2010)                              |
|       J. Klimes, D.R. Bowler, A. Michelides                                 |
|          Phys. Rev. B. 83, 195131 (2011)                                    |
|     and references therein.                                                 |
|                                                                             |
 -----------------------------------------------------------------------------

 POTCAR:    PAW_PBE C_h 06Feb2004                 
   VRHFIN =C: s2p2                                                                                  
   LEXCH  = PE                                                                                      
   EATOM  =   147.1560 eV,   10.8157 Ry                                                             
                                                                                                    
   TITEL  = PAW_PBE C_h 06Feb2004                                                                   
   LULTRA =        F    use ultrasoft PP ?                                                          
   IUNSCR =        1    unscreen: 0-lin 1-nonlin 2-no                                               
   RPACOR =    0.800    partial core radius                                                         
   POMASS =   12.011; ZVAL   =    4.000    mass and valenz                                          
   RCORE  =    1.100    outmost cutoff radius                                                       
   RWIGS  =    1.630; RWIGS  =    0.863    wigner-seitz radius (au A)                               
   ENMAX  =  700.000; ENMIN  =  500.000 eV                                                          
   ICORE  =        2    local potential                                                             
   LCOR   =        T    correct aug charges                                                         
   LPAW   =        T    paw PP                                                                      
   EAUG   =  946.768                                                                                
   DEXC   =    0.000                                                                                
   RMAX   =    1.128    core radius for proj-oper                                                   
   RAUG   =    1.300    factor for augmentation sphere                                              
   RDEP   =    1.162    radius for radial grids                                                     
   RDEPT  =    1.088    core radius for aug-charge                                                  
                                                                                                    
   Atomic configuration                                                                             
    4 entries                                                                                       
     n  l   j            E        occ.                                                              
     1  0  0.50      -273.3789   2.0000                                                             
     2  0  0.50       -13.7508   2.0000                                                             
     2  1  0.50        -5.2854   2.0000                                                             
     3  2  1.50        -5.4423   0.0000                                                             
   Description                                                                                      
     l       E           TYP  RCUT    TYP  RCUT                                                     
     0    -13.7508458     23  1.100                                                                 
     0     -8.2022199     23  1.100                                                                 
     1     -5.2854383     23  1.100                                                                 
     1      1.1560700     23  1.100                                                                 
     2     -5.4423304      7  1.100                                                                 
  local pseudopotential read in
  partial core-charges read in
  partial kinetic energy density read in
  atomic valenz-charges read in
  non local Contribution for L=           0  read in
    real space projection operators read in
  non local Contribution for L=           0  read in
    real space projection operators read in
  non local Contribution for L=           1  read in
    real space projection operators read in
  non local Contribution for L=           1  read in
    real space projection operators read in
    PAW grid and wavefunctions read in

   number of l-projection  operators is LMAX  =           4
   number of lm-projection operators is LMMAX =           8

 POTCAR:    PAW_PBE O_h 06Feb2004                 
   VRHFIN =O: s2p4                                                                                  
   LEXCH  = PE                                                                                      
   EATOM  =   432.3788 eV,   31.7789 Ry                                                             
                                                                                                    
   TITEL  = PAW_PBE O_h 06Feb2004                                                                   
   LULTRA =        F    use ultrasoft PP ?                                                          
   IUNSCR =        1    unscreen: 0-lin 1-nonlin 2-no                                               
   RPACOR =    0.800    partial core radius                                                         
   POMASS =   16.000; ZVAL   =    6.000    mass and valenz                                          
   RCORE  =    1.100    outmost cutoff radius                                                       
   RWIGS  =    1.400; RWIGS  =    0.741    wigner-seitz radius (au A)                               
   ENMAX  =  700.000; ENMIN  =  500.000 eV                                                          
   ICORE  =        2    local potential                                                             
   LCOR   =        T    correct aug charges                                                         
   LPAW   =        T    paw PP                                                                      
   EAUG   =  888.804                                                                                
   DEXC   =    0.000                                                                                
   RMAX   =    1.128    core radius for proj-oper                                                   
   RAUG   =    1.300    factor for augmentation sphere                                              
   RDEP   =    1.125    radius for radial grids                                                     
   RDEPT  =    1.088    core radius for aug-charge                                                  
                                                                                                    
   Atomic configuration                                                                             
    4 entries                                                                                       
     n  l   j            E        occ.                                                              
     1  0  0.50      -514.6923   2.0000                                                             
     2  0  0.50       -23.9615   2.0000                                                             
     2  1  0.50        -9.0305   4.0000                                                             
     3  2  1.50        -9.5241   0.0000                                                             
   Description                                                                                      
     l       E           TYP  RCUT    TYP  RCUT                                                     
     0    -23.9615319     23  1.100                                                                 
     0    -25.3221145     23  1.100                                                                 
     1     -9.0304911     23  1.100                                                                 
     1     -5.4802209     23  1.100                                                                 
     2     -9.5240782      7  1.100                                                                 
  local pseudopotential read in
  partial core-charges read in
  partial kinetic energy density read in
  atomic valenz-charges read in
  non local Contribution for L=           0  read in
    real space projection operators read in
  non local Contribution for L=           0  read in
    real space projection operators read in
  non local Contribution for L=           1  read in
    real space projection operators read in
  non local Contribution for L=           1  read in
    real space projection operators read in
    PAW grid and wavefunctions read in

   number of l-projection  operators is LMAX  =           4
   number of lm-projection operators is LMMAX =           8

  PAW_PBE C_h 06Feb2004                 :
 energy of atom  1       EATOM= -147.1560
 kinetic energy error for atom=    0.0031 (will be added to EATOM!!)
  PAW_PBE O_h 06Feb2004                 :
 energy of atom  2       EATOM= -432.3788
 kinetic energy error for atom=    0.0171 (will be added to EATOM!!)


 POSCAR:  C  O
  positions in cartesian coordinates
  No initial velocities read in

 METAGGA = SCAN                                        LMAXTAU =  6    LMIXTAU =  F

 exchange correlation table for  LEXCH =        8
   RHO(1)=    0.500       N(1)  =     2000
   RHO(2)=  100.500       N(2)  =     4000

 VTST: version 4.1, (05/19/21)

 CHAIN: initializing optimizer
 
 OPT: Using VASP Dynamics algorithm
 CHAIN: Read ICHAIN            0

 POSCAR:  C  O
  positions in cartesian coordinates
  No initial velocities read in



--------------------------------------------------------------------------------------------------------


 ion  position               nearest neighbor table
   1  0.060  0.060  0.060-   5 1.17   6 1.17
   2  0.560  0.060  0.560-   8 1.17   7 1.17
   3  0.060  0.560  0.560-  10 1.17   9 1.17
   4  0.560  0.560  0.060-  12 1.17  11 1.17
   5  0.180  0.180  0.180-   1 1.17
   6  0.940  0.940  0.940-   1 1.17
   7  0.440  0.940  0.680-   2 1.17
   8  0.680  0.180  0.440-   2 1.17
   9  0.940  0.680  0.440-   3 1.17
  10  0.180  0.440  0.680-   3 1.17
  11  0.680  0.440  0.940-   4 1.17
  12  0.440  0.680  0.180-   4 1.17

  LATTYP: Found a simple cubic cell.
 ALAT       =     5.6240000000
  
  Lattice vectors:
  
 A1 = (   5.6240000000,   0.0000000000,   0.0000000000)
 A2 = (   0.0000000000,   5.6240000000,   0.0000000000)
 A3 = (   0.0000000000,   0.0000000000,   5.6240000000)


Analysis of symmetry for initial positions (statically):
=====================================================================
 Subroutine PRICEL returns:
 Original cell was already a primitive cell.
 

 Routine SETGRP: Setting up the symmetry group for a 
 simple cubic supercell.


 Subroutine GETGRP returns: Found 24 space group operations
 (whereof  3 operations were pure point group operations)
 out of a pool of 48 trial point group operations.


The static configuration has the point symmetry C_3 .
 The point group associated with its full space group is T_h .


Analysis of symmetry for dynamics (positions and initial velocities):
=====================================================================
 Subroutine PRICEL returns:
 Original cell was already a primitive cell.
 

 Routine SETGRP: Setting up the symmetry group for a 
 simple cubic supercell.


 Subroutine GETGRP returns: Found 24 space group operations
 (whereof  3 operations were pure point group operations)
 out of a pool of 48 trial point group operations.


The dynamic configuration has the point symmetry C_3 .
 The point group associated with its full space group is T_h .


 Subroutine INISYM returns: Found 24 space group operations
 (whereof  3 operations are pure point group operations),
 and found     1 'primitive' translations


----------------------------------------------------------------------------------------

                                     Primitive cell                                     

  volume of cell :     177.8836

  direct lattice vectors                    reciprocal lattice vectors
     5.624000000  0.000000000  0.000000000     0.177809388  0.000000000  0.000000000
     0.000000000  5.624000000  0.000000000     0.000000000  0.177809388  0.000000000
     0.000000000  0.000000000  5.624000000     0.000000000  0.000000000  0.177809388

  length of vectors
     5.624000000  5.624000000  5.624000000     0.177809388  0.177809388  0.177809388

  position of ions in fractional coordinates (direct lattice)
     0.059987786  0.059987776  0.059987775
     0.559987778  0.059987768  0.559987763
     0.059987778  0.559987765  0.559987768
     0.559987773  0.559987770  0.059987770
     0.179963330  0.179963313  0.179963318
     0.940012222  0.940012223  0.940012218
     0.440012229  0.940012232  0.679963321
     0.679963320  0.179963309  0.440012217
     0.940012202  0.679963342  0.440012187
     0.179963354  0.440012195  0.679963346
     0.679963307  0.440012225  0.940012230
     0.440012246  0.679963308  0.179963311

  ion indices of the primitive-cell ions
   primitive index   ion index
                 1           1
                 2           2
                 3           3
                 4           4
                 5           5
                 6           6
                 7           7
                 8           8
                 9           9
                10          10
                11          11
                12          12

----------------------------------------------------------------------------------------



 KPOINTS: auto                                    

Automatic generation of k-mesh.
 Grid dimensions read from file:
 generate k-points for:    5    5    5

 Generating k-lattice:

  Cartesian coordinates                     Fractional coordinates (reciprocal lattice)
     0.035561878  0.000000000  0.000000000     0.200000000  0.000000000  0.000000000
     0.000000000  0.035561878  0.000000000     0.000000000  0.200000000  0.000000000
     0.000000000  0.000000000  0.035561878     0.000000000  0.000000000  0.200000000

  Length of vectors
     0.035561878  0.035561878  0.035561878

  Shift w.r.t. Gamma in fractional coordinates (k-lattice)
     0.000000000  0.000000000  0.000000000

 
 Subroutine IBZKPT returns following result:
 ===========================================
 
 Found     11 irreducible k-points:
 
 Following reciprocal coordinates:
            Coordinates               Weight
  0.000000  0.000000  0.000000      1.000000
  0.200000  0.000000  0.000000      6.000000
  0.400000  0.000000  0.000000      6.000000
  0.200000  0.200000  0.000000     12.000000
  0.400000  0.200000  0.000000     12.000000
 -0.200000  0.400000  0.000000     12.000000
  0.400000  0.400000  0.000000     12.000000
  0.200000  0.200000  0.200000      8.000000
  0.400000  0.200000  0.200000     24.000000
  0.400000  0.400000  0.200000     24.000000
  0.400000  0.400000  0.400000      8.000000
 
 Following cartesian coordinates:
            Coordinates               Weight
  0.000000  0.000000  0.000000      1.000000
  0.035562  0.000000  0.000000      6.000000
  0.071124  0.000000  0.000000      6.000000
  0.035562  0.035562  0.000000     12.000000
  0.071124  0.035562  0.000000     12.000000
 -0.035562  0.071124  0.000000     12.000000
  0.071124  0.071124  0.000000     12.000000
  0.035562  0.035562  0.035562      8.000000
  0.071124  0.035562  0.035562     24.000000
  0.071124  0.071124  0.035562     24.000000
  0.071124  0.071124  0.071124      8.000000
 


--------------------------------------------------------------------------------------------------------




 Dimension of arrays:
   k-points           NKPTS =     11   k-points in BZ     NKDIM =     11   number of bands    NBANDS=     40
   number of dos      NEDOS =    301   number of ions     NIONS =     12
   non local maximal  LDIM  =      4   non local SUM 2l+1 LMDIM =      8
   total plane-waves  NPLWV = 216000
   max r-space proj   IRMAX =      1   max aug-charges    IRDMAX=   9054
   dimension x,y,z NGX =    60 NGY =   60 NGZ =   60
   dimension x,y,z NGXF=   120 NGYF=  120 NGZF=  120
   support grid    NGXF=   120 NGYF=  120 NGZF=  120
   ions per type =               4   8
   NGX,Y,Z   is equivalent  to a cutoff of  17.74, 17.74, 17.74 a.u.
   NGXF,Y,Z  is equivalent  to a cutoff of  35.47, 35.47, 35.47 a.u.

 SYSTEM =  unknown system                          
 POSCAR =   C  O                                   

 Startparameter for this run:
   NWRITE =      2    write-flag & timer
   PREC   = accura    normal or accurate (medium, high low for compatibility)
   ISTART =      0    job   : 0-new  1-cont  2-samecut
   ICHARG =      2    charge: 1-file 2-atom 10-const
   ISPIN  =      1    spin polarized calculation?
   LNONCOLLINEAR =      F non collinear calculations
   LSORBIT =      F    spin-orbit coupling
   INIWAV =      1    electr: 0-lowe 1-rand  2-diag
   LASPH  =      T    aspherical Exc in radial PAW
 Electronic Relaxation 1
   ENCUT  = 1000.0 eV  73.50 Ry    8.57 a.u.  14.50 14.50 14.50*2*pi/ulx,y,z
   ENINI  = 1000.0     initial cutoff
   ENAUG  =  946.8 eV  augmentation charge cutoff
   NELM   =    200;   NELMIN=  2; NELMDL= -5     # of ELM steps 
   EDIFF  = 0.1E-06   stopping-criterion for ELM
   LREAL  =      F    real-space projection
   NLSPLINE    = F    spline interpolate recip. space projectors
   LCOMPAT=      F    compatible to vasp.4.4
   GGA_COMPAT  = T    GGA compatible to vasp.4.4-vasp.4.6
   LMAXPAW     = -100 max onsite density
   LMAXMIX     =    2 max onsite mixed and CHGCAR
   VOSKOWN=      0    Vosko Wilk Nusair interpolation
   ROPT   =    0.00000   0.00000
 Ionic relaxation
   EDIFFG = 0.1E-05   stopping-criterion for IOM
   NSW    =      0    number of steps for IOM
   NBLOCK =      1;   KBLOCK =      1    inner block; outer block 
   IBRION =     -1    ionic relax: 0-MD 1-quasi-New 2-CG
   NFREE  =      0    steps in history (QN), initial steepest desc. (CG)
   ISIF   =      0    stress and relaxation
   IWAVPR =     10    prediction:  0-non 1-charg 2-wave 3-comb
   ISYM   =      2    0-nonsym 1-usesym 2-fastsym
   LCORR  =      T    Harris-Foulkes like correction to forces

   POTIM  = 0.5000    time-step for ionic-motion
   TEIN   =    0.0    initial temperature
   TEBEG  =    0.0;   TEEND  =   0.0 temperature during run
   SMASS  =  -3.00    Nose mass-parameter (am)
   estimated Nose-frequenzy (Omega)   =  0.10E-29 period in steps = 0.13E+47 mass=  -0.723E-27a.u.
   SCALEE = 1.0000    scale energy and forces
   NPACO  =    256;   APACO  = 10.0  distance and # of slots for P.C.
   PSTRESS=    0.0 pullay stress

  Mass of Ions in am
   POMASS =  12.01 16.00
  Ionic Valenz
   ZVAL   =   4.00  6.00
  Atomic Wigner-Seitz radii
   RWIGS  =  -1.00 -1.00
  virtual crystal weights 
   VCA    =   1.00  1.00
   NELECT =      64.0000    total number of electrons
   NUPDOWN=      -1.0000    fix difference up-down

 DOS related values:
   EMIN   =  10.00;   EMAX   =-10.00  energy-range for DOS
   EFERMI =   0.00;   METHOD = LEGACY      
   ISMEAR =     0;   SIGMA  =   0.01  broadening in eV -4-tet -1-fermi 0-gaus

 Electronic relaxation 2 (details)
   IALGO  =     58    algorithm
   LDIAG  =      T    sub-space diagonalisation (order eigenvalues)
   LSUBROT=      F    optimize rotation matrix (better conditioning)
   TURBO    =      0    0=normal 1=particle mesh
   IRESTART =      0    0=no restart 2=restart with 2 vectors
   NREBOOT  =      0    no. of reboots
   NMIN     =      0    reboot dimension
   EREF     =   0.00    reference energy to select bands
   IMIX   =      4    mixing-type and parameters
     AMIX     =   0.40;   BMIX     =  1.00
     AMIX_MAG =   1.60;   BMIX_MAG =  1.00
     AMIN     =   0.10
     WC   =   100.;   INIMIX=   1;  MIXPRE=   1;  MAXMIX= -45

 Intra band minimization:
   WEIMIN = 0.0000     energy-eigenvalue tresh-hold
   EBREAK =  0.63E-09  absolut break condition
   DEPER  =   0.30     relativ break condition  

   TIME   =   0.40     timestep for ELM

  volume/ion in A,a.u.               =      14.82       100.03
  Fermi-wavevector in a.u.,A,eV,Ry     =   1.164366  2.200333 18.446073  1.355748
  Thomas-Fermi vector in A             =   2.300905

 Write flags
   LWAVE        =      F    write WAVECAR
   LDOWNSAMPLE  =      F    k-point downsampling of WAVECAR
   LCHARG       =      T    write CHGCAR
   LVTOT        =      F    write LOCPOT, total local potential
   LVHAR        =      F    write LOCPOT, Hartree potential only
   LELF         =      F    write electronic localiz. function (ELF)
   LORBIT       =      0    0 simple, 1 ext, 2 COOP (PROOUT), +10 PAW based schemes


 Dipole corrections
   LMONO  =      F    monopole corrections only (constant potential shift)
   LDIPOL =      F    correct potential (dipole corrections)
   IDIPOL =      0    1-x, 2-y, 3-z, 4-all directions 
   EPSILON=  1.0000000 bulk dielectric constant

 Exchange correlation treatment:
   GGA     =    --    GGA type
   LEXCH   =     8    internal setting for exchange type
   LIBXC   =     F    Libxc                    
   VOSKOWN =     0    Vosko Wilk Nusair interpolation
   LHFCALC =     F    Hartree Fock is set to
   LHFONE  =     F    Hartree Fock one center treatment
   AEXX    =    0.0000 exact exchange contribution

 vdW DFT:
   LUSE_VDW   =     T    switch on vdW DFT
   IVDW_NL    =     2    kernel type
   LSPIN_VDW  =     F    use spin-polarized vdW DFT
   Zab_VDW    =-.8491    correlation parameter
   PARAM1     =0.1234
   PARAM2     =1.0000
   PARAM3     =0.0000
   -- rVV10 --
   BPARAM     =15.7000
   CPARAM     = 0.0093

 Linear response parameters
   LEPSILON=     F    determine dielectric tensor
   LRPA    =     F    only Hartree local field effects (RPA)
   LNABLA  =     F    use nabla operator in PAW spheres
   LVEL    =     F    velocity operator in full k-point grid
   CSHIFT  =0.1000    complex shift for real part using Kramers Kronig
   OMEGAMAX=  -1.0    maximum frequency
   DEG_THRESHOLD= 0.2000000E-02 threshold for treating states as degnerate
   RTIME   =   -0.100 relaxation time in fs
  (WPLASMAI=    0.000 imaginary part of plasma frequency in eV, 0.658/RTIME)
   DFIELD  = 0.0000000 0.0000000 0.0000000 field for delta impulse in time

  Optional k-point grid parameters
   LKPOINTS_OPT  =     F    use optional k-point grid
   KPOINTS_OPT_MODE=     1    mode for optional k-point grid

 Orbital magnetization related:
   ORBITALMAG=     F  switch on orbital magnetization
   LCHIMAG   =     F  perturbation theory with respect to B field
   DQ        =  0.001000  dq finite difference perturbation B field
   LLRAUG    =     F  two centre corrections for induced B field
   LBONE     =     F  B-component reconstruction in AE one-centre
   LVGVCALC  =     T  calculate vGv susceptibility
   LVGVAPPL  =     F  apply vGv susceptibility instead of pGv for G=0

 Random number generation:
   RANDOM_GENERATOR = DEFAULT
   PCG_SEED         = not used


--------------------------------------------------------------------------------------------------------


 Static calculation
 charge density and potential will be updated during run
 non-spin polarized calculation
 Conjugate gradient for all bands (Freysoldt, et al. PRB 79, 241103 (2009))
 preconditioned conjugated gradient                                        
 perform sub-space diagonalisation
    before iterative eigenvector-optimisation
 modified Broyden-mixing scheme, WC =      100.0
 initial mixing is a Kerker type mixing with AMIX =  0.4000 and BMIX =      1.0000
 Hartree-type preconditioning will be used
 using additional bands            8
 reciprocal scheme for non local part
 use partial core corrections
 no Harris-corrections to forces 
 use gradient corrections 
 use of overlap-Matrix (Vanderbilt PP)
 Gauss-broadening in eV      SIGMA  =   0.01


--------------------------------------------------------------------------------------------------------


  energy-cutoff  :     1000.00
  volume of cell :      177.88
      direct lattice vectors                 reciprocal lattice vectors
     5.624000000  0.000000000  0.000000000     0.177809388  0.000000000  0.000000000
     0.000000000  5.624000000  0.000000000     0.000000000  0.177809388  0.000000000
     0.000000000  0.000000000  5.624000000     0.000000000  0.000000000  0.177809388

  length of vectors
     5.624000000  5.624000000  5.624000000     0.177809388  0.177809388  0.177809388



 k-points in units of 2pi/SCALE and weight: auto                                    
   0.00000000  0.00000000  0.00000000       0.008
   0.03556188  0.00000000  0.00000000       0.048
   0.07112376  0.00000000  0.00000000       0.048
   0.03556188  0.03556188  0.00000000       0.096
   0.07112376  0.03556188  0.00000000       0.096
  -0.03556188  0.07112376  0.00000000       0.096
   0.07112376  0.07112376  0.00000000       0.096
   0.03556188  0.03556188  0.03556188       0.064
   0.07112376  0.03556188  0.03556188       0.192
   0.07112376  0.07112376  0.03556188       0.192
   0.07112376  0.07112376  0.07112376       0.064

 k-points in reciprocal lattice and weights: auto                                    
   0.00000000  0.00000000  0.00000000       0.008
   0.20000000  0.00000000  0.00000000       0.048
   0.40000000  0.00000000  0.00000000       0.048
   0.20000000  0.20000000  0.00000000       0.096
   0.40000000  0.20000000  0.00000000       0.096
  -0.20000000  0.40000000  0.00000000       0.096
   0.40000000  0.40000000  0.00000000       0.096
   0.20000000  0.20000000  0.20000000       0.064
   0.40000000  0.20000000  0.20000000       0.192
   0.40000000  0.40000000  0.20000000       0.192
   0.40000000  0.40000000  0.40000000       0.064

 position of ions in fractional coordinates (direct lattice) 
   0.05998779  0.05998778  0.05998778
   0.55998778  0.05998777  0.55998776
   0.05998778  0.55998777  0.55998777
   0.55998777  0.55998777  0.05998777
   0.17996333  0.17996331  0.17996332
   0.94001222  0.94001222  0.94001222
   0.44001223  0.94001223  0.67996332
   0.67996332  0.17996331  0.44001222
   0.94001220  0.67996334  0.44001219
   0.17996335  0.44001220  0.67996335
   0.67996331  0.44001223  0.94001223
   0.44001225  0.67996331  0.17996331

 position of ions in cartesian coordinates  (Angst):
   0.33737131  0.33737125  0.33737125
   3.14937126  0.33737121  3.14937118
   0.33737126  3.14937119  3.14937121
   3.14937123  3.14937122  0.33737122
   1.01211377  1.01211367  1.01211370
   5.28662874  5.28662874  5.28662871
   2.47462878  5.28662879  3.82411372
   3.82411371  1.01211365  2.47462871
   5.28662862  3.82411384  2.47462854
   1.01211391  2.47462859  3.82411386
   3.82411364  2.47462875  5.28662878
   2.47462887  3.82411364  1.01211366



--------------------------------------------------------------------------------------------------------


 k-point   1 :   0.0000 0.0000 0.0000  plane waves:   12893
 k-point   2 :   0.2000 0.0000 0.0000  plane waves:   12817
 k-point   3 :   0.4000 0.0000 0.0000  plane waves:   12773
 k-point   4 :   0.2000 0.2000 0.0000  plane waves:   12779
 k-point   5 :   0.4000 0.2000 0.0000  plane waves:   12768
 k-point   6 :  -0.2000 0.4000 0.0000  plane waves:   12768
 k-point   7 :   0.4000 0.4000 0.0000  plane waves:   12758
 k-point   8 :   0.2000 0.2000 0.2000  plane waves:   12782
 k-point   9 :   0.4000 0.2000 0.2000  plane waves:   12778
 k-point  10 :   0.4000 0.4000 0.2000  plane waves:   12779
 k-point  11 :   0.4000 0.4000 0.4000  plane waves:   12769

 maximum and minimum number of plane-waves per node :       416      382

 maximum number of plane-waves:     12893
 maximum index in each direction: 
   IXMAX=   14   IYMAX=   14   IZMAX=   14
   IXMIN=  -14   IYMIN=  -14   IZMIN=  -14


 parallel 3D FFT for wavefunctions:
    minimum data exchange during FFTs selected (reduces bandwidth)
 parallel 3D FFT for charge:
    minimum data exchange during FFTs selected (reduces bandwidth)


 total amount of memory used by VASP MPI-rank0    34990. kBytes
=======================================================================

   base      :      30000. kBytes
   nonl-proj :        640. kBytes
   fftplans  :        741. kBytes
   grid      :       1452. kBytes
   one-center:          3. kBytes
   wavefun   :       2154. kBytes

     INWAV:  cpu time      0.0001: real time      0.0003
 Broyden mixing: mesh for mixing (old mesh)
   NGX = 29   NGY = 29   NGZ = 29
  (NGX  =120   NGY  =120   NGZ  =120)
  gives a total of  24389 points

 initial charge density was supplied:
 charge density of overlapping atoms calculated
 number of electron      64.0000000 magnetization 
 keeping initial charge density in first step


--------------------------------------------------------------------------------------------------------


 Maximum index for augmentation-charges          345 (set IRDMAX)


--------------------------------------------------------------------------------------------------------


 First call to EWALD:  gamma=   0.315
 Maximum number of real-space cells 3x 3x 3
 Maximum number of reciprocal cells 3x 3x 3

    FEWALD:  cpu time      0.0244: real time      0.0244


--------------------------------------- Ionic step        1  -------------------------------------------




--------------------------------------- Iteration      1(   1)  ---------------------------------------


    POTLOK:  cpu time      0.6115: real time      0.6128
    SETDIJ:  cpu time      0.3153: real time      0.3162
    TRIAL :  cpu time      0.4080: real time      0.4106
    CORREC:  cpu time      0.0011: real time      0.0011
    --------------------------------------------
      LOOP:  cpu time      1.3375: real time      1.3423

 eigenvalue-minimisations  :   880
 total energy-change (2. order) : 0.6914863E+03  (-0.4942940E+04)
 number of electron      64.0000000 magnetization 
 augmentation part       64.0000000 magnetization 

 Free energy of the ion-electron system (eV)
  ---------------------------------------------------
  alpha Z        PSCENC =        64.50308324
  Ewald energy   TEWEN  =     -2171.10254707
  -Hartree energ DENC   =     -1496.95817215
  -exchange      EXHF   =         0.00000000
  -V(xc)+E(xc)   XCENC  =       295.69489283
  PAW double counting   =      3167.71888547    -3185.32260008
  entropy T*S    EENTRO =        -0.00032068
  eigenvalues    EBANDS =       -30.55256497
  atomic energy  EATOM  =      4047.50565470
  ---------------------------------------------------
  free energy    TOTEN  =       691.48631129 eV

  energy without entropy =      691.48663197  energy(sigma->0) =      691.48647163


--------------------------------------------------------------------------------------------------------




--------------------------------------- Iteration      1(   2)  ---------------------------------------


    TRIAL :  cpu time      0.4618: real time      0.4621
    CORREC:  cpu time      0.0001: real time      0.0001
    --------------------------------------------
      LOOP:  cpu time      0.4774: real time      0.4927

 eigenvalue-minimisations  :  1280
 total energy-change (2. order) :-0.7192124E+03  (-0.6963195E+03)
 number of electron      64.0000000 magnetization 
 augmentation part       64.0000000 magnetization 

 Free energy of the ion-electron system (eV)
  ---------------------------------------------------
  alpha Z        PSCENC =        64.50308324
  Ewald energy   TEWEN  =     -2171.10254707
  -Hartree energ DENC   =     -1496.95817215
  -exchange      EXHF   =         0.00000000
  -V(xc)+E(xc)   XCENC  =       295.69489283
  PAW double counting   =      3167.71888547    -3185.32260008
  entropy T*S    EENTRO =        -0.00000000
  eigenvalues    EBANDS =      -749.76531037
  atomic energy  EATOM  =      4047.50565470
  ---------------------------------------------------
  free energy    TOTEN  =       -27.72611343 eV

  energy without entropy =      -27.72611343  energy(sigma->0) =      -27.72611343


--------------------------------------------------------------------------------------------------------




--------------------------------------- Iteration      1(   3)  ---------------------------------------


    TRIAL :  cpu time      0.4003: real time      0.4004
    CORREC:  cpu time      0.0001: real time      0.0001
    --------------------------------------------
      LOOP:  cpu time      0.4141: real time      0.4290

 eigenvalue-minimisations  :  1048
 total energy-change (2. order) :-0.1037546E+03  (-0.1028234E+03)
 number of electron      64.0000000 magnetization 
 augmentation part       64.0000000 magnetization 

 Free energy of the ion-electron system (eV)
  ---------------------------------------------------
  alpha Z        PSCENC =        64.50308324
  Ewald energy   TEWEN  =     -2171.10254707
  -Hartree energ DENC   =     -1496.95817215
  -exchange      EXHF   =         0.00000000
  -V(xc)+E(xc)   XCENC  =       295.69489283
  PAW double counting   =      3167.71888547    -3185.32260008
  entropy T*S    EENTRO =        -0.00000000
  eigenvalues    EBANDS =      -853.51995845
  atomic energy  EATOM  =      4047.50565470
  ---------------------------------------------------
  free energy    TOTEN  =      -131.48076150 eV

  energy without entropy =     -131.48076150  energy(sigma->0) =     -131.48076150


--------------------------------------------------------------------------------------------------------




--------------------------------------- Iteration      1(   4)  ---------------------------------------


    TRIAL :  cpu time      0.4288: real time      0.4291
    CORREC:  cpu time      0.0002: real time      0.0002
    --------------------------------------------
      LOOP:  cpu time      0.4574: real time      0.4580

 eigenvalue-minimisations  :  1176
 total energy-change (2. order) :-0.3596497E+01  (-0.3578349E+01)
 number of electron      64.0000000 magnetization 
 augmentation part       64.0000000 magnetization 

 Free energy of the ion-electron system (eV)
  ---------------------------------------------------
  alpha Z        PSCENC =        64.50308324
  Ewald energy   TEWEN  =     -2171.10254707
  -Hartree energ DENC   =     -1496.95817215
  -exchange      EXHF   =         0.00000000
  -V(xc)+E(xc)   XCENC  =       295.69489283
  PAW double counting   =      3167.71888547    -3185.32260008
  entropy T*S    EENTRO =        -0.00000000
  eigenvalues    EBANDS =      -857.11645511
  atomic energy  EATOM  =      4047.50565470
  ---------------------------------------------------
  free energy    TOTEN  =      -135.07725817 eV

  energy without entropy =     -135.07725817  energy(sigma->0) =     -135.07725817


--------------------------------------------------------------------------------------------------------




--------------------------------------- Iteration      1(   5)  ---------------------------------------


    TRIAL :  cpu time      0.4143: real time      0.4143
    CORREC:  cpu time      0.0001: real time      0.0001
    CHARGE:  cpu time      0.4709: real time      0.4718
    --------------------------------------------
      LOOP:  cpu time      0.8974: real time      0.9161

 eigenvalue-minimisations  :  1104
 total energy-change (2. order) :-0.1242189E+00  (-0.1239708E+00)
 number of electron      64.0000001 magnetization 
 augmentation part        0.3388335 magnetization 

 Free energy of the ion-electron system (eV)
  ---------------------------------------------------
  alpha Z        PSCENC =        64.50308324
  Ewald energy   TEWEN  =     -2171.10254707
  -Hartree energ DENC   =     -1496.95817215
  -exchange      EXHF   =         0.00000000
  -V(xc)+E(xc)   XCENC  =       295.69489283
  PAW double counting   =      3167.71888547    -3185.32260008
  entropy T*S    EENTRO =        -0.00000000
  eigenvalues    EBANDS =      -857.24067404
  atomic energy  EATOM  =      4047.50565470
  ---------------------------------------------------
  free energy    TOTEN  =      -135.20147709 eV

  energy without entropy =     -135.20147709  energy(sigma->0) =     -135.20147709


--------------------------------------------------------------------------------------------------------




--------------------------------------- Iteration      1(   6)  ---------------------------------------


    POTLOK:  cpu time      0.4692: real time      0.4692
    SETDIJ:  cpu time      0.3091: real time      0.3091
    TRIAL :  cpu time      0.3259: real time      0.3277
    CORREC:  cpu time      1.3425: real time      1.3432
    CHARGE:  cpu time      0.4936: real time      0.4941
    --------------------------------------------
      LOOP:  cpu time      2.9540: real time      2.9730

 eigenvalue-minimisations  :     0
 total energy-change (2. order) : 0.3682265E+02  (-0.6080167E+01)
 number of electron      64.0000000 magnetization 
 augmentation part        0.2551086 magnetization 

 Free energy of the ion-electron system (eV)
  ---------------------------------------------------
  alpha Z        PSCENC =        64.50308324
  Ewald energy   TEWEN  =     -2171.10254707
  -Hartree energ DENC   =     -1753.02666712
  -exchange      EXHF   =         0.00000000
  -V(xc)+E(xc)   XCENC  =       324.95778567
  PAW double counting   =     52699.40653470   -52720.51841599
  entropy T*S    EENTRO =        -0.00000000
  eigenvalues    EBANDS =      -590.10425143
  atomic energy  EATOM  =      4047.50565470
  ---------------------------------------------------
  free energy    TOTEN  =       -98.37882329 eV

  energy without entropy =      -98.37882329  energy(sigma->0) =      -98.37882329


--------------------------------------------------------------------------------------------------------




--------------------------------------- Iteration      1(   7)  ---------------------------------------


    POTLOK:  cpu time      0.5416: real time      0.5416
    SETDIJ:  cpu time      0.2561: real time      0.2561
    TRIAL :  cpu time      0.3376: real time      0.3379
    CORREC:  cpu time      1.3332: real time      1.3334
    CHARGE:  cpu time      0.4395: real time      0.4399
    --------------------------------------------
      LOOP:  cpu time      2.9206: real time      2.9388

 eigenvalue-minimisations  :     0
 total energy-change (2. order) :-0.6103319E+01  (-0.8595707E+00)
 number of electron      64.0000000 magnetization 
 augmentation part        0.1997071 magnetization 

 Free energy of the ion-electron system (eV)
  ---------------------------------------------------
  alpha Z        PSCENC =        64.50308324
  Ewald energy   TEWEN  =     -2171.10254707
  -Hartree energ DENC   =     -1619.16582341
  -exchange      EXHF   =         0.00000000
  -V(xc)+E(xc)   XCENC  =       313.46681310
  PAW double counting   =     56157.99307995   -56177.28473354
  entropy T*S    EENTRO =        -0.00000000
  eigenvalues    EBANDS =      -720.39766891
  atomic energy  EATOM  =      4047.50565470
  ---------------------------------------------------
  free energy    TOTEN  =      -104.48214193 eV

  energy without entropy =     -104.48214193  energy(sigma->0) =     -104.48214193


--------------------------------------------------------------------------------------------------------




--------------------------------------- Iteration      1(   8)  ---------------------------------------


    POTLOK:  cpu time      0.4722: real time      0.4722
    SETDIJ:  cpu time      0.3031: real time      0.3031
    TRIAL :  cpu time      0.3015: real time      0.3017
    CORREC:  cpu time      1.3219: real time      1.3223
    CHARGE:  cpu time      0.4398: real time      0.4398
    --------------------------------------------
      LOOP:  cpu time      2.8512: real time      2.8678

 eigenvalue-minimisations  :     0
 total energy-change (2. order) :-0.8601328E+00  (-0.2466939E+00)
 number of electron      64.0000000 magnetization 
 augmentation part        0.2090557 magnetization 

 Free energy of the ion-electron system (eV)
  ---------------------------------------------------
  alpha Z        PSCENC =        64.50308324
  Ewald energy   TEWEN  =     -2171.10254707
  -Hartree energ DENC   =     -1623.74235770
  -exchange      EXHF   =         0.00000000
  -V(xc)+E(xc)   XCENC  =       313.50178043
  PAW double counting   =     58380.58618781   -58399.63868716
  entropy T*S    EENTRO =        -0.00000000
  eigenvalues    EBANDS =      -716.95538899
  atomic energy  EATOM  =      4047.50565470
  ---------------------------------------------------
  free energy    TOTEN  =      -105.34227473 eV

  energy without entropy =     -105.34227473  energy(sigma->0) =     -105.34227473


--------------------------------------------------------------------------------------------------------




--------------------------------------- Iteration      1(   9)  ---------------------------------------


    POTLOK:  cpu time      0.4707: real time      0.4710
    SETDIJ:  cpu time      0.3044: real time      0.3045
    TRIAL :  cpu time      0.3015: real time      0.3015
    CORREC:  cpu time      1.3230: real time      1.3235
    CHARGE:  cpu time      0.4506: real time      0.4506
    --------------------------------------------
      LOOP:  cpu time      2.8648: real time      2.8819

 eigenvalue-minimisations  :     0
 total energy-change (2. order) :-0.2468215E+00  (-0.6777437E-01)
 number of electron      64.0000000 magnetization 
 augmentation part        0.2170754 magnetization 

 Free energy of the ion-electron system (eV)
  ---------------------------------------------------
  alpha Z        PSCENC =        64.50308324
  Ewald energy   TEWEN  =     -2171.10254707
  -Hartree energ DENC   =     -1628.50703383
  -exchange      EXHF   =         0.00000000
  -V(xc)+E(xc)   XCENC  =       313.81262780
  PAW double counting   =     61208.20210657   -61227.31945482
  entropy T*S    EENTRO =        -0.00000000
  eigenvalues    EBANDS =      -712.68353282
  atomic energy  EATOM  =      4047.50565470
  ---------------------------------------------------
  free energy    TOTEN  =      -105.58909622 eV

  energy without entropy =     -105.58909622  energy(sigma->0) =     -105.58909622


--------------------------------------------------------------------------------------------------------




--------------------------------------- Iteration      1(  10)  ---------------------------------------


    POTLOK:  cpu time      0.4714: real time      0.4716
    SETDIJ:  cpu time      0.3046: real time      0.3046
    TRIAL :  cpu time      0.3017: real time      0.3017
    CORREC:  cpu time      1.3217: real time      1.3222
    CHARGE:  cpu time      0.4392: real time      0.4392
    --------------------------------------------
      LOOP:  cpu time      2.8519: real time      2.8688

 eigenvalue-minimisations  :     0
 total energy-change (2. order) :-0.6774855E-01  (-0.2042889E-01)
 number of electron      64.0000000 magnetization 
 augmentation part        0.2194652 magnetization 

 Free energy of the ion-electron system (eV)
  ---------------------------------------------------
  alpha Z        PSCENC =        64.50308324
  Ewald energy   TEWEN  =     -2171.10254707
  -Hartree energ DENC   =     -1625.04584491
  -exchange      EXHF   =         0.00000000
  -V(xc)+E(xc)   XCENC  =       313.52863371
  PAW double counting   =     62461.75315501   -62480.88435143
  entropy T*S    EENTRO =        -0.00000000
  eigenvalues    EBANDS =      -715.91462804
  atomic energy  EATOM  =      4047.50565470
  ---------------------------------------------------
  free energy    TOTEN  =      -105.65684477 eV

  energy without entropy =     -105.65684477  energy(sigma->0) =     -105.65684477


--------------------------------------------------------------------------------------------------------




--------------------------------------- Iteration      1(  11)  ---------------------------------------


    POTLOK:  cpu time      0.4714: real time      0.4717
    SETDIJ:  cpu time      0.3035: real time      0.3035
    TRIAL :  cpu time      0.3031: real time      0.3031
    CORREC:  cpu time      1.3421: real time      1.3427
    CHARGE:  cpu time      0.4406: real time      0.4406
    --------------------------------------------
      LOOP:  cpu time      2.8734: real time      2.8907

 eigenvalue-minimisations  :     0
 total energy-change (2. order) :-0.2043890E-01  (-0.6337639E-02)
 number of electron      64.0000000 magnetization 
 augmentation part        0.2222418 magnetization 

 Free energy of the ion-electron system (eV)
  ---------------------------------------------------
  alpha Z        PSCENC =        64.50308324
  Ewald energy   TEWEN  =     -2171.10254707
  -Hartree energ DENC   =     -1624.86102442
  -exchange      EXHF   =         0.00000000
  -V(xc)+E(xc)   XCENC  =       313.50698078
  PAW double counting   =     62496.75320020   -62515.90087856
  entropy T*S    EENTRO =        -0.00000000
  eigenvalues    EBANDS =      -716.08175255
  atomic energy  EATOM  =      4047.50565470
  ---------------------------------------------------
  free energy    TOTEN  =      -105.67728367 eV

  energy without entropy =     -105.67728367  energy(sigma->0) =     -105.67728367


--------------------------------------------------------------------------------------------------------




--------------------------------------- Iteration      1(  12)  ---------------------------------------


    POTLOK:  cpu time      0.4708: real time      0.4711
    SETDIJ:  cpu time      0.3049: real time      0.3049
    TRIAL :  cpu time      0.3019: real time      0.3019
    CORREC:  cpu time      1.3225: real time      1.3227
    CHARGE:  cpu time      0.4396: real time      0.4400
    --------------------------------------------
      LOOP:  cpu time      2.8529: real time      2.8698

 eigenvalue-minimisations  :     0
 total energy-change (2. order) :-0.6367668E-02  (-0.2310889E-02)
 number of electron      64.0000000 magnetization 
 augmentation part        0.2226023 magnetization 

 Free energy of the ion-electron system (eV)
  ---------------------------------------------------
  alpha Z        PSCENC =        64.50308324
  Ewald energy   TEWEN  =     -2171.10254707
  -Hartree energ DENC   =     -1625.32867796
  -exchange      EXHF   =         0.00000000
  -V(xc)+E(xc)   XCENC  =       313.54036879
  PAW double counting   =     62623.08671152   -62642.24370546
  entropy T*S    EENTRO =        -0.00000000
  eigenvalues    EBANDS =      -715.64453912
  atomic energy  EATOM  =      4047.50565470
  ---------------------------------------------------
  free energy    TOTEN  =      -105.68365134 eV

  energy without entropy =     -105.68365134  energy(sigma->0) =     -105.68365134


--------------------------------------------------------------------------------------------------------




--------------------------------------- Iteration      1(  13)  ---------------------------------------


    POTLOK:  cpu time      0.4711: real time      0.4711
    SETDIJ:  cpu time      0.3048: real time      0.3051
    TRIAL :  cpu time      0.3234: real time      0.3234
    CORREC:  cpu time      1.3309: real time      1.3313
    CHARGE:  cpu time      0.4404: real time      0.4407
    --------------------------------------------
      LOOP:  cpu time      2.8821: real time      2.8999

 eigenvalue-minimisations  :     0
 total energy-change (2. order) :-0.2347588E-02  (-0.9461614E-03)
 number of electron      64.0000000 magnetization 
 augmentation part        0.2224916 magnetization 

 Free energy of the ion-electron system (eV)
  ---------------------------------------------------
  alpha Z        PSCENC =        64.50308324
  Ewald energy   TEWEN  =     -2171.10254707
  -Hartree energ DENC   =     -1624.97885212
  -exchange      EXHF   =         0.00000000
  -V(xc)+E(xc)   XCENC  =       313.51591995
  PAW double counting   =     62660.10174130   -62679.25063876
  entropy T*S    EENTRO =        -0.00000000
  eigenvalues    EBANDS =      -715.98036017
  atomic energy  EATOM  =      4047.50565470
  ---------------------------------------------------
  free energy    TOTEN  =      -105.68599893 eV

  energy without entropy =     -105.68599893  energy(sigma->0) =     -105.68599893


--------------------------------------------------------------------------------------------------------




--------------------------------------- Iteration      1(  14)  ---------------------------------------


    POTLOK:  cpu time      0.4706: real time      0.4706
    SETDIJ:  cpu time      0.3042: real time      0.3044
    TRIAL :  cpu time      0.3020: real time      0.3020
    CORREC:  cpu time      1.3227: real time      1.3230
    CHARGE:  cpu time      0.4402: real time      0.4405
    --------------------------------------------
      LOOP:  cpu time      2.8542: real time      2.8691

 eigenvalue-minimisations  :     0
 total energy-change (2. order) :-0.9564147E-03  (-0.4123081E-03)
 number of electron      64.0000000 magnetization 
 augmentation part        0.2227261 magnetization 

 Free energy of the ion-electron system (eV)
  ---------------------------------------------------
  alpha Z        PSCENC =        64.50308324
  Ewald energy   TEWEN  =     -2171.10254707
  -Hartree energ DENC   =     -1624.85903335
  -exchange      EXHF   =         0.00000000
  -V(xc)+E(xc)   XCENC  =       313.50851781
  PAW double counting   =     62494.94493150   -62514.09051082
  entropy T*S    EENTRO =        -0.00000000
  eigenvalues    EBANDS =      -716.09705136
  atomic energy  EATOM  =      4047.50565470
  ---------------------------------------------------
  free energy    TOTEN  =      -105.68695534 eV

  energy without entropy =     -105.68695534  energy(sigma->0) =     -105.68695534


--------------------------------------------------------------------------------------------------------




--------------------------------------- Iteration      1(  15)  ---------------------------------------


    POTLOK:  cpu time      0.5068: real time      0.5069
    SETDIJ:  cpu time      0.2688: real time      0.2688
    TRIAL :  cpu time      0.3015: real time      0.3018
    CORREC:  cpu time      1.3239: real time      1.3243
    CHARGE:  cpu time      0.4417: real time      0.4420
    --------------------------------------------
      LOOP:  cpu time      2.8544: real time      2.8724

 eigenvalue-minimisations  :     0
 total energy-change (2. order) :-0.4134119E-03  (-0.1695415E-03)
 number of electron      64.0000000 magnetization 
 augmentation part        0.2226763 magnetization 

 Free energy of the ion-electron system (eV)
  ---------------------------------------------------
  alpha Z        PSCENC =        64.50308324
  Ewald energy   TEWEN  =     -2171.10254707
  -Hartree energ DENC   =     -1624.97625528
  -exchange      EXHF   =         0.00000000
  -V(xc)+E(xc)   XCENC  =       313.51600248
  PAW double counting   =     62303.30744877   -62322.45542376
  entropy T*S    EENTRO =        -0.00000000
  eigenvalues    EBANDS =      -715.98533184
  atomic energy  EATOM  =      4047.50565470
  ---------------------------------------------------
  free energy    TOTEN  =      -105.68736875 eV

  energy without entropy =     -105.68736875  energy(sigma->0) =     -105.68736875


--------------------------------------------------------------------------------------------------------




--------------------------------------- Iteration      1(  16)  ---------------------------------------


    POTLOK:  cpu time      0.4704: real time      0.4705
    SETDIJ:  cpu time      0.3081: real time      0.3081
    TRIAL :  cpu time      0.3021: real time      0.3023
    CORREC:  cpu time      1.3235: real time      1.3238
    CHARGE:  cpu time      0.4390: real time      0.4390
    --------------------------------------------
      LOOP:  cpu time      2.8561: real time      2.8724

 eigenvalue-minimisations  :     0
 total energy-change (2. order) :-0.1708632E-03  (-0.7896891E-04)
 number of electron      64.0000000 magnetization 
 augmentation part        0.2225903 magnetization 

 Free energy of the ion-electron system (eV)
  ---------------------------------------------------
  alpha Z        PSCENC =        64.50308324
  Ewald energy   TEWEN  =     -2171.10254707
  -Hartree energ DENC   =     -1624.87705119
  -exchange      EXHF   =         0.00000000
  -V(xc)+E(xc)   XCENC  =       313.50725288
  PAW double counting   =     62219.20023537   -62238.34799318
  entropy T*S    EENTRO =        -0.00000000
  eigenvalues    EBANDS =      -716.07617438
  atomic energy  EATOM  =      4047.50565470
  ---------------------------------------------------
  free energy    TOTEN  =      -105.68753962 eV

  energy without entropy =     -105.68753962  energy(sigma->0) =     -105.68753962


--------------------------------------------------------------------------------------------------------




--------------------------------------- Iteration      1(  17)  ---------------------------------------


    POTLOK:  cpu time      0.4705: real time      0.4707
    SETDIJ:  cpu time      0.3049: real time      0.3049
    TRIAL :  cpu time      0.3020: real time      0.3020
    CORREC:  cpu time      1.3219: real time      1.3224
    CHARGE:  cpu time      0.4395: real time      0.4396
    --------------------------------------------
      LOOP:  cpu time      2.8539: real time      2.8706

 eigenvalue-minimisations  :     0
 total energy-change (2. order) :-0.7335946E-04  (-0.2012920E-04)
 number of electron      64.0000000 magnetization 
 augmentation part        0.2224178 magnetization 

 Free energy of the ion-electron system (eV)
  ---------------------------------------------------
  alpha Z        PSCENC =        64.50308324
  Ewald energy   TEWEN  =     -2171.10254707
  -Hartree energ DENC   =     -1624.97682588
  -exchange      EXHF   =         0.00000000
  -V(xc)+E(xc)   XCENC  =       313.51552326
  PAW double counting   =     62220.26805462   -62239.41680499
  entropy T*S    EENTRO =        -0.00000000
  eigenvalues    EBANDS =      -715.98375086
  atomic energy  EATOM  =      4047.50565470
  ---------------------------------------------------
  free energy    TOTEN  =      -105.68761298 eV

  energy without entropy =     -105.68761298  energy(sigma->0) =     -105.68761298


--------------------------------------------------------------------------------------------------------




--------------------------------------- Iteration      1(  18)  ---------------------------------------


    POTLOK:  cpu time      0.4717: real time      0.4719
    SETDIJ:  cpu time      0.3062: real time      0.3062
    TRIAL :  cpu time      0.3018: real time      0.3018
    CORREC:  cpu time      1.3252: real time      1.3257
    CHARGE:  cpu time      0.4401: real time      0.4401
    --------------------------------------------
      LOOP:  cpu time      2.8732: real time      2.8743

 eigenvalue-minimisations  :     0
 total energy-change (2. order) :-0.2066284E-04  (-0.5838242E-05)
 number of electron      64.0000000 magnetization 
 augmentation part        0.2223723 magnetization 

 Free energy of the ion-electron system (eV)
  ---------------------------------------------------
  alpha Z        PSCENC =        64.50308324
  Ewald energy   TEWEN  =     -2171.10254707
  -Hartree energ DENC   =     -1624.93233421
  -exchange      EXHF   =         0.00000000
  -V(xc)+E(xc)   XCENC  =       313.51132520
  PAW double counting   =     62250.56082533   -62269.70833816
  entropy T*S    EENTRO =        -0.00000000
  eigenvalues    EBANDS =      -716.02530267
  atomic energy  EATOM  =      4047.50565470
  ---------------------------------------------------
  free energy    TOTEN  =      -105.68763364 eV

  energy without entropy =     -105.68763364  energy(sigma->0) =     -105.68763364


--------------------------------------------------------------------------------------------------------




--------------------------------------- Iteration      1(  19)  ---------------------------------------


    POTLOK:  cpu time      0.4711: real time      0.4713
    SETDIJ:  cpu time      0.3042: real time      0.3043
    TRIAL :  cpu time      0.3190: real time      0.3190
    CORREC:  cpu time      1.3297: real time      1.3303
    CHARGE:  cpu time      0.4397: real time      0.4398
    --------------------------------------------
      LOOP:  cpu time      2.8767: real time      2.8942

 eigenvalue-minimisations  :     0
 total energy-change (2. order) :-0.5840862E-05  (-0.2404946E-05)
 number of electron      64.0000000 magnetization 
 augmentation part        0.2223763 magnetization 

 Free energy of the ion-electron system (eV)
  ---------------------------------------------------
  alpha Z        PSCENC =        64.50308324
  Ewald energy   TEWEN  =     -2171.10254707
  -Hartree energ DENC   =     -1624.93599306
  -exchange      EXHF   =         0.00000000
  -V(xc)+E(xc)   XCENC  =       313.51151814
  PAW double counting   =     62272.30362911   -62291.45087162
  entropy T*S    EENTRO =        -0.00000000
  eigenvalues    EBANDS =      -716.02211293
  atomic energy  EATOM  =      4047.50565470
  ---------------------------------------------------
  free energy    TOTEN  =      -105.68763948 eV

  energy without entropy =     -105.68763948  energy(sigma->0) =     -105.68763948


--------------------------------------------------------------------------------------------------------




--------------------------------------- Iteration      1(  20)  ---------------------------------------


    POTLOK:  cpu time      0.4709: real time      0.4712
    SETDIJ:  cpu time      0.3043: real time      0.3044
    TRIAL :  cpu time      0.3151: real time      0.3151
    CORREC:  cpu time      1.3229: real time      1.3232
    CHARGE:  cpu time      0.4380: real time      0.4382
    --------------------------------------------
      LOOP:  cpu time      2.8663: real time      2.8830

 eigenvalue-minimisations  :     0
 total energy-change (2. order) :-0.2487584E-05  (-0.7158460E-06)
 number of electron      64.0000000 magnetization 
 augmentation part        0.2223794 magnetization 

 Free energy of the ion-electron system (eV)
  ---------------------------------------------------
  alpha Z        PSCENC =        64.50308324
  Ewald energy   TEWEN  =     -2171.10254707
  -Hartree energ DENC   =     -1624.95158210
  -exchange      EXHF   =         0.00000000
  -V(xc)+E(xc)   XCENC  =       313.51289538
  PAW double counting   =     62289.18039340   -62308.32774257
  entropy T*S    EENTRO =        -0.00000000
  eigenvalues    EBANDS =      -716.00779696
  atomic energy  EATOM  =      4047.50565470
  ---------------------------------------------------
  free energy    TOTEN  =      -105.68764197 eV

  energy without entropy =     -105.68764197  energy(sigma->0) =     -105.68764197


--------------------------------------------------------------------------------------------------------




--------------------------------------- Iteration      1(  21)  ---------------------------------------


    POTLOK:  cpu time      0.4702: real time      0.4702
    SETDIJ:  cpu time      0.3053: real time      0.3056
    TRIAL :  cpu time      0.3015: real time      0.3016
    CORREC:  cpu time      1.3232: real time      1.3236
    CHARGE:  cpu time      0.4388: real time      0.4393
    --------------------------------------------
      LOOP:  cpu time      2.8726: real time      2.8739

 eigenvalue-minimisations  :     0
 total energy-change (2. order) :-0.6565460E-06  (-0.4283116E-06)
 number of electron      64.0000000 magnetization 
 augmentation part        0.2223848 magnetization 

 Free energy of the ion-electron system (eV)
  ---------------------------------------------------
  alpha Z        PSCENC =        64.50308324
  Ewald energy   TEWEN  =     -2171.10254707
  -Hartree energ DENC   =     -1624.94753454
  -exchange      EXHF   =         0.00000000
  -V(xc)+E(xc)   XCENC  =       313.51259839
  PAW double counting   =     62295.27258105   -62314.41991123
  entropy T*S    EENTRO =        -0.00000000
  eigenvalues    EBANDS =      -716.01156717
  atomic energy  EATOM  =      4047.50565470
  ---------------------------------------------------
  free energy    TOTEN  =      -105.68764262 eV

  energy without entropy =     -105.68764262  energy(sigma->0) =     -105.68764262


--------------------------------------------------------------------------------------------------------




--------------------------------------- Iteration      1(  22)  ---------------------------------------


    POTLOK:  cpu time      0.4712: real time      0.4712
    SETDIJ:  cpu time      0.3049: real time      0.3052
    TRIAL :  cpu time      0.3019: real time      0.3019
    CORREC:  cpu time      5.2942: real time      5.2957
    CHARGE:  cpu time      0.4397: real time      0.4400
    --------------------------------------------
      LOOP:  cpu time      6.8271: real time      6.8452

 eigenvalue-minimisations  :     0
 total energy-change (2. order) :-0.4641988E-06  (-0.2845924E-06)
 number of electron      64.0000000 magnetization 
 augmentation part        0.2224417 magnetization 

 Free energy of the ion-electron system (eV)
  ---------------------------------------------------
  alpha Z        PSCENC =        64.50308324
  Ewald energy   TEWEN  =     -2171.10254707
  -Hartree energ DENC   =     -1624.94346315
  -exchange      EXHF   =         0.00000000
  -V(xc)+E(xc)   XCENC  =       313.51225292
  PAW double counting   =     62294.60133458   -62313.74867823
  entropy T*S    EENTRO =        -0.00000000
  eigenvalues    EBANDS =      -716.01528009
  atomic energy  EATOM  =      4047.50565470
  ---------------------------------------------------
  free energy    TOTEN  =      -105.68764309 eV

  energy without entropy =     -105.68764309  energy(sigma->0) =     -105.68764309


--------------------------------------------------------------------------------------------------------




--------------------------------------- Iteration      1(  23)  ---------------------------------------


    POTLOK:  cpu time      0.4719: real time      0.4719
    SETDIJ:  cpu time      0.3367: real time      0.3367
    TRIAL :  cpu time      0.3016: real time      0.3019
    CORREC:  cpu time      1.3232: real time      1.3235
    CHARGE:  cpu time      0.4396: real time      0.4399
    --------------------------------------------
      LOOP:  cpu time      2.8848: real time      2.9044

 eigenvalue-minimisations  :     0
 total energy-change (2. order) : 0.1927037E-06  (-0.6341994E-06)
 number of electron      64.0000000 magnetization 
 augmentation part        0.2224148 magnetization 

 Free energy of the ion-electron system (eV)
  ---------------------------------------------------
  alpha Z        PSCENC =        64.50308324
  Ewald energy   TEWEN  =     -2171.10254707
  -Hartree energ DENC   =     -1624.95713240
  -exchange      EXHF   =         0.00000000
  -V(xc)+E(xc)   XCENC  =       313.51352973
  PAW double counting   =     62294.95847674   -62314.10630595
  entropy T*S    EENTRO =        -0.00000000
  eigenvalues    EBANDS =      -716.00240190
  atomic energy  EATOM  =      4047.50565470
  ---------------------------------------------------
  free energy    TOTEN  =      -105.68764290 eV

  energy without entropy =     -105.68764290  energy(sigma->0) =     -105.68764290


--------------------------------------------------------------------------------------------------------




--------------------------------------- Iteration      1(  24)  ---------------------------------------


    POTLOK:  cpu time      0.4728: real time      0.4728
    SETDIJ:  cpu time      0.3599: real time      0.3599
    TRIAL :  cpu time      0.3018: real time      0.3021
    CORREC:  cpu time      1.3213: real time      1.3216
    CHARGE:  cpu time      0.4395: real time      0.4395
    --------------------------------------------
      LOOP:  cpu time      2.9168: real time      2.9336

 eigenvalue-minimisations  :     0
 total energy-change (2. order) :-0.2096640E-06  (-0.2517514E-06)
 number of electron      64.0000000 magnetization 
 augmentation part        0.2224017 magnetization 

 Free energy of the ion-electron system (eV)
  ---------------------------------------------------
  alpha Z        PSCENC =        64.50308324
  Ewald energy   TEWEN  =     -2171.10254707
  -Hartree energ DENC   =     -1624.94311997
  -exchange      EXHF   =         0.00000000
  -V(xc)+E(xc)   XCENC  =       313.51233347
  PAW double counting   =     62296.82106743   -62315.96861305
  entropy T*S    EENTRO =        -0.00000000
  eigenvalues    EBANDS =      -716.01550188
  atomic energy  EATOM  =      4047.50565470
  ---------------------------------------------------
  free energy    TOTEN  =      -105.68764311 eV

  energy without entropy =     -105.68764311  energy(sigma->0) =     -105.68764311


--------------------------------------------------------------------------------------------------------




--------------------------------------- Iteration      1(  25)  ---------------------------------------


    POTLOK:  cpu time      0.4707: real time      0.4709
    SETDIJ:  cpu time      0.3062: real time      0.3063
    TRIAL :  cpu time      0.3022: real time      0.3025
    CORREC:  cpu time      1.2791: real time      1.2795
    CHARGE:  cpu time      0.4414: real time      0.4415
    --------------------------------------------
      LOOP:  cpu time      2.8121: real time      2.8301

 eigenvalue-minimisations  :     0
 total energy-change (2. order) :-0.1635053E-06  ( 0.1972327E-06)
 number of electron      64.0000000 magnetization 
 augmentation part        0.2223972 magnetization 

 Free energy of the ion-electron system (eV)
  ---------------------------------------------------
  alpha Z        PSCENC =        64.50308324
  Ewald energy   TEWEN  =     -2171.10254707
  -Hartree energ DENC   =     -1624.94228403
  -exchange      EXHF   =         0.00000000
  -V(xc)+E(xc)   XCENC  =       313.51224086
  PAW double counting   =     62298.39151480   -62317.53895689
  entropy T*S    EENTRO =        -0.00000000
  eigenvalues    EBANDS =      -716.01634888
  atomic energy  EATOM  =      4047.50565470
  ---------------------------------------------------
  free energy    TOTEN  =      -105.68764327 eV

  energy without entropy =     -105.68764327  energy(sigma->0) =     -105.68764327


--------------------------------------------------------------------------------------------------------




--------------------------------------- Iteration      1(  26)  ---------------------------------------


    POTLOK:  cpu time      0.4721: real time      0.4723
    SETDIJ:  cpu time      0.3040: real time      0.3040
    TRIAL :  cpu time      0.3823: real time      0.3824
    CORREC:  cpu time      1.3388: real time      1.3393
    CHARGE:  cpu time      0.4399: real time      0.4399
    --------------------------------------------
      LOOP:  cpu time      2.9682: real time      2.9692

 eigenvalue-minimisations  :     0
 total energy-change (2. order) :-0.3686873E-06  (-0.2319100E-07)
 number of electron      64.0000000 magnetization 
 augmentation part        0.2223952 magnetization 

 Free energy of the ion-electron system (eV)
  ---------------------------------------------------
  alpha Z        PSCENC =        64.50308324
  Ewald energy   TEWEN  =     -2171.10254707
  -Hartree energ DENC   =     -1624.95112549
  -exchange      EXHF   =         0.00000000
  -V(xc)+E(xc)   XCENC  =       313.51295900
  PAW double counting   =     62299.42841569   -62318.57588159
  entropy T*S    EENTRO =        -0.00000000
  eigenvalues    EBANDS =      -716.00820212
  atomic energy  EATOM  =      4047.50565470
  ---------------------------------------------------
  free energy    TOTEN  =      -105.68764364 eV

  energy without entropy =     -105.68764364  energy(sigma->0) =     -105.68764364


--------------------------------------------------------------------------------------------------------




--------------------------------------- Iteration      1(  27)  ---------------------------------------


    POTLOK:  cpu time      0.4706: real time      0.4709
    SETDIJ:  cpu time      0.3046: real time      0.3046
    TRIAL :  cpu time      0.3024: real time      0.3024
    CORREC:  cpu time      1.3263: real time      1.3269
    EDDIAG:  cpu time      0.1103: real time      0.1108
    CHARGE:  cpu time      0.4390: real time      0.4391
    --------------------------------------------
      LOOP:  cpu time      2.9674: real time      2.9855

 eigenvalue-minimisations  :     0
 total energy-change (2. order) : 0.3986497E-07  (-0.1411681E-07)
 number of electron      64.0000000 magnetization 
 augmentation part        0.2223943 magnetization 

 Free energy of the ion-electron system (eV)
  ---------------------------------------------------
  alpha Z        PSCENC =        64.50308324
  Ewald energy   TEWEN  =     -2171.10254707
  -Hartree energ DENC   =     -1624.94804087
  -exchange      EXHF   =         0.00000000
  -V(xc)+E(xc)   XCENC  =       313.51270117
  PAW double counting   =     62299.16840516   -62318.31583885
  entropy T*S    EENTRO =        -0.00000000
  eigenvalues    EBANDS =      -716.01106108
  atomic energy  EATOM  =      4047.50565470
  ---------------------------------------------------
  free energy    TOTEN  =      -105.68764360 eV

  energy without entropy =     -105.68764360  energy(sigma->0) =     -105.68764360


--------------------------------------------------------------------------------------------------------


  average scaling for gradient   0.6321


 average (electrostatic) potential at core
  the test charge radii are     0.5770  0.5955
  (the norm of the test charge is              1.0000)
       1 -88.0438       2 -88.0438       3 -88.0437       4 -88.0438       5-120.1783
       6-120.1780       7-120.1791       8-120.1840       9-120.1791      10-120.1840
      11-120.1791      12-120.1840



 E-fermi :  -3.5999     XC(G=0):  -8.3786     alpha+bet : -6.0625

 Fermi energy:        -3.5999238067

 k-point     1 :       0.0000    0.0000    0.0000
  band No.  band energies     occupation 
      1     -25.3311      2.00000
      2     -25.1245      2.00000
      3     -25.1245      2.00000
      4     -25.1242      2.00000
      5     -24.1856      2.00000
      6     -24.1856      2.00000
      7     -24.1853      2.00000
      8     -24.1305      2.00000
      9      -9.2127      2.00000
     10      -9.2114      2.00000
     11      -9.2114      2.00000
     12      -9.0174      2.00000
     13      -8.4557      2.00000
     14      -8.4551      2.00000
     15      -8.4548      2.00000
     16      -7.7621      2.00000
     17      -7.6137      2.00000
     18      -7.6135      2.00000
     19      -7.5179      2.00000
     20      -7.5175      2.00000
     21      -7.5173      2.00000
     22      -7.0483      2.00000
     23      -7.0458      2.00000
     24      -7.0456      2.00000
     25      -4.3970      2.00000
     26      -4.3969      2.00000
     27      -4.3968      2.00000
     28      -3.8478      2.00000
     29      -3.8461      2.00000
     30      -3.8461      2.00000
     31      -3.6506      2.00000
     32      -3.6504      2.00000
     33       3.6670      0.00000
     34       5.1192      0.00000
     35       5.1208      0.00000
     36       5.1540      0.00000
     37       5.4090      0.00000
     38       5.4427      0.00000
     39       6.0261      0.00000
     40       6.0518      0.00000

 k-point     2 :       0.2000    0.0000    0.0000
  band No.  band energies     occupation 
      1     -25.3125      2.00000
      2     -25.1455      2.00000
      3     -25.1244      2.00000
      4     -25.1242      2.00000
      5     -24.1845      2.00000
      6     -24.1843      2.00000
      7     -24.1803      2.00000
      8     -24.1358      2.00000
      9      -9.2383      2.00000
     10      -9.2374      2.00000
     11      -9.2318      2.00000
     12      -9.0864      2.00000
     13      -8.3682      2.00000
     14      -8.3599      2.00000
     15      -8.3427      2.00000
     16      -7.8018      2.00000
     17      -7.6301      2.00000
     18      -7.5648      2.00000
     19      -7.5630      2.00000
     20      -7.5447      2.00000
     21      -7.4882      2.00000
     22      -7.1410      2.00000
     23      -7.1038      2.00000
     24      -7.0883      2.00000
     25      -4.3288      2.00000
     26      -4.3250      2.00000
     27      -4.3215      2.00000
     28      -3.8695      2.00000
     29      -3.8675      2.00000
     30      -3.8189      2.00000
     31      -3.7154      2.00000
     32      -3.6618      2.00000
     33       3.9373      0.00000
     34       5.0807      0.00000
     35       5.1936      0.00000
     36       5.2048      0.00000
     37       5.3198      0.00000
     38       5.4338      0.00000
     39       5.9283      0.00000
     40       5.9733      0.00000

 k-point     3 :       0.4000    0.0000    0.0000
  band No.  band energies     occupation 
      1     -25.2629      2.00000
      2     -25.1992      2.00000
      3     -25.1242      2.00000
      4     -25.1240      2.00000
      5     -24.1828      2.00000
      6     -24.1825      2.00000
      7     -24.1667      2.00000
      8     -24.1497      2.00000
      9      -9.2713      2.00000
     10      -9.2659      2.00000
     11      -9.2510      2.00000
     12      -9.1952      2.00000
     13      -8.1874      2.00000
     14      -8.1679      2.00000
     15      -8.1519      2.00000
     16      -7.9518      2.00000
     17      -7.6362      2.00000
     18      -7.6231      2.00000
     19      -7.6005      2.00000
     20      -7.5033      2.00000
     21      -7.4219      2.00000
     22      -7.2694      2.00000
     23      -7.2472      2.00000
     24      -7.1884      2.00000
     25      -4.1910      2.00000
     26      -4.1855      2.00000
     27      -4.1269      2.00000
     28      -3.9323      2.00000
     29      -3.9285      2.00000
     30      -3.8940      2.00000
     31      -3.7568      2.00000
     32      -3.6978      2.00000
     33       4.7074      0.00000
     34       5.0451      0.00000
     35       5.1225      0.00000
     36       5.3277      0.00000
     37       5.4560      0.00000
     38       5.5840      0.00000
     39       5.7354      0.00000
     40       5.9113      0.00000

 k-point     4 :       0.2000    0.2000    0.0000
  band No.  band energies     occupation 
      1     -25.2954      2.00000
      2     -25.1434      2.00000
      3     -25.1432      2.00000
      4     -25.1261      2.00000
      5     -24.1836      2.00000
      6     -24.1799      2.00000
      7     -24.1796      2.00000
      8     -24.1406      2.00000
      9      -9.2612      2.00000
     10      -9.2562      2.00000
     11      -9.2359      2.00000
     12      -9.1164      2.00000
     13      -8.3566      2.00000
     14      -8.3030      2.00000
     15      -8.2281      2.00000
     16      -7.8679      2.00000
     17      -7.6336      2.00000
     18      -7.5667      2.00000
     19      -7.5511      2.00000
     20      -7.5067      2.00000
     21      -7.4749      2.00000
     22      -7.2715      2.00000
     23      -7.1399      2.00000
     24      -7.0804      2.00000
     25      -4.2740      2.00000
     26      -4.2619      2.00000
     27      -4.2603      2.00000
     28      -3.8848      2.00000
     29      -3.8478      2.00000
     30      -3.8459      2.00000
     31      -3.7417      2.00000
     32      -3.7034      2.00000
     33       4.1903      0.00000
     34       5.0841      0.00000
     35       5.1249      0.00000
     36       5.3034      0.00000
     37       5.3181      0.00000
     38       5.4502      0.00000
     39       5.8862      0.00000
     40       5.9404      0.00000

 k-point     5 :       0.4000    0.2000    0.0000
  band No.  band energies     occupation 
      1     -25.2499      2.00000
      2     -25.1919      2.00000
      3     -25.1376      2.00000
      4     -25.1311      2.00000
      5     -24.1812      2.00000
      6     -24.1797      2.00000
      7     -24.1680      2.00000
      8     -24.1531      2.00000
      9      -9.2847      2.00000
     10      -9.2686      2.00000
     11      -9.2470      2.00000
     12      -9.1893      2.00000
     13      -8.2443      2.00000
     14      -8.1815      2.00000
     15      -8.0815      2.00000
     16      -7.9902      2.00000
     17      -7.7079      2.00000
     18      -7.6509      2.00000
     19      -7.4897      2.00000
     20      -7.4464      2.00000
     21      -7.3846      2.00000
     22      -7.3715      2.00000
     23      -7.2288      2.00000
     24      -7.1789      2.00000
     25      -4.1569      2.00000
     26      -4.1466      2.00000
     27      -4.0905      2.00000
     28      -3.9301      2.00000
     29      -3.9200      2.00000
     30      -3.8865      2.00000
     31      -3.7979      2.00000
     32      -3.7483      2.00000
     33       4.8806      0.00000
     34       5.0118      0.00000
     35       5.0206      0.00000
     36       5.3412      0.00000
     37       5.4978      0.00000
     38       5.5446      0.00000
     39       5.7078      0.00000
     40       5.8476      0.00000

 k-point     6 :      -0.2000    0.4000    0.0000
  band No.  band energies     occupation 
      1     -25.2499      2.00000
      2     -25.1919      2.00000
      3     -25.1376      2.00000
      4     -25.1311      2.00000
      5     -24.1812      2.00000
      6     -24.1796      2.00000
      7     -24.1681      2.00000
      8     -24.1531      2.00000
      9      -9.2692      2.00000
     10      -9.2625      2.00000
     11      -9.2586      2.00000
     12      -9.2013      2.00000
     13      -8.1989      2.00000
     14      -8.1946      2.00000
     15      -8.1067      2.00000
     16      -8.0350      2.00000
     17      -7.6388      2.00000
     18      -7.5605      2.00000
     19      -7.5421      2.00000
     20      -7.5253      2.00000
     21      -7.4313      2.00000
     22      -7.2878      2.00000
     23      -7.2744      2.00000
     24      -7.1591      2.00000
     25      -4.1519      2.00000
     26      -4.1433      2.00000
     27      -4.0959      2.00000
     28      -3.9349      2.00000
     29      -3.9195      2.00000
     30      -3.8930      2.00000
     31      -3.7944      2.00000
     32      -3.7438      2.00000
     33       4.8694      0.00000
     34       5.0247      0.00000
     35       5.1080      0.00000
     36       5.2065      0.00000
     37       5.4680      0.00000
     38       5.6119      0.00000
     39       5.7432      0.00000
     40       5.8362      0.00000

 k-point     7 :       0.4000    0.4000    0.0000
  band No.  band energies     occupation 
      1     -25.2156      2.00000
      2     -25.1728      2.00000
      3     -25.1727      2.00000
      4     -25.1495      2.00000
      5     -24.1770      2.00000
      6     -24.1719      2.00000
      7     -24.1717      2.00000
      8     -24.1617      2.00000
      9      -9.2723      2.00000
     10      -9.2628      2.00000
     11      -9.2502      2.00000
     12      -9.2219      2.00000
     13      -8.1988      2.00000
     14      -8.1947      2.00000
     15      -8.1157      2.00000
     16      -8.0834      2.00000
     17      -7.6702      2.00000
     18      -7.6042      2.00000
     19      -7.5325      2.00000
     20      -7.4698      2.00000
     21      -7.3238      2.00000
     22      -7.2916      2.00000
     23      -7.2902      2.00000
     24      -7.1853      2.00000
     25      -4.0643      2.00000
     26      -4.0383      2.00000
     27      -4.0224      2.00000
     28      -3.9442      2.00000
     29      -3.9141      2.00000
     30      -3.8991      2.00000
     31      -3.8796      2.00000
     32      -3.8563      2.00000
     33       4.9965      0.00000
     34       5.0445      0.00000
     35       5.0932      0.00000
     36       5.1556      0.00000
     37       5.6919      0.00000
     38       5.7776      0.00000
     39       5.8093      0.00000
     40       5.8933      0.00000

 k-point     8 :       0.2000    0.2000    0.2000
  band No.  band energies     occupation 
      1     -25.2799      2.00000
      2     -25.1431      2.00000
      3     -25.1429      2.00000
      4     -25.1428      2.00000
      5     -24.1805      2.00000
      6     -24.1805      2.00000
      7     -24.1774      2.00000
      8     -24.1450      2.00000
      9      -9.2968      2.00000
     10      -9.2357      2.00000
     11      -9.2357      2.00000
     12      -9.1307      2.00000
     13      -8.3400      2.00000
     14      -8.3398      2.00000
     15      -8.1533      2.00000
     16      -7.9034      2.00000
     17      -7.5911      2.00000
     18      -7.5910      2.00000
     19      -7.5645      2.00000
     20      -7.4512      2.00000
     21      -7.4511      2.00000
     22      -7.3669      2.00000
     23      -7.1157      2.00000
     24      -7.1154      2.00000
     25      -4.2267      2.00000
     26      -4.2114      2.00000
     27      -4.2113      2.00000
     28      -3.8707      2.00000
     29      -3.8706      2.00000
     30      -3.8653      2.00000
     31      -3.7537      2.00000
     32      -3.7536      2.00000
     33       4.4342      0.00000
     34       5.0352      0.00000
     35       5.0419      0.00000
     36       5.3534      0.00000
     37       5.3596      0.00000
     38       5.4043      0.00000
     39       5.8157      0.00000
     40       5.9770      0.00000

 k-point     9 :       0.4000    0.2000    0.2000
  band No.  band energies     occupation 
      1     -25.2386      2.00000
      2     -25.1863      2.00000
      3     -25.1424      2.00000
      4     -25.1424      2.00000
      5     -24.1795      2.00000
      6     -24.1783      2.00000
      7     -24.1691      2.00000
      8     -24.1562      2.00000
      9      -9.2926      2.00000
     10      -9.2551      2.00000
     11      -9.2256      2.00000
     12      -9.1856      2.00000
     13      -8.3015      2.00000
     14      -8.2741      2.00000
     15      -8.1222      2.00000
     16      -8.0124      2.00000
     17      -7.6342      2.00000
     18      -7.6124      2.00000
     19      -7.4638      2.00000
     20      -7.4446      2.00000
     21      -7.3854      2.00000
     22      -7.3401      2.00000
     23      -7.2065      2.00000
     24      -7.1792      2.00000
     25      -4.1223      2.00000
     26      -4.1148      2.00000
     27      -4.0713      2.00000
     28      -3.9297      2.00000
     29      -3.9263      2.00000
     30      -3.8914      2.00000
     31      -3.8288      2.00000
     32      -3.7865      2.00000
     33       4.9724      0.00000
     34       4.9984      0.00000
     35       5.0828      0.00000
     36       5.3268      0.00000
     37       5.3676      0.00000
     38       5.6059      0.00000
     39       5.8186      0.00000
     40       6.0785      0.00000

 k-point    10 :       0.4000    0.4000    0.2000
  band No.  band energies     occupation 
      1     -25.2088      2.00000
      2     -25.1721      2.00000
      3     -25.1721      2.00000
      4     -25.1553      2.00000
      5     -24.1763      2.00000
      6     -24.1733      2.00000
      7     -24.1716      2.00000
      8     -24.1639      2.00000
      9      -9.2695      2.00000
     10      -9.2347      2.00000
     11      -9.2151      2.00000
     12      -9.1968      2.00000
     13      -8.3386      2.00000
     14      -8.3092      2.00000
     15      -8.2400      2.00000
     16      -8.1481      2.00000
     17      -7.5656      2.00000
     18      -7.5112      2.00000
     19      -7.4532      2.00000
     20      -7.4124      2.00000
     21      -7.3148      2.00000
     22      -7.2814      2.00000
     23      -7.2401      2.00000
     24      -7.1881      2.00000
     25      -4.0476      2.00000
     26      -4.0281      2.00000
     27      -4.0190      2.00000
     28      -3.9489      2.00000
     29      -3.9244      2.00000
     30      -3.9163      2.00000
     31      -3.8980      2.00000
     32      -3.8791      2.00000
     33       4.9867      0.00000
     34       5.0059      0.00000
     35       5.1424      0.00000
     36       5.1663      0.00000
     37       5.7173      0.00000
     38       5.8020      0.00000
     39       5.8906      0.00000
     40       6.0448      0.00000

 k-point    11 :       0.4000    0.4000    0.4000
  band No.  band energies     occupation 
      1     -25.1915      2.00000
      2     -25.1710      2.00000
      3     -25.1710      2.00000
      4     -25.1709      2.00000
      5     -24.1741      2.00000
      6     -24.1741      2.00000
      7     -24.1727      2.00000
      8     -24.1690      2.00000
      9      -9.2220      2.00000
     10      -9.1805      2.00000
     11      -9.1805      2.00000
     12      -9.1678      2.00000
     13      -8.4448      2.00000
     14      -8.4448      2.00000
     15      -8.4070      2.00000
     16      -8.3387      2.00000
     17      -7.4277      2.00000
     18      -7.3873      2.00000
     19      -7.3872      2.00000
     20      -7.3775      2.00000
     21      -7.2443      2.00000
     22      -7.2442      2.00000
     23      -7.1925      2.00000
     24      -7.1924      2.00000
     25      -4.0016      2.00000
     26      -4.0015      2.00000
     27      -4.0007      2.00000
     28      -3.9550      2.00000
     29      -3.9550      2.00000
     30      -3.9483      2.00000
     31      -3.9348      2.00000
     32      -3.9347      2.00000
     33       5.0085      0.00000
     34       5.0205      0.00000
     35       5.1119      0.00000
     36       5.1589      0.00000
     37       5.9119      0.00000
     38       5.9972      0.00000
     39       6.0534      0.00000
     40       6.2585      0.00000


--------------------------------------------------------------------------------------------------------


 soft charge-density along one line, spin component           1
         0         1         2         3         4         5         6         7         8         9
 total charge-density along one line

 pseudopotential strength for first ion, spin component:           1
 12.647  21.279   0.000   0.000  -0.000   0.000   0.001  -0.000
 21.279  35.803   0.000   0.000  -0.000   0.000   0.001  -0.001
  0.000   0.000  -3.237   0.002   0.002  -5.800   0.003   0.002
  0.000   0.000   0.002  -3.236   0.002   0.003  -5.798   0.003
 -0.000  -0.000   0.002   0.002  -3.237   0.002   0.003  -5.799
  0.000   0.000  -5.800   0.003   0.002 -10.368   0.005   0.003
  0.001   0.001   0.003  -5.798   0.003   0.005 -10.366   0.005
 -0.000  -0.001   0.002   0.003  -5.799   0.003   0.005 -10.367
 total augmentation occupancy for first ion, spin component:           1
 12.028  -4.910   0.000   0.000   0.000   0.000   0.000   0.000
 -4.910   2.127   0.000   0.000   0.000   0.000   0.000   0.000
 -0.000   0.000   8.249   4.341   4.341  -3.083  -1.913  -1.913
 -0.000   0.000   4.341   8.249   4.341  -1.913  -3.083  -1.913
 -0.000   0.000   4.341   4.341   8.249  -1.913  -1.913  -3.083
  0.000   0.000  -3.083  -1.913  -1.913   1.190   0.840   0.840
  0.000  -0.000  -1.913  -3.083  -1.913   0.840   1.190   0.840
  0.000  -0.000  -1.913  -1.913  -3.083   0.840   0.840   1.190


------------------------ aborting loop because EDIFF is reached ----------------------------------------


    FORLOC:  cpu time      0.0043: real time      0.0043
    FORNL :  cpu time      0.0336: real time      0.0338
    FORCOR:  cpu time      0.7770: real time      0.7773
    OFIELD:  cpu time      0.0014: real time      0.0015

 VOLUME and BASIS-vectors are now :
 -----------------------------------------------------------------------------
  energy-cutoff  :     1000.00
  volume of cell :      177.88
      direct lattice vectors                 reciprocal lattice vectors
     5.624000000  0.000000000  0.000000000     0.177809388  0.000000000  0.000000000
     0.000000000  5.624000000  0.000000000     0.000000000  0.177809388  0.000000000
     0.000000000  0.000000000  5.624000000     0.000000000  0.000000000  0.177809388

  length of vectors
     5.624000000  5.624000000  5.624000000     0.177809388  0.177809388  0.177809388


 FORCES acting on ions:
    Electron-Ion                     Ewald-Force                    Non-Local-Force
 -----------------------------------------------------------------------------------------------
   -.147E-04 -.553E-05 0.240E-04   -.396E-04 -.449E-04 -.460E-04   -.499E-19 0.388E-19 0.992E-19
   0.743E-05 0.316E-04 0.356E-04   -.655E-05 -.202E-04 0.511E-05   -.146E-19 0.523E-19 0.778E-20
   0.151E-04 0.447E-04 0.279E-04   -.152E-04 0.645E-05 -.691E-05   0.825E-19 0.130E-18 -.214E-19
   0.257E-04 0.102E-04 0.124E-04   0.118E-04 -.979E-05 -.197E-04   0.566E-19 0.383E-19 0.897E-19
   -.106E+03 -.106E+03 -.106E+03   0.141E+03 0.141E+03 0.141E+03   -.360E+02 -.360E+02 -.360E+02
   0.106E+03 0.106E+03 0.106E+03   -.141E+03 -.141E+03 -.141E+03   0.360E+02 0.360E+02 0.360E+02
   0.106E+03 0.106E+03 -.106E+03   -.141E+03 -.141E+03 0.141E+03   0.360E+02 0.360E+02 -.360E+02
   -.106E+03 -.106E+03 0.106E+03   0.141E+03 0.141E+03 -.141E+03   -.360E+02 -.360E+02 0.360E+02
   0.106E+03 -.106E+03 0.106E+03   -.141E+03 0.141E+03 -.141E+03   0.360E+02 -.360E+02 0.360E+02
   -.106E+03 0.106E+03 -.106E+03   0.141E+03 -.141E+03 0.141E+03   -.360E+02 0.360E+02 -.360E+02
   -.106E+03 0.106E+03 0.106E+03   0.141E+03 -.141E+03 -.141E+03   -.360E+02 0.360E+02 0.360E+02
   0.106E+03 -.106E+03 -.106E+03   -.141E+03 0.141E+03 0.141E+03   0.360E+02 -.360E+02 -.360E+02
 -----------------------------------------------------------------------------------------------
   0.250E-01 0.252E-01 0.254E-01   0.284E-13 0.853E-13 -.568E-13   -.711E-14 0.000E+00 -.711E-14


 POSITION                                       TOTAL-FORCE (eV/Angst)
 -----------------------------------------------------------------------------------
      0.33737      0.33737      0.33737         0.000000      0.000000      0.000000
      3.14937      0.33737      3.14937        -0.000000     -0.000000     -0.000000
      0.33737      3.14937      3.14937        -0.000000     -0.000000     -0.000000
      3.14937      3.14937      0.33737         0.000000     -0.000000     -0.000000
      1.01211      1.01211      1.01211        -0.683208     -0.683208     -0.683208
      5.28663      5.28663      5.28663         0.683208      0.683208      0.683208
      2.47463      5.28663      3.82411         0.683208      0.683208     -0.683208
      3.82411      1.01211      2.47463        -0.683208     -0.683208      0.683208
      5.28663      3.82411      2.47463         0.683208     -0.683208      0.683208
      1.01211      2.47463      3.82411        -0.683208      0.683208     -0.683208
      3.82411      2.47463      5.28663        -0.683208      0.683208      0.683208
      2.47463      3.82411      1.01211         0.683208     -0.683208     -0.683208
 -----------------------------------------------------------------------------------
    total drift:                                0.024997      0.025187      0.025372


--------------------------------------------------------------------------------------------------------



  FREE ENERGIE OF THE ION-ELECTRON SYSTEM (eV)
  ---------------------------------------------------
  free  energy   TOTEN  =      -105.68764360 eV

  energy  without entropy=     -105.68764360  energy(sigma->0) =     -105.68764360



--------------------------------------------------------------------------------------------------------


    POTLOK:  cpu time      0.7778: real time      0.7781


--------------------------------------------------------------------------------------------------------


 stress matrix after NEB project (eV)
      0.00000      0.00000      0.00000
      0.00000      0.00000      0.00000
      0.00000      0.00000      0.00000
  FORCES: max atom, RMS     1.183351    0.966202
  FORCE total and by dimension    3.347021    0.683208
  Stress total and by dimension    0.000000    0.000000
     LOOP+:  cpu time     75.0364: real time     75.5128
    4ORBIT:  cpu time      0.0000: real time      0.0000

 total amount of memory used by VASP MPI-rank0    34990. kBytes
=======================================================================

   base      :      30000. kBytes
   nonl-proj :        640. kBytes
   fftplans  :        741. kBytes
   grid      :       1452. kBytes
   one-center:          3. kBytes
   wavefun   :       2154. kBytes

  
  
 General timing and accounting informations for this job:
 ========================================================
  
                  Total CPU time used (sec):       83.052
                            User time (sec):       75.528
                          System time (sec):        7.525
                         Elapsed time (sec):       87.299
  
                   Maximum memory used (kb):      260304.
                   Average memory used (kb):          N/A
  
                          Minor page faults:       515902
                          Major page faults:          579
                 Voluntary context switches:         4134
