 vasp.6.4.1 05Apr23 (build Jun  6 2023 14:36:51) complex                         
 executed on        HPECrayEX_GCC date 2024.08.20  14:04:14
 running  256 mpi-ranks, with    1 threads/rank, on    2 nodes
 distrk:  each k-point on  256 cores,    1 groups
 distr:  one band on NCORE=   2 cores,  128 groups


--------------------------------------------------------------------------------------------------------


 INCAR:
   ALGO = Conjugate
   NCORE = 2
   PREC = Accurate
   EDIFF = 1E-7
   ENCUT = 1000
   ISMEAR = 0
   SIGMA = 0.01
   ISIF = 0
   SYMPREC = 1E-7
   IVDW = 11
   LWAVE = .FALSE.
   LCHARGE = .FALSE.
   LWAVE = .FALSE.
   LCHARGE = .FALSE.

 POTCAR:    PAW_PBE C_h 06Feb2004                 
 POTCAR:    PAW_PBE O_h 06Feb2004                 
 POTCAR:    PAW_PBE C_h 06Feb2004                 
   VRHFIN =C: s2p2                                                                                  
   LEXCH  = PE                                                                                      
   EATOM  =   147.1560 eV,   10.8157 Ry                                                             
                                                                                                    
   TITEL  = PAW_PBE C_h 06Feb2004                                                                   
   LULTRA =        F    use ultrasoft PP ?                                                          
   IUNSCR =        1    unscreen: 0-lin 1-nonlin 2-no                                               
   RPACOR =    0.800    partial core radius                                                         
   POMASS =   12.011; ZVAL   =    4.000    mass and valenz                                          
   RCORE  =    1.100    outmost cutoff radius                                                       
   RWIGS  =    1.630; RWIGS  =    0.863    wigner-seitz radius (au A)                               
   ENMAX  =  700.000; ENMIN  =  500.000 eV                                                          
   ICORE  =        2    local potential                                                             
   LCOR   =        T    correct aug charges                                                         
   LPAW   =        T    paw PP                                                                      
   EAUG   =  946.768                                                                                
   DEXC   =    0.000                                                                                
   RMAX   =    1.128    core radius for proj-oper                                                   
   RAUG   =    1.300    factor for augmentation sphere                                              
   RDEP   =    1.162    radius for radial grids                                                     
   RDEPT  =    1.088    core radius for aug-charge                                                  
                                                                                                    
   Atomic configuration                                                                             
    4 entries                                                                                       
     n  l   j            E        occ.                                                              
     1  0  0.50      -273.3789   2.0000                                                             
     2  0  0.50       -13.7508   2.0000                                                             
     2  1  0.50        -5.2854   2.0000                                                             
     3  2  1.50        -5.4423   0.0000                                                             
   Description                                                                                      
     l       E           TYP  RCUT    TYP  RCUT                                                     
     0    -13.7508458     23  1.100                                                                 
     0     -8.2022199     23  1.100                                                                 
     1     -5.2854383     23  1.100                                                                 
     1      1.1560700     23  1.100                                                                 
     2     -5.4423304      7  1.100                                                                 
  local pseudopotential read in
  partial core-charges read in
  partial kinetic energy density read in
  atomic valenz-charges read in
  non local Contribution for L=           0  read in
    real space projection operators read in
  non local Contribution for L=           0  read in
    real space projection operators read in
  non local Contribution for L=           1  read in
    real space projection operators read in
  non local Contribution for L=           1  read in
    real space projection operators read in
    PAW grid and wavefunctions read in

   number of l-projection  operators is LMAX  =           4
   number of lm-projection operators is LMMAX =           8

 POTCAR:    PAW_PBE O_h 06Feb2004                 
   VRHFIN =O: s2p4                                                                                  
   LEXCH  = PE                                                                                      
   EATOM  =   432.3788 eV,   31.7789 Ry                                                             
                                                                                                    
   TITEL  = PAW_PBE O_h 06Feb2004                                                                   
   LULTRA =        F    use ultrasoft PP ?                                                          
   IUNSCR =        1    unscreen: 0-lin 1-nonlin 2-no                                               
   RPACOR =    0.800    partial core radius                                                         
   POMASS =   16.000; ZVAL   =    6.000    mass and valenz                                          
   RCORE  =    1.100    outmost cutoff radius                                                       
   RWIGS  =    1.400; RWIGS  =    0.741    wigner-seitz radius (au A)                               
   ENMAX  =  700.000; ENMIN  =  500.000 eV                                                          
   ICORE  =        2    local potential                                                             
   LCOR   =        T    correct aug charges                                                         
   LPAW   =        T    paw PP                                                                      
   EAUG   =  888.804                                                                                
   DEXC   =    0.000                                                                                
   RMAX   =    1.128    core radius for proj-oper                                                   
   RAUG   =    1.300    factor for augmentation sphere                                              
   RDEP   =    1.125    radius for radial grids                                                     
   RDEPT  =    1.088    core radius for aug-charge                                                  
                                                                                                    
   Atomic configuration                                                                             
    4 entries                                                                                       
     n  l   j            E        occ.                                                              
     1  0  0.50      -514.6923   2.0000                                                             
     2  0  0.50       -23.9615   2.0000                                                             
     2  1  0.50        -9.0305   4.0000                                                             
     3  2  1.50        -9.5241   0.0000                                                             
   Description                                                                                      
     l       E           TYP  RCUT    TYP  RCUT                                                     
     0    -23.9615319     23  1.100                                                                 
     0    -25.3221145     23  1.100                                                                 
     1     -9.0304911     23  1.100                                                                 
     1     -5.4802209     23  1.100                                                                 
     2     -9.5240782      7  1.100                                                                 
  local pseudopotential read in
  partial core-charges read in
  partial kinetic energy density read in
  atomic valenz-charges read in
  non local Contribution for L=           0  read in
    real space projection operators read in
  non local Contribution for L=           0  read in
    real space projection operators read in
  non local Contribution for L=           1  read in
    real space projection operators read in
  non local Contribution for L=           1  read in
    real space projection operators read in
    PAW grid and wavefunctions read in

   number of l-projection  operators is LMAX  =           4
   number of lm-projection operators is LMMAX =           8

  PAW_PBE C_h 06Feb2004                 :
 energy of atom  1       EATOM= -147.1560
 kinetic energy error for atom=    0.0031 (will be added to EATOM!!)
  PAW_PBE O_h 06Feb2004                 :
 energy of atom  2       EATOM= -432.3788
 kinetic energy error for atom=    0.0171 (will be added to EATOM!!)


 POSCAR:  C  O
  positions in cartesian coordinates
  No initial velocities read in
 exchange correlation table for  LEXCH =        8
   RHO(1)=    0.500       N(1)  =     2000
   RHO(2)=  100.500       N(2)  =     4000

 VTST: version 4.1, (05/19/21)

 CHAIN: initializing optimizer
 
 OPT: Using VASP Dynamics algorithm
 CHAIN: Read ICHAIN            0

 POSCAR:  C  O
  positions in cartesian coordinates
  No initial velocities read in



--------------------------------------------------------------------------------------------------------


 ion  position               nearest neighbor table
   1  0.060  0.060  0.060-   5 1.17   6 1.17
   2  0.560  0.060  0.560-   8 1.17   7 1.17
   3  0.060  0.560  0.560-  10 1.17   9 1.17
   4  0.560  0.560  0.060-  12 1.17  11 1.17
   5  0.180  0.180  0.180-   1 1.17
   6  0.940  0.940  0.940-   1 1.17
   7  0.440  0.940  0.680-   2 1.17
   8  0.680  0.180  0.440-   2 1.17
   9  0.940  0.680  0.440-   3 1.17
  10  0.180  0.440  0.680-   3 1.17
  11  0.680  0.440  0.940-   4 1.17
  12  0.440  0.680  0.180-   4 1.17

  LATTYP: Found a simple cubic cell.
 ALAT       =     5.6240000000
  
  Lattice vectors:
  
 A1 = (   5.6240000000,   0.0000000000,   0.0000000000)
 A2 = (   0.0000000000,   5.6240000000,   0.0000000000)
 A3 = (   0.0000000000,   0.0000000000,   5.6240000000)


Analysis of symmetry for initial positions (statically):
=====================================================================
 Subroutine PRICEL returns:
 Original cell was already a primitive cell.
 

 Routine SETGRP: Setting up the symmetry group for a 
 simple cubic supercell.


 Subroutine GETGRP returns: Found 24 space group operations
 (whereof  3 operations were pure point group operations)
 out of a pool of 48 trial point group operations.


The static configuration has the point symmetry C_3 .
 The point group associated with its full space group is T_h .


Analysis of symmetry for dynamics (positions and initial velocities):
=====================================================================
 Subroutine PRICEL returns:
 Original cell was already a primitive cell.
 

 Routine SETGRP: Setting up the symmetry group for a 
 simple cubic supercell.


 Subroutine GETGRP returns: Found 24 space group operations
 (whereof  3 operations were pure point group operations)
 out of a pool of 48 trial point group operations.


The dynamic configuration has the point symmetry C_3 .
 The point group associated with its full space group is T_h .


 Subroutine INISYM returns: Found 24 space group operations
 (whereof  3 operations are pure point group operations),
 and found     1 'primitive' translations


----------------------------------------------------------------------------------------

                                     Primitive cell                                     

  volume of cell :     177.8836

  direct lattice vectors                    reciprocal lattice vectors
     5.624000000  0.000000000  0.000000000     0.177809388  0.000000000  0.000000000
     0.000000000  5.624000000  0.000000000     0.000000000  0.177809388  0.000000000
     0.000000000  0.000000000  5.624000000     0.000000000  0.000000000  0.177809388

  length of vectors
     5.624000000  5.624000000  5.624000000     0.177809388  0.177809388  0.177809388

  position of ions in fractional coordinates (direct lattice)
     0.059987786  0.059987776  0.059987775
     0.559987778  0.059987768  0.559987763
     0.059987778  0.559987765  0.559987768
     0.559987773  0.559987770  0.059987770
     0.179963330  0.179963313  0.179963318
     0.940012222  0.940012223  0.940012218
     0.440012229  0.940012232  0.679963321
     0.679963320  0.179963309  0.440012217
     0.940012202  0.679963342  0.440012187
     0.179963354  0.440012195  0.679963346
     0.679963307  0.440012225  0.940012230
     0.440012246  0.679963308  0.179963311

  ion indices of the primitive-cell ions
   primitive index   ion index
                 1           1
                 2           2
                 3           3
                 4           4
                 5           5
                 6           6
                 7           7
                 8           8
                 9           9
                10          10
                11          11
                12          12

----------------------------------------------------------------------------------------



 KPOINTS: auto                                    

Automatic generation of k-mesh.
 Grid dimensions read from file:
 generate k-points for:    5    5    5

 Generating k-lattice:

  Cartesian coordinates                     Fractional coordinates (reciprocal lattice)
     0.035561878  0.000000000  0.000000000     0.200000000  0.000000000  0.000000000
     0.000000000  0.035561878  0.000000000     0.000000000  0.200000000  0.000000000
     0.000000000  0.000000000  0.035561878     0.000000000  0.000000000  0.200000000

  Length of vectors
     0.035561878  0.035561878  0.035561878

  Shift w.r.t. Gamma in fractional coordinates (k-lattice)
     0.000000000  0.000000000  0.000000000

 
 Subroutine IBZKPT returns following result:
 ===========================================
 
 Found     11 irreducible k-points:
 
 Following reciprocal coordinates:
            Coordinates               Weight
  0.000000  0.000000  0.000000      1.000000
  0.200000  0.000000  0.000000      6.000000
  0.400000  0.000000  0.000000      6.000000
  0.200000  0.200000  0.000000     12.000000
  0.400000  0.200000  0.000000     12.000000
 -0.200000  0.400000  0.000000     12.000000
  0.400000  0.400000  0.000000     12.000000
  0.200000  0.200000  0.200000      8.000000
  0.400000  0.200000  0.200000     24.000000
  0.400000  0.400000  0.200000     24.000000
  0.400000  0.400000  0.400000      8.000000
 
 Following cartesian coordinates:
            Coordinates               Weight
  0.000000  0.000000  0.000000      1.000000
  0.035562  0.000000  0.000000      6.000000
  0.071124  0.000000  0.000000      6.000000
  0.035562  0.035562  0.000000     12.000000
  0.071124  0.035562  0.000000     12.000000
 -0.035562  0.071124  0.000000     12.000000
  0.071124  0.071124  0.000000     12.000000
  0.035562  0.035562  0.035562      8.000000
  0.071124  0.035562  0.035562     24.000000
  0.071124  0.071124  0.035562     24.000000
  0.071124  0.071124  0.071124      8.000000
 


--------------------------------------------------------------------------------------------------------




 Dimension of arrays:
   k-points           NKPTS =     11   k-points in BZ     NKDIM =     11   number of bands    NBANDS=    128
   number of dos      NEDOS =    301   number of ions     NIONS =     12
   non local maximal  LDIM  =      4   non local SUM 2l+1 LMDIM =      8
   total plane-waves  NPLWV = 216000
   max r-space proj   IRMAX =      1   max aug-charges    IRDMAX=   9054
   dimension x,y,z NGX =    60 NGY =   60 NGZ =   60
   dimension x,y,z NGXF=   120 NGYF=  120 NGZF=  120
   support grid    NGXF=   120 NGYF=  120 NGZF=  120
   ions per type =               4   8
   NGX,Y,Z   is equivalent  to a cutoff of  17.74, 17.74, 17.74 a.u.
   NGXF,Y,Z  is equivalent  to a cutoff of  35.47, 35.47, 35.47 a.u.

 SYSTEM =  unknown system                          
 POSCAR =   C  O                                   

 Startparameter for this run:
   NWRITE =      2    write-flag & timer
   PREC   = accura    normal or accurate (medium, high low for compatibility)
   ISTART =      0    job   : 0-new  1-cont  2-samecut
   ICHARG =      2    charge: 1-file 2-atom 10-const
   ISPIN  =      1    spin polarized calculation?
   LNONCOLLINEAR =      F non collinear calculations
   LSORBIT =      F    spin-orbit coupling
   INIWAV =      1    electr: 0-lowe 1-rand  2-diag
   LASPH  =      F    aspherical Exc in radial PAW
 Electronic Relaxation 1
   ENCUT  = 1000.0 eV  73.50 Ry    8.57 a.u.  14.50 14.50 14.50*2*pi/ulx,y,z
   ENINI  = 1000.0     initial cutoff
   ENAUG  =  946.8 eV  augmentation charge cutoff
   NELM   =     60;   NELMIN=  2; NELMDL= -5     # of ELM steps 
   EDIFF  = 0.1E-06   stopping-criterion for ELM
   LREAL  =      F    real-space projection
   NLSPLINE    = F    spline interpolate recip. space projectors
   LCOMPAT=      F    compatible to vasp.4.4
   GGA_COMPAT  = T    GGA compatible to vasp.4.4-vasp.4.6
   LMAXPAW     = -100 max onsite density
   LMAXMIX     =    2 max onsite mixed and CHGCAR
   VOSKOWN=      0    Vosko Wilk Nusair interpolation
   ROPT   =    0.00000   0.00000
 Ionic relaxation
   EDIFFG = 0.1E-05   stopping-criterion for IOM
   NSW    =      0    number of steps for IOM
   NBLOCK =      1;   KBLOCK =      1    inner block; outer block 
   IBRION =     -1    ionic relax: 0-MD 1-quasi-New 2-CG
   NFREE  =      0    steps in history (QN), initial steepest desc. (CG)
   ISIF   =      0    stress and relaxation
   IWAVPR =     10    prediction:  0-non 1-charg 2-wave 3-comb
   ISYM   =      2    0-nonsym 1-usesym 2-fastsym
   LCORR  =      T    Harris-Foulkes like correction to forces

   POTIM  = 0.5000    time-step for ionic-motion
   TEIN   =    0.0    initial temperature
   TEBEG  =    0.0;   TEEND  =   0.0 temperature during run
   SMASS  =  -3.00    Nose mass-parameter (am)
   estimated Nose-frequenzy (Omega)   =  0.10E-29 period in steps = 0.13E+47 mass=  -0.723E-27a.u.
   SCALEE = 1.0000    scale energy and forces
   NPACO  =    256;   APACO  = 10.0  distance and # of slots for P.C.
   PSTRESS=    0.0 pullay stress

  Mass of Ions in am
   POMASS =  12.01 16.00
  Ionic Valenz
   ZVAL   =   4.00  6.00
  Atomic Wigner-Seitz radii
   RWIGS  =  -1.00 -1.00
  virtual crystal weights 
   VCA    =   1.00  1.00
   NELECT =      64.0000    total number of electrons
   NUPDOWN=      -1.0000    fix difference up-down

 DOS related values:
   EMIN   =  10.00;   EMAX   =-10.00  energy-range for DOS
   EFERMI =   0.00;   METHOD = LEGACY      
   ISMEAR =     0;   SIGMA  =   0.01  broadening in eV -4-tet -1-fermi 0-gaus

 Electronic relaxation 2 (details)
   IALGO  =     58    algorithm
   LDIAG  =      T    sub-space diagonalisation (order eigenvalues)
   LSUBROT=      F    optimize rotation matrix (better conditioning)
   TURBO    =      0    0=normal 1=particle mesh
   IRESTART =      0    0=no restart 2=restart with 2 vectors
   NREBOOT  =      0    no. of reboots
   NMIN     =      0    reboot dimension
   EREF     =   0.00    reference energy to select bands
   IMIX   =      4    mixing-type and parameters
     AMIX     =   0.40;   BMIX     =  1.00
     AMIX_MAG =   1.60;   BMIX_MAG =  1.00
     AMIN     =   0.10
     WC   =   100.;   INIMIX=   1;  MIXPRE=   1;  MAXMIX= -45

 Intra band minimization:
   WEIMIN = 0.0000     energy-eigenvalue tresh-hold
   EBREAK =  0.20E-09  absolut break condition
   DEPER  =   0.30     relativ break condition  

   TIME   =   0.40     timestep for ELM

  volume/ion in A,a.u.               =      14.82       100.03
  Fermi-wavevector in a.u.,A,eV,Ry     =   1.164366  2.200333 18.446073  1.355748
  Thomas-Fermi vector in A             =   2.300905

 Write flags
   LWAVE        =      F    write WAVECAR
   LDOWNSAMPLE  =      F    k-point downsampling of WAVECAR
   LCHARG       =      T    write CHGCAR
   LVTOT        =      F    write LOCPOT, total local potential
   LVHAR        =      F    write LOCPOT, Hartree potential only
   LELF         =      F    write electronic localiz. function (ELF)
   LORBIT       =      0    0 simple, 1 ext, 2 COOP (PROOUT), +10 PAW based schemes


 Dipole corrections
   LMONO  =      F    monopole corrections only (constant potential shift)
   LDIPOL =      F    correct potential (dipole corrections)
   IDIPOL =      0    1-x, 2-y, 3-z, 4-all directions 
   EPSILON=  1.0000000 bulk dielectric constant

 Exchange correlation treatment:
   GGA     =    --    GGA type
   LEXCH   =     8    internal setting for exchange type
   LIBXC   =     F    Libxc                    
   VOSKOWN =     0    Vosko Wilk Nusair interpolation
   LHFCALC =     F    Hartree Fock is set to
   LHFONE  =     F    Hartree Fock one center treatment
   AEXX    =    0.0000 exact exchange contribution

 Linear response parameters
   LEPSILON=     F    determine dielectric tensor
   LRPA    =     F    only Hartree local field effects (RPA)
   LNABLA  =     F    use nabla operator in PAW spheres
   LVEL    =     F    velocity operator in full k-point grid
   CSHIFT  =0.1000    complex shift for real part using Kramers Kronig
   OMEGAMAX=  -1.0    maximum frequency
   DEG_THRESHOLD= 0.2000000E-02 threshold for treating states as degnerate
   RTIME   =   -0.100 relaxation time in fs
  (WPLASMAI=    0.000 imaginary part of plasma frequency in eV, 0.658/RTIME)
   DFIELD  = 0.0000000 0.0000000 0.0000000 field for delta impulse in time

  Optional k-point grid parameters
   LKPOINTS_OPT  =     F    use optional k-point grid
   KPOINTS_OPT_MODE=     1    mode for optional k-point grid

 Orbital magnetization related:
   ORBITALMAG=     F  switch on orbital magnetization
   LCHIMAG   =     F  perturbation theory with respect to B field
   DQ        =  0.001000  dq finite difference perturbation B field
   LLRAUG    =     F  two centre corrections for induced B field
   LBONE     =     F  B-component reconstruction in AE one-centre
   LVGVCALC  =     T  calculate vGv susceptibility
   LVGVAPPL  =     F  apply vGv susceptibility instead of pGv for G=0

 Random number generation:
   RANDOM_GENERATOR = DEFAULT
   PCG_SEED         = not used


--------------------------------------------------------------------------------------------------------


 Static calculation
 charge density and potential will be updated during run
 non-spin polarized calculation
 Conjugate gradient for all bands (Freysoldt, et al. PRB 79, 241103 (2009))
 preconditioned conjugated gradient                                        
 perform sub-space diagonalisation
    before iterative eigenvector-optimisation
 modified Broyden-mixing scheme, WC =      100.0
 initial mixing is a Kerker type mixing with AMIX =  0.4000 and BMIX =      1.0000
 Hartree-type preconditioning will be used
 using additional bands           96
 reciprocal scheme for non local part
 use partial core corrections
 no Harris-corrections to forces 
 use gradient corrections 
 use of overlap-Matrix (Vanderbilt PP)
 Gauss-broadening in eV      SIGMA  =   0.01


--------------------------------------------------------------------------------------------------------


  energy-cutoff  :     1000.00
  volume of cell :      177.88
      direct lattice vectors                 reciprocal lattice vectors
     5.624000000  0.000000000  0.000000000     0.177809388  0.000000000  0.000000000
     0.000000000  5.624000000  0.000000000     0.000000000  0.177809388  0.000000000
     0.000000000  0.000000000  5.624000000     0.000000000  0.000000000  0.177809388

  length of vectors
     5.624000000  5.624000000  5.624000000     0.177809388  0.177809388  0.177809388



 k-points in units of 2pi/SCALE and weight: auto                                    
   0.00000000  0.00000000  0.00000000       0.008
   0.03556188  0.00000000  0.00000000       0.048
   0.07112376  0.00000000  0.00000000       0.048
   0.03556188  0.03556188  0.00000000       0.096
   0.07112376  0.03556188  0.00000000       0.096
  -0.03556188  0.07112376  0.00000000       0.096
   0.07112376  0.07112376  0.00000000       0.096
   0.03556188  0.03556188  0.03556188       0.064
   0.07112376  0.03556188  0.03556188       0.192
   0.07112376  0.07112376  0.03556188       0.192
   0.07112376  0.07112376  0.07112376       0.064

 k-points in reciprocal lattice and weights: auto                                    
   0.00000000  0.00000000  0.00000000       0.008
   0.20000000  0.00000000  0.00000000       0.048
   0.40000000  0.00000000  0.00000000       0.048
   0.20000000  0.20000000  0.00000000       0.096
   0.40000000  0.20000000  0.00000000       0.096
  -0.20000000  0.40000000  0.00000000       0.096
   0.40000000  0.40000000  0.00000000       0.096
   0.20000000  0.20000000  0.20000000       0.064
   0.40000000  0.20000000  0.20000000       0.192
   0.40000000  0.40000000  0.20000000       0.192
   0.40000000  0.40000000  0.40000000       0.064

 position of ions in fractional coordinates (direct lattice) 
   0.05998779  0.05998778  0.05998778
   0.55998778  0.05998777  0.55998776
   0.05998778  0.55998777  0.55998777
   0.55998777  0.55998777  0.05998777
   0.17996333  0.17996331  0.17996332
   0.94001222  0.94001222  0.94001222
   0.44001223  0.94001223  0.67996332
   0.67996332  0.17996331  0.44001222
   0.94001220  0.67996334  0.44001219
   0.17996335  0.44001220  0.67996335
   0.67996331  0.44001223  0.94001223
   0.44001225  0.67996331  0.17996331

 position of ions in cartesian coordinates  (Angst):
   0.33737131  0.33737125  0.33737125
   3.14937126  0.33737121  3.14937118
   0.33737126  3.14937119  3.14937121
   3.14937123  3.14937122  0.33737122
   1.01211377  1.01211367  1.01211370
   5.28662874  5.28662874  5.28662871
   2.47462878  5.28662879  3.82411372
   3.82411371  1.01211365  2.47462871
   5.28662862  3.82411384  2.47462854
   1.01211391  2.47462859  3.82411386
   3.82411364  2.47462875  5.28662878
   2.47462887  3.82411364  1.01211366



--------------------------------------------------------------------------------------------------------


 k-point   1 :   0.0000 0.0000 0.0000  plane waves:   12893
 k-point   2 :   0.2000 0.0000 0.0000  plane waves:   12817
 k-point   3 :   0.4000 0.0000 0.0000  plane waves:   12773
 k-point   4 :   0.2000 0.2000 0.0000  plane waves:   12779
 k-point   5 :   0.4000 0.2000 0.0000  plane waves:   12768
 k-point   6 :  -0.2000 0.4000 0.0000  plane waves:   12768
 k-point   7 :   0.4000 0.4000 0.0000  plane waves:   12758
 k-point   8 :   0.2000 0.2000 0.2000  plane waves:   12782
 k-point   9 :   0.4000 0.2000 0.2000  plane waves:   12778
 k-point  10 :   0.4000 0.4000 0.2000  plane waves:   12779
 k-point  11 :   0.4000 0.4000 0.4000  plane waves:   12769

 maximum and minimum number of plane-waves per node :      6458     6372

 maximum number of plane-waves:     12893
 maximum index in each direction: 
   IXMAX=   14   IYMAX=   14   IZMAX=   14
   IXMIN=  -14   IYMIN=  -14   IZMIN=  -14


 parallel 3D FFT for wavefunctions:
    minimum data exchange during FFTs selected (reduces bandwidth)
 parallel 3D FFT for charge:
    minimum data exchange during FFTs selected (reduces bandwidth)


 total amount of memory used by VASP MPI-rank0    52849. kBytes
=======================================================================

   base      :      30000. kBytes
   nonl-proj :      10444. kBytes
   fftplans  :       3710. kBytes
   grid      :       5164. kBytes
   one-center:         18. kBytes
   wavefun   :       3513. kBytes

     INWAV:  cpu time      0.0001: real time      0.0003
 Broyden mixing: mesh for mixing (old mesh)
   NGX = 29   NGY = 29   NGZ = 29
  (NGX  =120   NGY  =120   NGZ  =120)
  gives a total of  24389 points

 initial charge density was supplied:
 charge density of overlapping atoms calculated
 number of electron      64.0000000 magnetization 
 keeping initial charge density in first step


--------------------------------------------------------------------------------------------------------


 Maximum index for augmentation-charges          345 (set IRDMAX)


--------------------------------------------------------------------------------------------------------


 First call to EWALD:  gamma=   0.315
 Maximum number of real-space cells 3x 3x 3
 Maximum number of reciprocal cells 3x 3x 3

    FEWALD:  cpu time      0.0015: real time      0.0015


--------------------------------------- Ionic step        1  -------------------------------------------




--------------------------------------- Iteration      1(   1)  ---------------------------------------


    POTLOK:  cpu time      0.0452: real time      0.0460
    SETDIJ:  cpu time      0.0075: real time      0.0079
    TRIAL :  cpu time      6.0579: real time      6.0621
    CORREC:  cpu time      0.0016: real time      0.0017
    --------------------------------------------
      LOOP:  cpu time      6.1186: real time      6.1245

 eigenvalue-minimisations  :  2816
 total energy-change (2. order) : 0.2541071E+03  (-0.6521372E+04)
 number of electron      64.0000000 magnetization 
 augmentation part       64.0000000 magnetization 

 Free energy of the ion-electron system (eV)
  ---------------------------------------------------
  alpha Z        PSCENC =        64.50308324
  Ewald energy   TEWEN  =     -2171.10254707
  -Hartree energ DENC   =     -1496.95817215
  -exchange      EXHF   =         0.00000000
  -V(xc)+E(xc)   XCENC  =       234.06781945
  PAW double counting   =      3234.45881923    -3223.15099284
  entropy T*S    EENTRO =        -0.00028762
  eigenvalues    EBANDS =      -435.21631448
  atomic energy  EATOM  =      4047.50565470
  ---------------------------------------------------
  free energy    TOTEN  =       254.10706248 eV

  energy without entropy =      254.10735009  energy(sigma->0) =      254.10720628


--------------------------------------------------------------------------------------------------------




--------------------------------------- Iteration      1(   2)  ---------------------------------------


    TRIAL :  cpu time     16.6026: real time     16.6117
    CORREC:  cpu time      0.0002: real time      0.0002
    --------------------------------------------
      LOOP:  cpu time     16.6151: real time     16.6399

 eigenvalue-minimisations  :  4224
 total energy-change (2. order) :-0.3497002E+03  (-0.3488770E+03)
 number of electron      64.0000000 magnetization 
 augmentation part       64.0000000 magnetization 

 Free energy of the ion-electron system (eV)
  ---------------------------------------------------
  alpha Z        PSCENC =        64.50308324
  Ewald energy   TEWEN  =     -2171.10254707
  -Hartree energ DENC   =     -1496.95817215
  -exchange      EXHF   =         0.00000000
  -V(xc)+E(xc)   XCENC  =       234.06781945
  PAW double counting   =      3234.45881923    -3223.15099284
  entropy T*S    EENTRO =        -0.00000000
  eigenvalues    EBANDS =      -784.91684245
  atomic energy  EATOM  =      4047.50565470
  ---------------------------------------------------
  free energy    TOTEN  =       -95.59317787 eV

  energy without entropy =      -95.59317787  energy(sigma->0) =      -95.59317787


--------------------------------------------------------------------------------------------------------




--------------------------------------- Iteration      1(   3)  ---------------------------------------


    TRIAL :  cpu time      6.4793: real time      6.4825
    CORREC:  cpu time      0.0002: real time      0.0002
    --------------------------------------------
      LOOP:  cpu time      6.4931: real time      6.5118

 eigenvalue-minimisations  :  2816
 total energy-change (2. order) :-0.3958564E+01  (-0.3958564E+01)
 number of electron      64.0000000 magnetization 
 augmentation part       64.0000000 magnetization 

 Free energy of the ion-electron system (eV)
  ---------------------------------------------------
  alpha Z        PSCENC =        64.50308324
  Ewald energy   TEWEN  =     -2171.10254707
  -Hartree energ DENC   =     -1496.95817215
  -exchange      EXHF   =         0.00000000
  -V(xc)+E(xc)   XCENC  =       234.06781945
  PAW double counting   =      3234.45881923    -3223.15099284
  entropy T*S    EENTRO =        -0.00000000
  eigenvalues    EBANDS =      -788.87540632
  atomic energy  EATOM  =      4047.50565470
  ---------------------------------------------------
  free energy    TOTEN  =       -99.55174175 eV

  energy without entropy =      -99.55174175  energy(sigma->0) =      -99.55174175


--------------------------------------------------------------------------------------------------------




--------------------------------------- Iteration      1(   4)  ---------------------------------------


    TRIAL :  cpu time     35.0430: real time     35.0602
    CORREC:  cpu time      0.0002: real time      0.0002
    --------------------------------------------
      LOOP:  cpu time     35.0735: real time     35.0908

 eigenvalue-minimisations  :  5632
 total energy-change (2. order) :-0.7177770E-02  (-0.7177770E-02)
 number of electron      64.0000000 magnetization 
 augmentation part       64.0000000 magnetization 

 Free energy of the ion-electron system (eV)
  ---------------------------------------------------
  alpha Z        PSCENC =        64.50308324
  Ewald energy   TEWEN  =     -2171.10254707
  -Hartree energ DENC   =     -1496.95817215
  -exchange      EXHF   =         0.00000000
  -V(xc)+E(xc)   XCENC  =       234.06781945
  PAW double counting   =      3234.45881923    -3223.15099284
  entropy T*S    EENTRO =        -0.00000000
  eigenvalues    EBANDS =      -788.88258409
  atomic energy  EATOM  =      4047.50565470
  ---------------------------------------------------
  free energy    TOTEN  =       -99.55891952 eV

  energy without entropy =      -99.55891952  energy(sigma->0) =      -99.55891952


--------------------------------------------------------------------------------------------------------




--------------------------------------- Iteration      1(   5)  ---------------------------------------


    TRIAL :  cpu time      6.3767: real time      6.3811
    CORREC:  cpu time      0.0002: real time      0.0002
    CHARGE:  cpu time      0.0882: real time      0.0886
    --------------------------------------------
      LOOP:  cpu time      6.4798: real time      6.4987

 eigenvalue-minimisations  :  2816
 total energy-change (2. order) :-0.2831166E-07  (-0.2831127E-07)
 number of electron      64.0000001 magnetization 
 augmentation part        0.4972571 magnetization 

 Free energy of the ion-electron system (eV)
  ---------------------------------------------------
  alpha Z        PSCENC =        64.50308324
  Ewald energy   TEWEN  =     -2171.10254707
  -Hartree energ DENC   =     -1496.95817215
  -exchange      EXHF   =         0.00000000
  -V(xc)+E(xc)   XCENC  =       234.06781945
  PAW double counting   =      3234.45881923    -3223.15099284
  entropy T*S    EENTRO =        -0.00000000
  eigenvalues    EBANDS =      -788.88258412
  atomic energy  EATOM  =      4047.50565470
  ---------------------------------------------------
  free energy    TOTEN  =       -99.55891954 eV

  energy without entropy =      -99.55891954  energy(sigma->0) =      -99.55891954


--------------------------------------------------------------------------------------------------------




--------------------------------------- Iteration      1(   6)  ---------------------------------------


    POTLOK:  cpu time      0.0182: real time      0.0182
    SETDIJ:  cpu time      0.0017: real time      0.0017
    TRIAL :  cpu time      1.4516: real time      1.4536
    CORREC:  cpu time      0.4170: real time      0.4176
    CHARGE:  cpu time      0.0475: real time      0.0475
    --------------------------------------------
      LOOP:  cpu time      1.9515: real time      1.9676

 eigenvalue-minimisations  :     0
 total energy-change (2. order) : 0.1578114E+02  (-0.8512238E+01)
 number of electron      64.0000001 magnetization 
 augmentation part        0.2715732 magnetization 

 Free energy of the ion-electron system (eV)
  ---------------------------------------------------
  alpha Z        PSCENC =        64.50308324
  Ewald energy   TEWEN  =     -2171.10254707
  -Hartree energ DENC   =     -1778.62587485
  -exchange      EXHF   =         0.00000000
  -V(xc)+E(xc)   XCENC  =       252.43108247
  PAW double counting   =     40024.43666258   -40017.89166767
  entropy T*S    EENTRO =        -0.00000000
  eigenvalues    EBANDS =      -505.03417731
  atomic energy  EATOM  =      4047.50565470
  ---------------------------------------------------
  free energy    TOTEN  =       -83.77778389 eV

  energy without entropy =      -83.77778389  energy(sigma->0) =      -83.77778389


--------------------------------------------------------------------------------------------------------




--------------------------------------- Iteration      1(   7)  ---------------------------------------


    POTLOK:  cpu time      0.0173: real time      0.0173
    SETDIJ:  cpu time      0.0017: real time      0.0017
    TRIAL :  cpu time      0.6161: real time      0.6161
    CORREC:  cpu time      0.4007: real time      0.4010
    CHARGE:  cpu time      0.0477: real time      0.0477
    --------------------------------------------
      LOOP:  cpu time      1.1129: real time      1.1135

 eigenvalue-minimisations  :     0
 total energy-change (2. order) :-0.8516342E+01  (-0.8046445E+00)
 number of electron      64.0000000 magnetization 
 augmentation part        0.2619762 magnetization 

 Free energy of the ion-electron system (eV)
  ---------------------------------------------------
  alpha Z        PSCENC =        64.50308324
  Ewald energy   TEWEN  =     -2171.10254707
  -Hartree energ DENC   =     -1650.45624327
  -exchange      EXHF   =         0.00000000
  -V(xc)+E(xc)   XCENC  =       243.98352628
  PAW double counting   =     55140.46970136   -55131.36813627
  entropy T*S    EENTRO =        -0.00000000
  eigenvalues    EBANDS =      -635.82916438
  atomic energy  EATOM  =      4047.50565470
  ---------------------------------------------------
  free energy    TOTEN  =       -92.29412540 eV

  energy without entropy =      -92.29412540  energy(sigma->0) =      -92.29412540


--------------------------------------------------------------------------------------------------------




--------------------------------------- Iteration      1(   8)  ---------------------------------------


    POTLOK:  cpu time      0.0160: real time      0.0160
    SETDIJ:  cpu time      0.0017: real time      0.0017
    TRIAL :  cpu time      0.6166: real time      0.6166
    CORREC:  cpu time      0.4226: real time      0.4231
    CHARGE:  cpu time      0.0475: real time      0.0475
    --------------------------------------------
      LOOP:  cpu time      1.1164: real time      1.1341

 eigenvalue-minimisations  :     0
 total energy-change (2. order) :-0.8025079E+00  (-0.8140944E-01)
 number of electron      64.0000001 magnetization 
 augmentation part        0.2710985 magnetization 

 Free energy of the ion-electron system (eV)
  ---------------------------------------------------
  alpha Z        PSCENC =        64.50308324
  Ewald energy   TEWEN  =     -2171.10254707
  -Hartree energ DENC   =     -1631.45967658
  -exchange      EXHF   =         0.00000000
  -V(xc)+E(xc)   XCENC  =       242.62066085
  PAW double counting   =     47179.89027616   -47170.76170278
  entropy T*S    EENTRO =        -0.00000000
  eigenvalues    EBANDS =      -654.29238178
  atomic energy  EATOM  =      4047.50565470
  ---------------------------------------------------
  free energy    TOTEN  =       -93.09663326 eV

  energy without entropy =      -93.09663326  energy(sigma->0) =      -93.09663326


--------------------------------------------------------------------------------------------------------




--------------------------------------- Iteration      1(   9)  ---------------------------------------


    POTLOK:  cpu time      0.0156: real time      0.0156
    SETDIJ:  cpu time      0.0018: real time      0.0018
    TRIAL :  cpu time      0.6119: real time      0.6124
    CORREC:  cpu time      0.3986: real time      0.3986
    CHARGE:  cpu time      0.0471: real time      0.0471
    --------------------------------------------
      LOOP:  cpu time      1.0874: real time      1.1049

 eigenvalue-minimisations  :     0
 total energy-change (2. order) :-0.8146592E-01  (-0.1026408E-01)
 number of electron      64.0000000 magnetization 
 augmentation part        0.2661053 magnetization 

 Free energy of the ion-electron system (eV)
  ---------------------------------------------------
  alpha Z        PSCENC =        64.50308324
  Ewald energy   TEWEN  =     -2171.10254707
  -Hartree energ DENC   =     -1626.28841784
  -exchange      EXHF   =         0.00000000
  -V(xc)+E(xc)   XCENC  =       242.29376551
  PAW double counting   =     46616.93481932   -46607.84557823
  entropy T*S    EENTRO =        -0.00000000
  eigenvalues    EBANDS =      -659.17887883
  atomic energy  EATOM  =      4047.50565470
  ---------------------------------------------------
  free energy    TOTEN  =       -93.17809918 eV

  energy without entropy =      -93.17809918  energy(sigma->0) =      -93.17809918


--------------------------------------------------------------------------------------------------------




--------------------------------------- Iteration      1(  10)  ---------------------------------------


    POTLOK:  cpu time      0.0154: real time      0.0154
    SETDIJ:  cpu time      0.0018: real time      0.0018
    TRIAL :  cpu time      0.6111: real time      0.6115
    CORREC:  cpu time      0.3965: real time      0.3965
    CHARGE:  cpu time      0.0474: real time      0.0474
    --------------------------------------------
      LOOP:  cpu time      1.1012: real time      1.1019

 eigenvalue-minimisations  :     0
 total energy-change (2. order) :-0.1024923E-01  (-0.7830336E-03)
 number of electron      64.0000000 magnetization 
 augmentation part        0.2655178 magnetization 

 Free energy of the ion-electron system (eV)
  ---------------------------------------------------
  alpha Z        PSCENC =        64.50308324
  Ewald energy   TEWEN  =     -2171.10254707
  -Hartree energ DENC   =     -1624.59160864
  -exchange      EXHF   =         0.00000000
  -V(xc)+E(xc)   XCENC  =       242.18960291
  PAW double counting   =     46782.40938885   -46773.28153120
  entropy T*S    EENTRO =        -0.00000000
  eigenvalues    EBANDS =      -660.82039121
  atomic energy  EATOM  =      4047.50565470
  ---------------------------------------------------
  free energy    TOTEN  =       -93.18834841 eV

  energy without entropy =      -93.18834841  energy(sigma->0) =      -93.18834841


--------------------------------------------------------------------------------------------------------




--------------------------------------- Iteration      1(  11)  ---------------------------------------


    POTLOK:  cpu time      0.0151: real time      0.0151
    SETDIJ:  cpu time      0.0017: real time      0.0017
    TRIAL :  cpu time      0.6109: real time      0.6113
    CORREC:  cpu time      0.3960: real time      0.3960
    CHARGE:  cpu time      0.0471: real time      0.0471
    --------------------------------------------
      LOOP:  cpu time      1.0834: real time      1.1005

 eigenvalue-minimisations  :     0
 total energy-change (2. order) :-0.7810079E-03  (-0.9342685E-04)
 number of electron      64.0000000 magnetization 
 augmentation part        0.2655555 magnetization 

 Free energy of the ion-electron system (eV)
  ---------------------------------------------------
  alpha Z        PSCENC =        64.50308324
  Ewald energy   TEWEN  =     -2171.10254707
  -Hartree energ DENC   =     -1624.61510419
  -exchange      EXHF   =         0.00000000
  -V(xc)+E(xc)   XCENC  =       242.19157691
  PAW double counting   =     46830.41101992   -46821.28156579
  entropy T*S    EENTRO =        -0.00000000
  eigenvalues    EBANDS =      -660.80124715
  atomic energy  EATOM  =      4047.50565470
  ---------------------------------------------------
  free energy    TOTEN  =       -93.18912942 eV

  energy without entropy =      -93.18912942  energy(sigma->0) =      -93.18912942


--------------------------------------------------------------------------------------------------------




--------------------------------------- Iteration      1(  12)  ---------------------------------------


    POTLOK:  cpu time      0.0159: real time      0.0159
    SETDIJ:  cpu time      0.0018: real time      0.0018
    TRIAL :  cpu time      0.6098: real time      0.6109
    CORREC:  cpu time      0.3969: real time      0.3969
    CHARGE:  cpu time      0.0468: real time      0.0469
    --------------------------------------------
      LOOP:  cpu time      1.0866: real time      1.1023

 eigenvalue-minimisations  :     0
 total energy-change (2. order) :-0.9427748E-04  (-0.1847669E-04)
 number of electron      64.0000000 magnetization 
 augmentation part        0.2655693 magnetization 

 Free energy of the ion-electron system (eV)
  ---------------------------------------------------
  alpha Z        PSCENC =        64.50308324
  Ewald energy   TEWEN  =     -2171.10254707
  -Hartree energ DENC   =     -1624.54964580
  -exchange      EXHF   =         0.00000000
  -V(xc)+E(xc)   XCENC  =       242.18687573
  PAW double counting   =     46860.89519532   -46851.76587350
  entropy T*S    EENTRO =        -0.00000000
  eigenvalues    EBANDS =      -660.86196633
  atomic energy  EATOM  =      4047.50565470
  ---------------------------------------------------
  free energy    TOTEN  =       -93.18922370 eV

  energy without entropy =      -93.18922370  energy(sigma->0) =      -93.18922370


--------------------------------------------------------------------------------------------------------




--------------------------------------- Iteration      1(  13)  ---------------------------------------


    POTLOK:  cpu time      0.0152: real time      0.0152
    SETDIJ:  cpu time      0.0018: real time      0.0018
    TRIAL :  cpu time      0.6095: real time      0.6104
    CORREC:  cpu time      0.3959: real time      0.3960
    CHARGE:  cpu time      0.0469: real time      0.0469
    --------------------------------------------
      LOOP:  cpu time      1.0859: real time      1.1030

 eigenvalue-minimisations  :     0
 total energy-change (2. order) :-0.1788690E-04  (-0.4338149E-05)
 number of electron      64.0000000 magnetization 
 augmentation part        0.2653641 magnetization 

 Free energy of the ion-electron system (eV)
  ---------------------------------------------------
  alpha Z        PSCENC =        64.50308324
  Ewald energy   TEWEN  =     -2171.10254707
  -Hartree energ DENC   =     -1624.63551651
  -exchange      EXHF   =         0.00000000
  -V(xc)+E(xc)   XCENC  =       242.19271287
  PAW double counting   =     46868.00209394   -46858.87391754
  entropy T*S    EENTRO =        -0.00000000
  eigenvalues    EBANDS =      -660.78080522
  atomic energy  EATOM  =      4047.50565470
  ---------------------------------------------------
  free energy    TOTEN  =       -93.18924158 eV

  energy without entropy =      -93.18924158  energy(sigma->0) =      -93.18924158


--------------------------------------------------------------------------------------------------------




--------------------------------------- Iteration      1(  14)  ---------------------------------------


    POTLOK:  cpu time      0.0160: real time      0.0160
    SETDIJ:  cpu time      0.0018: real time      0.0018
    TRIAL :  cpu time      0.6096: real time      0.6104
    CORREC:  cpu time      0.3955: real time      0.3956
    CHARGE:  cpu time      0.0472: real time      0.0476
    --------------------------------------------
      LOOP:  cpu time      1.0828: real time      1.1011

 eigenvalue-minimisations  :     0
 total energy-change (2. order) :-0.3294008E-05  (-0.4711475E-06)
 number of electron      64.0000000 magnetization 
 augmentation part        0.2654033 magnetization 

 Free energy of the ion-electron system (eV)
  ---------------------------------------------------
  alpha Z        PSCENC =        64.50308324
  Ewald energy   TEWEN  =     -2171.10254707
  -Hartree energ DENC   =     -1624.62084656
  -exchange      EXHF   =         0.00000000
  -V(xc)+E(xc)   XCENC  =       242.19194377
  PAW double counting   =     46885.14655521   -46876.01697943
  entropy T*S    EENTRO =        -0.00000000
  eigenvalues    EBANDS =      -660.79610874
  atomic energy  EATOM  =      4047.50565470
  ---------------------------------------------------
  free energy    TOTEN  =       -93.18924488 eV

  energy without entropy =      -93.18924488  energy(sigma->0) =      -93.18924488


--------------------------------------------------------------------------------------------------------




--------------------------------------- Iteration      1(  15)  ---------------------------------------


    POTLOK:  cpu time      0.0154: real time      0.0154
    SETDIJ:  cpu time      0.0018: real time      0.0018
    TRIAL :  cpu time      0.6102: real time      0.6102
    CORREC:  cpu time      0.3945: real time      0.3950
    CHARGE:  cpu time      0.0468: real time      0.0468
    --------------------------------------------
      LOOP:  cpu time      1.0975: real time      1.0982

 eigenvalue-minimisations  :     0
 total energy-change (2. order) :-0.4821632E-06  (-0.1081180E-06)
 number of electron      64.0000000 magnetization 
 augmentation part        0.2654209 magnetization 

 Free energy of the ion-electron system (eV)
  ---------------------------------------------------
  alpha Z        PSCENC =        64.50308324
  Ewald energy   TEWEN  =     -2171.10254707
  -Hartree energ DENC   =     -1624.63499369
  -exchange      EXHF   =         0.00000000
  -V(xc)+E(xc)   XCENC  =       242.19285947
  PAW double counting   =     46879.38750886   -46870.25834702
  entropy T*S    EENTRO =        -0.00000000
  eigenvalues    EBANDS =      -660.78246386
  atomic energy  EATOM  =      4047.50565470
  ---------------------------------------------------
  free energy    TOTEN  =       -93.18924536 eV

  energy without entropy =      -93.18924536  energy(sigma->0) =      -93.18924536


--------------------------------------------------------------------------------------------------------




--------------------------------------- Iteration      1(  16)  ---------------------------------------


    POTLOK:  cpu time      0.0156: real time      0.0156
    SETDIJ:  cpu time      0.0018: real time      0.0018
    TRIAL :  cpu time      0.6096: real time      0.6096
    CORREC:  cpu time      0.3950: real time      0.3955
    EDDIAG:  cpu time      0.3559: real time      0.3566
    CHARGE:  cpu time      0.0472: real time      0.0472
    --------------------------------------------
      LOOP:  cpu time      1.4385: real time      1.4559

 eigenvalue-minimisations  :     0
 total energy-change (2. order) :-0.9557698E-07  (-0.4805628E-07)
 number of electron      64.0000000 magnetization 
 augmentation part        0.2654282 magnetization 

 Free energy of the ion-electron system (eV)
  ---------------------------------------------------
  alpha Z        PSCENC =        64.50308324
  Ewald energy   TEWEN  =     -2171.10254707
  -Hartree energ DENC   =     -1624.63507485
  -exchange      EXHF   =         0.00000000
  -V(xc)+E(xc)   XCENC  =       242.19284811
  PAW double counting   =     46876.70165458   -46867.57261406
  entropy T*S    EENTRO =        -0.00000000
  eigenvalues    EBANDS =      -660.78225012
  atomic energy  EATOM  =      4047.50565470
  ---------------------------------------------------
  free energy    TOTEN  =       -93.18924546 eV

  energy without entropy =      -93.18924546  energy(sigma->0) =      -93.18924546


--------------------------------------------------------------------------------------------------------


  average scaling for gradient   1.2897


 average (electrostatic) potential at core
  the test charge radii are     0.5770  0.5955
  (the norm of the test charge is              1.0000)
       1 -85.3217       2 -85.3217       3 -85.3216       4 -85.3217       5-116.0857
       6-116.0857       7-116.0857       8-116.0857       9-116.0857      10-116.0857
      11-116.0857      12-116.0857



 E-fermi :  -3.0699     XC(G=0):  -7.8548     alpha+bet : -6.0625

 Fermi energy:        -3.0698677682

 k-point     1 :       0.0000    0.0000    0.0000
  band No.  band energies     occupation 
      1     -23.6682      2.00000
      2     -23.4613      2.00000
      3     -23.4613      2.00000
      4     -23.4613      2.00000
      5     -22.5353      2.00000
      6     -22.5353      2.00000
      7     -22.5353      2.00000
      8     -22.4817      2.00000
      9      -8.4009      2.00000
     10      -8.4009      2.00000
     11      -8.4009      2.00000
     12      -8.2209      2.00000
     13      -7.8127      2.00000
     14      -7.8127      2.00000
     15      -7.8127      2.00000
     16      -7.0791      2.00000
     17      -7.0791      2.00000
     18      -7.0258      2.00000
     19      -6.9318      2.00000
     20      -6.9318      2.00000
     21      -6.9318      2.00000
     22      -6.4857      2.00000
     23      -6.4857      2.00000
     24      -6.4857      2.00000
     25      -3.8939      2.00000
     26      -3.8939      2.00000
     27      -3.8939      2.00000
     28      -3.3541      2.00000
     29      -3.3541      2.00000
     30      -3.3541      2.00000
     31      -3.1627      2.00000
     32      -3.1627      2.00000
     33       3.6202      0.00000
     34       4.8750      0.00000
     35       4.8750      0.00000
     36       4.8750      0.00000
     37       5.1336      0.00000
     38       5.1336      0.00000
     39       5.7078      0.00000
     40       5.7078      0.00000
     41       5.7078      0.00000
     42       7.6926      0.00000
     43       7.6926      0.00000
     44       7.6926      0.00000
     45      10.5025      0.00000
     46      10.5025      0.00000
     47      10.5025      0.00000
     48      11.2006      0.00000
     49      11.2006      0.00000
     50      11.2006      0.00000
     51      11.5920      0.00000
     52      11.5920      0.00000
     53      11.5920      0.00000
     54      12.2816      0.00000
     55      12.5888      0.00000
     56      15.1339      0.00000
     57      15.1339      0.00000
     58      15.2963      0.00000
     59      15.2963      0.00000
     60      15.2963      0.00000
     61      15.9032      0.00000
     62      15.9032      0.00000
     63      15.9032      0.00000
     64      16.5525      0.00000
     65      16.5525      0.00000
     66      16.5525      0.00000
     67      18.8914      0.00000
     68      18.9466      0.00000
     69      18.9466      0.00000
     70      19.7654      0.00000
     71      19.7654      0.00000
     72      19.7654      0.00000
     73      20.5977      0.00000
     74      22.2670      0.00000
     75      22.2670      0.00000
     76      22.8744      0.00000
     77      22.8744      0.00000
     78      22.8744      0.00000
     79      23.5498      0.00000
     80      23.5498      0.00000
     81      23.5498      0.00000
     82      23.9159      0.00000
     83      23.9159      0.00000
     84      23.9159      0.00000
     85      24.6328      0.00000
     86      24.6328      0.00000
     87      25.5796      0.00000
     88      25.5796      0.00000
     89      25.5796      0.00000
     90      26.3918      0.00000
     91      26.3918      0.00000
     92      26.3918      0.00000
     93      26.7475      0.00000
     94      26.7475      0.00000
     95      26.7475      0.00000
     96      27.0762      0.00000
     97      27.4944      0.00000
     98      27.4944      0.00000
     99      27.4944      0.00000
    100      27.8045      0.00000
    101      28.2714      0.00000
    102      28.2714      0.00000
    103      28.2715      0.00000
    104      29.2769      0.00000
    105      29.2769      0.00000
    106      29.3052      0.00000
    107      29.3052      0.00000
    108      29.3052      0.00000
    109      29.7585      0.00000
    110      30.3047      0.00000
    111      31.1238      0.00000
    112      31.1238      0.00000
    113      31.1238      0.00000
    114      31.3178      0.00000
    115      31.3178      0.00000
    116      32.8520      0.00000
    117      32.8520      0.00000
    118      32.8520      0.00000
    119      33.3830      0.00000
    120      33.3830      0.00000
    121      33.3929      0.00000
    122      33.4618      0.00000
    123      33.4618      0.00000
    124      34.8186      0.00000
    125      34.8186      0.00000
    126      34.8238      0.00000
    127      35.0314      0.00000
    128      35.0316      0.00000

 k-point     2 :       0.2000    0.0000    0.0000
  band No.  band energies     occupation 
      1     -23.6497      2.00000
      2     -23.4825      2.00000
      3     -23.4612      2.00000
      4     -23.4612      2.00000
      5     -22.5343      2.00000
      6     -22.5341      2.00000
      7     -22.5302      2.00000
      8     -22.4869      2.00000
      9      -8.4405      2.00000
     10      -8.4350      2.00000
     11      -8.4253      2.00000
     12      -8.3017      2.00000
     13      -7.7161      2.00000
     14      -7.7055      2.00000
     15      -7.6817      2.00000
     16      -7.1171      2.00000
     17      -7.0714      2.00000
     18      -6.9992      2.00000
     19      -6.9857      2.00000
     20      -6.9618      2.00000
     21      -6.8938      2.00000
     22      -6.5871      2.00000
     23      -6.5394      2.00000
     24      -6.5248      2.00000
     25      -3.8271      2.00000
     26      -3.8235      2.00000
     27      -3.8200      2.00000
     28      -3.3762      2.00000
     29      -3.3746      2.00000
     30      -3.3270      2.00000
     31      -3.2262      2.00000
     32      -3.1738      2.00000
     33       3.8781      0.00000
     34       4.8336      0.00000
     35       4.9304      0.00000
     36       4.9513      0.00000
     37       5.0337      0.00000
     38       5.1579      0.00000
     39       5.6145      0.00000
     40       5.6454      0.00000
     41       5.6589      0.00000
     42       6.9969      0.00000
     43       7.8772      0.00000
     44       7.8852      0.00000
     45      10.2330      0.00000
     46      10.2587      0.00000
     47      10.5843      0.00000
     48      11.1239      0.00000
     49      11.2196      0.00000
     50      11.3374      0.00000
     51      11.5829      0.00000
     52      11.6950      0.00000
     53      11.9264      0.00000
     54      12.1861      0.00000
     55      12.8046      0.00000
     56      15.0646      0.00000
     57      15.1828      0.00000
     58      15.1892      0.00000
     59      15.2885      0.00000
     60      15.4015      0.00000
     61      15.5924      0.00000
     62      15.8202      0.00000
     63      15.9825      0.00000
     64      16.1702      0.00000
     65      17.1210      0.00000
     66      17.2389      0.00000
     67      18.8958      0.00000
     68      19.3229      0.00000
     69      19.3991      0.00000
     70      19.6682      0.00000
     71      19.7944      0.00000
     72      19.9640      0.00000
     73      20.9894      0.00000
     74      21.1824      0.00000
     75      21.5446      0.00000
     76      21.8160      0.00000
     77      22.5899      0.00000
     78      22.7265      0.00000
     79      23.4288      0.00000
     80      23.4311      0.00000
     81      23.5082      0.00000
     82      23.7043      0.00000
     83      23.9144      0.00000
     84      24.2247      0.00000
     85      24.4537      0.00000
     86      24.7549      0.00000
     87      24.9131      0.00000
     88      24.9344      0.00000
     89      25.4107      0.00000
     90      26.3069      0.00000
     91      26.5418      0.00000
     92      26.6218      0.00000
     93      26.7865      0.00000
     94      26.8902      0.00000
     95      27.2984      0.00000
     96      27.4885      0.00000
     97      27.5452      0.00000
     98      27.9066      0.00000
     99      27.9774      0.00000
    100      28.2956      0.00000
    101      28.8066      0.00000
    102      28.9013      0.00000
    103      29.0691      0.00000
    104      29.2812      0.00000
    105      29.4521      0.00000
    106      29.4954      0.00000
    107      29.7298      0.00000
    108      29.7972      0.00000
    109      29.8375      0.00000
    110      30.7325      0.00000
    111      30.9698      0.00000
    112      30.9733      0.00000
    113      31.0698      0.00000
    114      31.1917      0.00000
    115      31.5775      0.00000
    116      31.7910      0.00000
    117      32.4896      0.00000
    118      32.8331      0.00000
    119      33.1836      0.00000
    120      33.2201      0.00000
    121      33.4011      0.00000
    122      33.8514      0.00000
    123      34.1541      0.00000
    124      34.2807      0.00000
    125      34.4137      0.00000
    126      34.9757      0.00000
    127      35.0429      0.00000
    128      35.2015      0.00000

 k-point     3 :       0.4000    0.0000    0.0000
  band No.  band energies     occupation 
      1     -23.6000      2.00000
      2     -23.5363      2.00000
      3     -23.4610      2.00000
      4     -23.4610      2.00000
      5     -22.5325      2.00000
      6     -22.5323      2.00000
      7     -22.5170      2.00000
      8     -22.5004      2.00000
      9      -8.4745      2.00000
     10      -8.4678      2.00000
     11      -8.4667      2.00000
     12      -8.4164      2.00000
     13      -7.5158      2.00000
     14      -7.5045      2.00000
     15      -7.4597      2.00000
     16      -7.2799      2.00000
     17      -7.0670      2.00000
     18      -7.0664      2.00000
     19      -7.0238      2.00000
     20      -6.9045      2.00000
     21      -6.8498      2.00000
     22      -6.7271      2.00000
     23      -6.6764      2.00000
     24      -6.6244      2.00000
     25      -3.6919      2.00000
     26      -3.6867      2.00000
     27      -3.6292      2.00000
     28      -3.4374      2.00000
     29      -3.4342      2.00000
     30      -3.4011      2.00000
     31      -3.2665      2.00000
     32      -3.2089      2.00000
     33       4.6046      0.00000
     34       4.7932      0.00000
     35       4.8653      0.00000
     36       5.0477      0.00000
     37       5.1129      0.00000
     38       5.2470      0.00000
     39       5.4171      0.00000
     40       5.5216      0.00000
     41       5.5337      0.00000
     42       5.7748      0.00000
     43       8.2411      0.00000
     44       8.2516      0.00000
     45       9.7611      0.00000
     46       9.7622      0.00000
     47      10.7690      0.00000
     48      10.9569      0.00000
     49      11.2379      0.00000
     50      11.2407      0.00000
     51      11.6660      0.00000
     52      11.9255      0.00000
     53      12.0151      0.00000
     54      12.5098      0.00000
     55      13.2455      0.00000
     56      14.5330      0.00000
     57      15.0836      0.00000
     58      15.0972      0.00000
     59      15.2526      0.00000
     60      15.2826      0.00000
     61      15.3022      0.00000
     62      15.4918      0.00000
     63      16.9506      0.00000
     64      17.0930      0.00000
     65      18.1819      0.00000
     66      18.2077      0.00000
     67      18.2774      0.00000
     68      18.9894      0.00000
     69      19.4880      0.00000
     70      19.6740      0.00000
     71      19.8428      0.00000
     72      19.8528      0.00000
     73      20.3987      0.00000
     74      20.5627      0.00000
     75      21.5354      0.00000
     76      21.7969      0.00000
     77      21.9453      0.00000
     78      22.2834      0.00000
     79      22.3947      0.00000
     80      22.7003      0.00000
     81      23.5762      0.00000
     82      23.6476      0.00000
     83      23.8616      0.00000
     84      23.8713      0.00000
     85      24.5071      0.00000
     86      24.6258      0.00000
     87      24.6821      0.00000
     88      24.6863      0.00000
     89      26.0337      0.00000
     90      26.4766      0.00000
     91      26.5384      0.00000
     92      26.8831      0.00000
     93      27.1685      0.00000
     94      27.2386      0.00000
     95      27.4811      0.00000
     96      27.5866      0.00000
     97      27.9358      0.00000
     98      28.1648      0.00000
     99      28.3792      0.00000
    100      28.4019      0.00000
    101      28.5593      0.00000
    102      28.8321      0.00000
    103      29.6114      0.00000
    104      29.9154      0.00000
    105      29.9709      0.00000
    106      30.2388      0.00000
    107      30.4096      0.00000
    108      30.4425      0.00000
    109      30.5584      0.00000
    110      30.6921      0.00000
    111      31.0743      0.00000
    112      31.2676      0.00000
    113      31.5091      0.00000
    114      31.5817      0.00000
    115      31.6100      0.00000
    116      31.8084      0.00000
    117      31.9368      0.00000
    118      32.2265      0.00000
    119      32.9572      0.00000
    120      33.1761      0.00000
    121      33.3389      0.00000
    122      34.0823      0.00000
    123      34.2332      0.00000
    124      34.7639      0.00000
    125      34.8764      0.00000
    126      34.9729      0.00000
    127      35.2066      0.00000
    128      35.7076      0.00000

 k-point     4 :       0.2000    0.2000    0.0000
  band No.  band energies     occupation 
      1     -23.6326      2.00000
      2     -23.4802      2.00000
      3     -23.4802      2.00000
      4     -23.4630      2.00000
      5     -22.5333      2.00000
      6     -22.5298      2.00000
      7     -22.5296      2.00000
      8     -22.4916      2.00000
      9      -8.4714      2.00000
     10      -8.4600      2.00000
     11      -8.4327      2.00000
     12      -8.3269      2.00000
     13      -7.7045      2.00000
     14      -7.6439      2.00000
     15      -7.5607      2.00000
     16      -7.1976      2.00000
     17      -7.0519      2.00000
     18      -6.9978      2.00000
     19      -6.9644      2.00000
     20      -6.9186      2.00000
     21      -6.8974      2.00000
     22      -6.7215      2.00000
     23      -6.5764      2.00000
     24      -6.5185      2.00000
     25      -3.7734      2.00000
     26      -3.7617      2.00000
     27      -3.7599      2.00000
     28      -3.3914      2.00000
     29      -3.3548      2.00000
     30      -3.3535      2.00000
     31      -3.2519      2.00000
     32      -3.2145      2.00000
     33       4.1181      0.00000
     34       4.8315      0.00000
     35       4.8476      0.00000
     36       5.0309      0.00000
     37       5.0537      0.00000
     38       5.1594      0.00000
     39       5.5061      0.00000
     40       5.5968      0.00000
     41       5.6643      0.00000
     42       7.2020      0.00000
     43       7.2073      0.00000
     44       7.9692      0.00000
     45       9.8911      0.00000
     46      10.3130      0.00000
     47      10.3473      0.00000
     48      11.0746      0.00000
     49      11.3554      0.00000
     50      11.6190      0.00000
     51      11.7437      0.00000
     52      11.8293      0.00000
     53      11.9504      0.00000
     54      12.1896      0.00000
     55      12.8672      0.00000
     56      14.8831      0.00000
     57      14.8930      0.00000
     58      15.0397      0.00000
     59      15.3410      0.00000
     60      15.6824      0.00000
     61      15.7166      0.00000
     62      16.0210      0.00000
     63      16.1703      0.00000
     64      16.3448      0.00000
     65      16.9813      0.00000
     66      17.5338      0.00000
     67      18.9587      0.00000
     68      19.4525      0.00000
     69      19.5164      0.00000
     70      19.6732      0.00000
     71      19.7425      0.00000
     72      20.2425      0.00000
     73      20.4336      0.00000
     74      20.9882      0.00000
     75      21.3174      0.00000
     76      21.5000      0.00000
     77      22.4416      0.00000
     78      22.4824      0.00000
     79      22.8060      0.00000
     80      23.0986      0.00000
     81      23.4480      0.00000
     82      24.0353      0.00000
     83      24.0490      0.00000
     84      24.1702      0.00000
     85      24.4196      0.00000
     86      24.7397      0.00000
     87      24.7517      0.00000
     88      25.1896      0.00000
     89      25.3581      0.00000
     90      26.0677      0.00000
     91      26.2028      0.00000
     92      26.8644      0.00000
     93      27.0990      0.00000
     94      27.4065      0.00000
     95      27.5009      0.00000
     96      27.6621      0.00000
     97      28.1023      0.00000
     98      28.1503      0.00000
     99      28.2019      0.00000
    100      28.2676      0.00000
    101      28.6642      0.00000
    102      28.8784      0.00000
    103      28.9739      0.00000
    104      29.1710      0.00000
    105      29.7166      0.00000
    106      29.7934      0.00000
    107      29.9535      0.00000
    108      30.3143      0.00000
    109      30.4026      0.00000
    110      30.5938      0.00000
    111      30.7359      0.00000
    112      31.2901      0.00000
    113      31.2973      0.00000
    114      31.5256      0.00000
    115      31.7194      0.00000
    116      31.8780      0.00000
    117      32.0847      0.00000
    118      32.8153      0.00000
    119      33.0024      0.00000
    120      33.0178      0.00000
    121      33.4190      0.00000
    122      33.7520      0.00000
    123      34.0503      0.00000
    124      34.1240      0.00000
    125      34.5848      0.00000
    126      34.7688      0.00000
    127      34.9665      0.00000
    128      35.3663      0.00000

 k-point     5 :       0.4000    0.2000    0.0000
  band No.  band energies     occupation 
      1     -23.5870      2.00000
      2     -23.5289      2.00000
      3     -23.4745      2.00000
      4     -23.4679      2.00000
      5     -22.5310      2.00000
      6     -22.5295      2.00000
      7     -22.5182      2.00000
      8     -22.5037      2.00000
      9      -8.4993      2.00000
     10      -8.4803      2.00000
     11      -8.4528      2.00000
     12      -8.3994      2.00000
     13      -7.5838      2.00000
     14      -7.5072      2.00000
     15      -7.4050      2.00000
     16      -7.3108      2.00000
     17      -7.1452      2.00000
     18      -7.0468      2.00000
     19      -6.9194      2.00000
     20      -6.8933      2.00000
     21      -6.8024      2.00000
     22      -6.7998      2.00000
     23      -6.6739      2.00000
     24      -6.6181      2.00000
     25      -3.6585      2.00000
     26      -3.6487      2.00000
     27      -3.5933      2.00000
     28      -3.4357      2.00000
     29      -3.4254      2.00000
     30      -3.3936      2.00000
     31      -3.3066      2.00000
     32      -3.2585      2.00000
     33       4.7505      0.00000
     34       4.7722      0.00000
     35       4.7797      0.00000
     36       5.0719      0.00000
     37       5.2003      0.00000
     38       5.2328      0.00000
     39       5.3552      0.00000
     40       5.5390      0.00000
     41       5.5761      0.00000
     42       6.0420      0.00000
     43       7.6544      0.00000
     44       8.0110      0.00000
     45       9.5416      0.00000
     46       9.7968      0.00000
     47      10.5797      0.00000
     48      10.8732      0.00000
     49      11.3770      0.00000
     50      11.4840      0.00000
     51      11.9292      0.00000
     52      12.0324      0.00000
     53      12.1099      0.00000
     54      12.4730      0.00000
     55      13.3214      0.00000
     56      14.3814      0.00000
     57      14.7335      0.00000
     58      14.9677      0.00000
     59      15.2216      0.00000
     60      15.4245      0.00000
     61      16.0383      0.00000
     62      16.0803      0.00000
     63      16.8532      0.00000
     64      17.0789      0.00000
     65      17.7261      0.00000
     66      18.3258      0.00000
     67      18.3862      0.00000
     68      18.5803      0.00000
     69      19.0382      0.00000
     70      19.0709      0.00000
     71      19.9796      0.00000
     72      20.3398      0.00000
     73      20.6579      0.00000
     74      20.9174      0.00000
     75      21.0537      0.00000
     76      21.4009      0.00000
     77      21.9022      0.00000
     78      22.0017      0.00000
     79      22.8397      0.00000
     80      23.0231      0.00000
     81      23.1454      0.00000
     82      23.3641      0.00000
     83      23.7949      0.00000
     84      23.9620      0.00000
     85      24.5292      0.00000
     86      24.5388      0.00000
     87      25.3615      0.00000
     88      25.4228      0.00000
     89      25.9612      0.00000
     90      26.1539      0.00000
     91      26.5683      0.00000
     92      26.9066      0.00000
     93      27.2417      0.00000
     94      27.3737      0.00000
     95      27.5217      0.00000
     96      27.7972      0.00000
     97      28.1709      0.00000
     98      28.1981      0.00000
     99      28.4114      0.00000
    100      28.5012      0.00000
    101      28.5628      0.00000
    102      29.1810      0.00000
    103      29.3293      0.00000
    104      29.4580      0.00000
    105      29.8782      0.00000
    106      30.2423      0.00000
    107      30.3307      0.00000
    108      30.3472      0.00000
    109      30.5838      0.00000
    110      30.7806      0.00000
    111      31.1907      0.00000
    112      31.4109      0.00000
    113      31.4414      0.00000
    114      31.4671      0.00000
    115      32.0231      0.00000
    116      32.1173      0.00000
    117      32.4267      0.00000
    118      32.4941      0.00000
    119      32.9530      0.00000
    120      33.0806      0.00000
    121      33.4672      0.00000
    122      33.7538      0.00000
    123      34.1339      0.00000
    124      34.2396      0.00000
    125      34.5669      0.00000
    126      34.5869      0.00000
    127      35.1764      0.00000
    128      35.2620      0.00000

 k-point     6 :      -0.2000    0.4000    0.0000
  band No.  band energies     occupation 
      1     -23.5870      2.00000
      2     -23.5289      2.00000
      3     -23.4745      2.00000
      4     -23.4679      2.00000
      5     -22.5310      2.00000
      6     -22.5293      2.00000
      7     -22.5183      2.00000
      8     -22.5037      2.00000
      9      -8.4822      2.00000
     10      -8.4749      2.00000
     11      -8.4598      2.00000
     12      -8.4184      2.00000
     13      -7.5386      2.00000
     14      -7.5205      2.00000
     15      -7.4165      2.00000
     16      -7.3811      2.00000
     17      -7.0690      2.00000
     18      -6.9720      2.00000
     19      -6.9582      2.00000
     20      -6.9145      2.00000
     21      -6.8906      2.00000
     22      -6.7328      2.00000
     23      -6.7138      2.00000
     24      -6.5945      2.00000
     25      -3.6537      2.00000
     26      -3.6450      2.00000
     27      -3.5989      2.00000
     28      -3.4399      2.00000
     29      -3.4259      2.00000
     30      -3.4003      2.00000
     31      -3.3029      2.00000
     32      -3.2539      2.00000
     33       4.7324      0.00000
     34       4.7793      0.00000
     35       4.8616      0.00000
     36       4.9295      0.00000
     37       5.2270      0.00000
     38       5.2884      0.00000
     39       5.4334      0.00000
     40       5.4463      0.00000
     41       5.5840      0.00000
     42       6.0335      0.00000
     43       7.6590      0.00000
     44       8.0056      0.00000
     45       9.5481      0.00000
     46       9.8291      0.00000
     47      10.5388      0.00000
     48      10.8314      0.00000
     49      11.5219      0.00000
     50      11.6446      0.00000
     51      11.7067      0.00000
     52      11.8176      0.00000
     53      12.2052      0.00000
     54      12.5934      0.00000
     55      13.2162      0.00000
     56      14.2687      0.00000
     57      15.0269      0.00000
     58      15.0836      0.00000
     59      15.2637      0.00000
     60      15.5212      0.00000
     61      15.7765      0.00000
     62      15.9354      0.00000
     63      16.7677      0.00000
     64      17.1548      0.00000
     65      17.7679      0.00000
     66      18.1053      0.00000
     67      18.3670      0.00000
     68      18.8319      0.00000
     69      18.9299      0.00000
     70      19.5438      0.00000
     71      20.0440      0.00000
     72      20.2868      0.00000
     73      20.4979      0.00000
     74      20.7374      0.00000
     75      20.8391      0.00000
     76      20.8470      0.00000
     77      21.8368      0.00000
     78      22.2315      0.00000
     79      23.0233      0.00000
     80      23.4725      0.00000
     81      23.6587      0.00000
     82      23.7658      0.00000
     83      23.8675      0.00000
     84      24.2586      0.00000
     85      24.3237      0.00000
     86      24.5549      0.00000
     87      24.6887      0.00000
     88      24.7468      0.00000
     89      25.7055      0.00000
     90      26.2985      0.00000
     91      26.6367      0.00000
     92      26.8069      0.00000
     93      27.2019      0.00000
     94      27.4655      0.00000
     95      27.5876      0.00000
     96      27.6478      0.00000
     97      27.6867      0.00000
     98      28.3147      0.00000
     99      28.6038      0.00000
    100      28.6503      0.00000
    101      29.0188      0.00000
    102      29.3756      0.00000
    103      29.4124      0.00000
    104      29.8619      0.00000
    105      29.9444      0.00000
    106      30.0481      0.00000
    107      30.2565      0.00000
    108      30.3977      0.00000
    109      30.4260      0.00000
    110      30.6056      0.00000
    111      30.8036      0.00000
    112      31.2704      0.00000
[...]
     37       5.1137      0.00000
     38       5.3212      0.00000
     39       5.4672      0.00000
     40       5.5225      0.00000
     41       5.6285      0.00000
     42       6.1997      0.00000
     43       7.5563      0.00000
     44       7.5720      0.00000
     45       9.4278      0.00000
     46       9.5131      0.00000
     47      10.2368      0.00000
     48      10.6612      0.00000
     49      11.7312      0.00000
     50      11.8575      0.00000
     51      12.0021      0.00000
     52      12.1345      0.00000
     53      12.3208      0.00000
     54      12.6556      0.00000
     55      13.2996      0.00000
     56      14.3309      0.00000
     57      14.6201      0.00000
     58      14.8193      0.00000
     59      15.4047      0.00000
     60      15.5262      0.00000
     61      15.9951      0.00000
     62      16.1438      0.00000
     63      16.9090      0.00000
     64      17.0359      0.00000
     65      17.8803      0.00000
     66      18.1101      0.00000
     67      18.1839      0.00000
     68      18.4429      0.00000
     69      19.1291      0.00000
     70      19.4732      0.00000
     71      19.7366      0.00000
     72      20.1398      0.00000
     73      20.2882      0.00000
     74      20.5608      0.00000
     75      21.2156      0.00000
     76      21.5773      0.00000
     77      21.6656      0.00000
     78      22.3049      0.00000
     79      22.6874      0.00000
     80      23.0584      0.00000
     81      23.4572      0.00000
     82      23.7231      0.00000
     83      24.0684      0.00000
     84      24.2911      0.00000
     85      24.3490      0.00000
     86      24.6361      0.00000
     87      24.9791      0.00000
     88      25.3173      0.00000
     89      25.6014      0.00000
     90      26.2527      0.00000
     91      26.7772      0.00000
     92      26.8752      0.00000
     93      27.1992      0.00000
     94      27.4239      0.00000
     95      27.5731      0.00000
     96      27.6453      0.00000
     97      28.1259      0.00000
     98      28.3366      0.00000
     99      28.6510      0.00000
    100      28.8847      0.00000
    101      29.1266      0.00000
    102      29.2269      0.00000
    103      29.4220      0.00000
    104      29.6097      0.00000
    105      29.9315      0.00000
    106      30.1321      0.00000
    107      30.3552      0.00000
    108      30.5701      0.00000
    109      30.6339      0.00000
    110      30.7519      0.00000
    111      30.9468      0.00000
    112      31.1636      0.00000
    113      31.2214      0.00000
    114      31.3821      0.00000
    115      32.0306      0.00000
    116      32.1001      0.00000
    117      32.3694      0.00000
    118      32.6572      0.00000
    119      32.9002      0.00000
    120      33.0236      0.00000
    121      33.5253      0.00000
    122      33.7571      0.00000
    123      33.9392      0.00000
    124      34.2329      0.00000
    125      34.5345      0.00000
    126      34.8458      0.00000
    127      35.2335      0.00000
    128      35.3195      0.00000

 k-point    10 :       0.4000    0.4000    0.2000
  band No.  band energies     occupation 
      1     -23.5458      2.00000
      2     -23.5091      2.00000
      3     -23.5089      2.00000
      4     -23.4922      2.00000
      5     -22.5263      2.00000
      6     -22.5233      2.00000
      7     -22.5219      2.00000
      8     -22.5143      2.00000
      9      -8.4865      2.00000
     10      -8.4420      2.00000
     11      -8.4190      2.00000
     12      -8.4029      2.00000
     13      -7.6966      2.00000
     14      -7.6577      2.00000
     15      -7.5878      2.00000
     16      -7.4714      2.00000
     17      -6.9728      2.00000
     18      -6.9034      2.00000
     19      -6.8553      2.00000
     20      -6.7925      2.00000
     21      -6.7485      2.00000
     22      -6.7291      2.00000
     23      -6.7120      2.00000
     24      -6.6333      2.00000
     25      -3.5516      2.00000
     26      -3.5327      2.00000
     27      -3.5230      2.00000
     28      -3.4546      2.00000
     29      -3.4294      2.00000
     30      -3.4223      2.00000
     31      -3.4050      2.00000
     32      -3.3863      2.00000
     33       4.7467      0.00000
     34       4.7625      0.00000
     35       4.8952      0.00000
     36       4.9116      0.00000
     37       5.3934      0.00000
     38       5.5005      0.00000
     39       5.5340      0.00000
     40       5.6237      0.00000
     41       5.7918      0.00000
     42       6.6180      0.00000
     43       6.6336      0.00000
     44       7.1764      0.00000
     45       9.3079      0.00000
     46       9.6357      0.00000
     47       9.6866      0.00000
     48      10.1154      0.00000
     49      11.9745      0.00000
     50      12.0542      0.00000
     51      12.1627      0.00000
     52      12.2667      0.00000
     53      12.8987      0.00000
     54      13.1609      0.00000
     55      13.2960      0.00000
     56      13.9950      0.00000
     57      14.6836      0.00000
     58      14.9333      0.00000
     59      15.2606      0.00000
     60      15.5050      0.00000
     61      15.9665      0.00000
     62      16.5712      0.00000
     63      16.7611      0.00000
     64      17.4614      0.00000
     65      17.5058      0.00000
     66      17.7174      0.00000
     67      18.0329      0.00000
     68      18.1529      0.00000
     69      19.0077      0.00000
     70      19.3818      0.00000
     71      19.7603      0.00000
     72      19.8511      0.00000
     73      20.5391      0.00000
     74      20.8537      0.00000
     75      21.2622      0.00000
     76      21.5407      0.00000
     77      21.8237      0.00000
     78      22.0296      0.00000
     79      22.5535      0.00000
     80      22.6909      0.00000
     81      23.4694      0.00000
     82      23.7418      0.00000
     83      24.1766      0.00000
     84      24.3723      0.00000
     85      24.7612      0.00000
     86      25.0531      0.00000
     87      25.1831      0.00000
     88      25.5045      0.00000
     89      25.8586      0.00000
     90      26.2093      0.00000
     91      26.8696      0.00000
     92      26.9183      0.00000
     93      27.2555      0.00000
     94      27.3520      0.00000
     95      27.6255      0.00000
     96      27.8778      0.00000
     97      28.0736      0.00000
     98      28.4233      0.00000
     99      28.6473      0.00000
    100      28.8466      0.00000
    101      28.8995      0.00000
    102      29.1243      0.00000
    103      29.6186      0.00000
    104      30.0246      0.00000
    105      30.0551      0.00000
    106      30.3789      0.00000
    107      30.4656      0.00000
    108      30.6836      0.00000
    109      30.7534      0.00000
    110      31.0149      0.00000
    111      31.1181      0.00000
    112      31.2608      0.00000
    113      31.2920      0.00000
    114      31.5412      0.00000
    115      31.6717      0.00000
    116      31.8332      0.00000
    117      32.0817      0.00000
    118      32.4525      0.00000
    119      32.8517      0.00000
    120      32.9041      0.00000
    121      33.1211      0.00000
    122      33.3775      0.00000
    123      33.7924      0.00000
    124      33.7965      0.00000
    125      34.3812      0.00000
    126      34.6992      0.00000
    127      34.8210      0.00000
    128      35.1779      0.00000

 k-point    11 :       0.4000    0.4000    0.4000
  band No.  band energies     occupation 
      1     -23.5284      2.00000
      2     -23.5080      2.00000
      3     -23.5078      2.00000
      4     -23.5078      2.00000
      5     -22.5242      2.00000
      6     -22.5242      2.00000
      7     -22.5230      2.00000
      8     -22.5193      2.00000
      9      -8.4320      2.00000
     10      -8.3769      2.00000
     11      -8.3769      2.00000
     12      -8.3671      2.00000
     13      -7.8100      2.00000
     14      -7.8100      2.00000
     15      -7.7683      2.00000
     16      -7.6832      2.00000
     17      -6.7885      2.00000
     18      -6.7631      2.00000
     19      -6.7631      2.00000
     20      -6.7396      2.00000
     21      -6.7144      2.00000
     22      -6.7143      2.00000
     23      -6.6632      2.00000
     24      -6.6632      2.00000
     25      -3.5065      2.00000
     26      -3.5065      2.00000
     27      -3.5056      2.00000
     28      -3.4606      2.00000
     29      -3.4606      2.00000
     30      -3.4522      2.00000
     31      -3.4411      2.00000
     32      -3.4411      2.00000
     33       4.7719      0.00000
     34       4.7719      0.00000
     35       4.8639      0.00000
     36       4.8639      0.00000
     37       5.5686      0.00000
     38       5.6361      0.00000
     39       5.6361      0.00000
     40       5.6942      0.00000
     41       6.0792      0.00000
     42       6.6609      0.00000
     43       6.6767      0.00000
     44       6.6767      0.00000
     45       9.1416      0.00000
     46       9.1934      0.00000
     47       9.1934      0.00000
     48       9.5227      0.00000
     49      12.3871      0.00000
     50      12.4648      0.00000
     51      12.4648      0.00000
     52      12.5434      0.00000
     53      13.4687      0.00000
     54      13.4687      0.00000
     55      13.6966      0.00000
     56      14.3717      0.00000
     57      14.3717      0.00000
     58      14.5269      0.00000
     59      15.0697      0.00000
     60      15.0697      0.00000
     61      15.6838      0.00000
     62      16.0126      0.00000
     63      16.0126      0.00000
     64      16.5938      0.00000
     65      18.0130      0.00000
     66      18.0130      0.00000
     67      18.4962      0.00000
     68      18.4962      0.00000
     69      19.4075      0.00000
     70      19.8817      0.00000
     71      20.1223      0.00000
     72      20.1223      0.00000
     73      20.6505      0.00000
     74      20.6505      0.00000
     75      20.9456      0.00000
     76      21.1609      0.00000
     77      21.7145      0.00000
     78      21.7145      0.00000
     79      22.2495      0.00000
     80      22.2495      0.00000
     81      23.3910      0.00000
     82      23.9433      0.00000
     83      24.1545      0.00000
     84      24.1545      0.00000
     85      25.6029      0.00000
     86      25.6029      0.00000
     87      25.9719      0.00000
     88      26.0470      0.00000
     89      26.0470      0.00000
     90      26.1669      0.00000
     91      27.1175      0.00000
     92      27.1175      0.00000
     93      27.2693      0.00000
     94      27.3521      0.00000
     95      27.5265      0.00000
     96      27.5265      0.00000
     97      28.3051      0.00000
     98      28.3051      0.00000
     99      28.5075      0.00000
    100      28.8378      0.00000
    101      28.9555      0.00000
    102      29.0023      0.00000
    103      29.0023      0.00000
    104      29.7052      0.00000
    105      30.3275      0.00000
    106      30.3275      0.00000
    107      30.5969      0.00000
    108      30.7525      0.00000
    109      30.7525      0.00000
    110      30.9843      0.00000
    111      31.0894      0.00000
    112      31.0894      0.00000
    113      31.4524      0.00000
    114      32.0314      0.00000
    115      32.0314      0.00000
    116      32.0518      0.00000
    117      32.3172      0.00000
    118      32.3172      0.00000
    119      32.5559      0.00000
    120      32.5559      0.00000
    121      33.2341      0.00000
    122      33.2341      0.00000
    123      33.6171      0.00000
    124      33.6902      0.00000
    125      33.6902      0.00000
    126      33.8658      0.00000
    127      34.3070      0.00000
    128      34.3071      0.00000


--------------------------------------------------------------------------------------------------------


 soft charge-density along one line, spin component           1
         0         1         2         3         4         5         6         7         8         9
 total charge-density along one line

 pseudopotential strength for first ion, spin component:           1
 12.697  21.366  -0.000  -0.000  -0.000  -0.000  -0.000  -0.000
 21.366  35.952  -0.000  -0.000  -0.000  -0.000  -0.000  -0.000
 -0.000  -0.000  -3.163  -0.001  -0.001  -5.668  -0.002  -0.002
 -0.000  -0.000  -0.001  -3.163  -0.001  -0.002  -5.668  -0.002
 -0.000  -0.000  -0.001  -0.001  -3.163  -0.002  -0.002  -5.668
 -0.000  -0.000  -5.668  -0.002  -0.002 -10.137  -0.004  -0.004
 -0.000  -0.000  -0.002  -5.668  -0.002  -0.004 -10.137  -0.004
 -0.000  -0.000  -0.002  -0.002  -5.668  -0.004  -0.004 -10.137
 total augmentation occupancy for first ion, spin component:           1
 10.425  -4.143   0.000   0.000   0.000   0.000   0.000   0.000
 -4.143   1.785   0.000   0.000   0.000   0.000   0.000   0.000
  0.000   0.000   7.516   4.029   4.029  -2.724  -1.764  -1.764
  0.000   0.000   4.029   7.516   4.029  -1.764  -2.724  -1.764
  0.000   0.000   4.029   4.029   7.516  -1.764  -1.764  -2.724
  0.000   0.000  -2.724  -1.764  -1.764   1.030   0.766   0.766
  0.000   0.000  -1.764  -2.724  -1.764   0.766   1.030   0.766
  0.000   0.000  -1.764  -1.764  -2.724   0.766   0.766   1.030


------------------------ aborting loop because EDIFF is reached ----------------------------------------


    FORLOC:  cpu time      0.0048: real time      0.0048
    FORNL :  cpu time      0.1181: real time      0.1183
    FORCOR:  cpu time      0.0163: real time      0.0163
    OFIELD:  cpu time      0.0007: real time      0.0007

 ---------------------------------------------------------------------------------------------

         DFTD3 V3.0 Rev 1        
 IVDW         = 11
 DF pbe       
 parameters
 VDW_S6       =    1.0000
 VDW_S8       =    0.7220
 VDW_SR       =    1.2170
 rs18     =    1.0000
 alpha6   =   14.0000
 alpha8   =   16.0000
 k1-k3    =   16.0000    1.3333   -4.0000
 VDW_RADIUS   =   50.2022 A
 VDW_CNRADIUS =   21.1671 A
 Edisp (eV)   -0.77907

 E6    (eV) :    -0.4578
 E8    (eV) :    -0.3212
 % E8        : 41.23
    FORVDW:  cpu time      0.1266: real time      0.1283

 VOLUME and BASIS-vectors are now :
 -----------------------------------------------------------------------------
  energy-cutoff  :     1000.00
  volume of cell :      177.88
      direct lattice vectors                 reciprocal lattice vectors
     5.624000000  0.000000000  0.000000000     0.177809388  0.000000000  0.000000000
     0.000000000  5.624000000  0.000000000     0.000000000  0.177809388  0.000000000
     0.000000000  0.000000000  5.624000000     0.000000000  0.000000000  0.177809388

  length of vectors
     5.624000000  5.624000000  5.624000000     0.177809388  0.177809388  0.177809388


 FORCES acting on ions:
    Electron-Ion                     Ewald-Force                    Non-Local-Force
 -----------------------------------------------------------------------------------------------
   -.152E-04 -.577E-05 0.238E-04   -.396E-04 -.449E-04 -.460E-04   -.456E-21 -.196E-21 0.219E-21
   0.751E-05 0.318E-04 0.362E-04   -.655E-05 -.202E-04 0.511E-05   0.111E-21 0.438E-22 -.203E-22
   0.152E-04 0.450E-04 0.281E-04   -.152E-04 0.645E-05 -.691E-05   -.270E-21 0.877E-22 -.267E-21
   0.259E-04 0.104E-04 0.127E-04   0.118E-04 -.979E-05 -.197E-04   -.388E-22 -.261E-21 -.186E-21
   -.107E+03 -.107E+03 -.107E+03   0.141E+03 0.141E+03 0.141E+03   -.350E+02 -.350E+02 -.350E+02
   0.107E+03 0.107E+03 0.107E+03   -.141E+03 -.141E+03 -.141E+03   0.350E+02 0.350E+02 0.350E+02
   0.107E+03 0.107E+03 -.107E+03   -.141E+03 -.141E+03 0.141E+03   0.350E+02 0.350E+02 -.350E+02
   -.107E+03 -.107E+03 0.107E+03   0.141E+03 0.141E+03 -.141E+03   -.350E+02 -.350E+02 0.350E+02
   0.107E+03 -.107E+03 0.107E+03   -.141E+03 0.141E+03 -.141E+03   0.350E+02 -.350E+02 0.350E+02
   -.107E+03 0.107E+03 -.107E+03   0.141E+03 -.141E+03 0.141E+03   -.350E+02 0.350E+02 -.350E+02
   -.107E+03 0.107E+03 0.107E+03   0.141E+03 -.141E+03 -.141E+03   -.350E+02 0.350E+02 0.350E+02
   0.107E+03 -.107E+03 -.107E+03   -.141E+03 0.141E+03 0.141E+03   0.350E+02 -.350E+02 -.350E+02
 -----------------------------------------------------------------------------------------------
   0.352E-03 0.541E-03 0.726E-03   0.284E-13 0.853E-13 -.568E-13   0.213E-13 0.142E-13 0.711E-14


 POSITION                                       TOTAL-FORCE (eV/Angst)
 -----------------------------------------------------------------------------------
      0.33737      0.33737      0.33737         0.000000      0.000000      0.000000
      3.14937      0.33737      3.14937         0.000000      0.000000     -0.000000
      0.33737      3.14937      3.14937         0.000000      0.000000     -0.000000
      3.14937      3.14937      0.33737         0.000000      0.000000      0.000000
      1.01211      1.01211      1.01211        -0.024978     -0.024978     -0.024978
      5.28663      5.28663      5.28663         0.024978      0.024978      0.024978
      2.47463      5.28663      3.82411         0.024978      0.024978     -0.024978
      3.82411      1.01211      2.47463        -0.024978     -0.024978      0.024978
      5.28663      3.82411      2.47463         0.024978     -0.024978      0.024978
      1.01211      2.47463      3.82411        -0.024978      0.024978     -0.024978
      3.82411      2.47463      5.28663        -0.024978      0.024978      0.024978
      2.47463      3.82411      1.01211         0.024978     -0.024978     -0.024978
 -----------------------------------------------------------------------------------
    total drift:                                0.000352      0.000541      0.000726


--------------------------------------------------------------------------------------------------------



  FREE ENERGIE OF THE ION-ELECTRON SYSTEM (eV)
  ---------------------------------------------------
  free  energy   TOTEN  =       -93.96831523 eV

  energy  without entropy=      -93.96831523  energy(sigma->0) =      -93.96831523



--------------------------------------------------------------------------------------------------------


    POTLOK:  cpu time      0.0520: real time      0.0520


--------------------------------------------------------------------------------------------------------


 stress matrix after NEB project (eV)
     -0.90501     -0.00000      0.00000
     -0.00000     -0.90501     -0.00000
      0.00000     -0.00000     -0.90501
  FORCES: max atom, RMS     0.043262    0.035324
  FORCE total and by dimension    0.122365    0.024978
  Stress total and by dimension    1.567519    0.905008
     LOOP+:  cpu time     86.9084: real time     87.2159
    4ORBIT:  cpu time      0.0000: real time      0.0000

 total amount of memory used by VASP MPI-rank0    52849. kBytes
=======================================================================

   base      :      30000. kBytes
   nonl-proj :      10444. kBytes
   fftplans  :       3710. kBytes
   grid      :       5164. kBytes
   one-center:         18. kBytes
   wavefun   :       3513. kBytes

  
  
 General timing and accounting informations for this job:
 ========================================================
  
                  Total CPU time used (sec):      107.344
                            User time (sec):      105.180
                          System time (sec):        2.164
                         Elapsed time (sec):      111.463
  
                   Maximum memory used (kb):      235584.
                   Average memory used (kb):          N/A
  
                          Minor page faults:        64172
                          Major page faults:         1196
                 Voluntary context switches:         5746
