 vasp.6.4.1 05Apr23 (build Jun  6 2023 14:36:51) complex                         
 executed on        HPECrayEX_GCC date 2024.08.20  14:13:19
 running  256 mpi-ranks, with    1 threads/rank, on    2 nodes
 distrk:  each k-point on  128 cores,    2 groups
 distr:  one band on NCORE=  32 cores,    4 groups


--------------------------------------------------------------------------------------------------------


 INCAR:
   ALGO = Conjugate
   KPAR = 2
   NCORE = 32
   ISMEAR = 0
   SIGMA = 0.01
   PREC = Accurate
   EDIFF = 1E-7
   ENCUT = 1000
   ISIF = 0
   GGA = BO
   PARAM1 = 0.1833333333
   PARAM2 = 0.2200000000
   LUSE_VDW = .TRUE.
   AGGAC = 0.0000
   LASPH = .TRUE.
   SYMPREC = 1E-7
   LWAVE = .FALSE.
   LCHARGE = .FALSE.

 POTCAR:    PAW_PBE C_h 06Feb2004                 
 POTCAR:    PAW_PBE O_h 06Feb2004                 
 -----------------------------------------------------------------------------
|                                                                             |
|               ----> ADVICE to this user running VASP <----                  |
|                                                                             |
|     You have switched on vdW-DFT.                                           |
|     This routine was written and supplied by Jiri Klimes. We recommend      |
|     that you carefully read and cite the following publications:            |
|       J. Klimes, D.R. Bowler, A. Michelides                                 |
|          J. Phys.: Cond Matt. 22 022201 (2010)                              |
|       J. Klimes, D.R. Bowler, A. Michelides                                 |
|          Phys. Rev. B. 83, 195131 (2011)                                    |
|     and references therein.                                                 |
|                                                                             |
 -----------------------------------------------------------------------------

 POTCAR:    PAW_PBE C_h 06Feb2004                 
   VRHFIN =C: s2p2                                                                                  
   LEXCH  = PE                                                                                      
   EATOM  =   147.1560 eV,   10.8157 Ry                                                             
                                                                                                    
   TITEL  = PAW_PBE C_h 06Feb2004                                                                   
   LULTRA =        F    use ultrasoft PP ?                                                          
   IUNSCR =        1    unscreen: 0-lin 1-nonlin 2-no                                               
   RPACOR =    0.800    partial core radius                                                         
   POMASS =   12.011; ZVAL   =    4.000    mass and valenz                                          
   RCORE  =    1.100    outmost cutoff radius                                                       
   RWIGS  =    1.630; RWIGS  =    0.863    wigner-seitz radius (au A)                               
   ENMAX  =  700.000; ENMIN  =  500.000 eV                                                          
   ICORE  =        2    local potential                                                             
   LCOR   =        T    correct aug charges                                                         
   LPAW   =        T    paw PP                                                                      
   EAUG   =  946.768                                                                                
   DEXC   =    0.000                                                                                
   RMAX   =    1.128    core radius for proj-oper                                                   
   RAUG   =    1.300    factor for augmentation sphere                                              
   RDEP   =    1.162    radius for radial grids                                                     
   RDEPT  =    1.088    core radius for aug-charge                                                  
                                                                                                    
   Atomic configuration                                                                             
    4 entries                                                                                       
     n  l   j            E        occ.                                                              
     1  0  0.50      -273.3789   2.0000                                                             
     2  0  0.50       -13.7508   2.0000                                                             
     2  1  0.50        -5.2854   2.0000                                                             
     3  2  1.50        -5.4423   0.0000                                                             
   Description                                                                                      
     l       E           TYP  RCUT    TYP  RCUT                                                     
     0    -13.7508458     23  1.100                                                                 
     0     -8.2022199     23  1.100                                                                 
     1     -5.2854383     23  1.100                                                                 
     1      1.1560700     23  1.100                                                                 
     2     -5.4423304      7  1.100                                                                 
  local pseudopotential read in
  partial core-charges read in
  partial kinetic energy density read in
  atomic valenz-charges read in
  non local Contribution for L=           0  read in
    real space projection operators read in
  non local Contribution for L=           0  read in
    real space projection operators read in
  non local Contribution for L=           1  read in
    real space projection operators read in
  non local Contribution for L=           1  read in
    real space projection operators read in
    PAW grid and wavefunctions read in

   number of l-projection  operators is LMAX  =           4
   number of lm-projection operators is LMMAX =           8

 POTCAR:    PAW_PBE O_h 06Feb2004                 
   VRHFIN =O: s2p4                                                                                  
   LEXCH  = PE                                                                                      
   EATOM  =   432.3788 eV,   31.7789 Ry                                                             
                                                                                                    
   TITEL  = PAW_PBE O_h 06Feb2004                                                                   
   LULTRA =        F    use ultrasoft PP ?                                                          
   IUNSCR =        1    unscreen: 0-lin 1-nonlin 2-no                                               
   RPACOR =    0.800    partial core radius                                                         
   POMASS =   16.000; ZVAL   =    6.000    mass and valenz                                          
   RCORE  =    1.100    outmost cutoff radius                                                       
   RWIGS  =    1.400; RWIGS  =    0.741    wigner-seitz radius (au A)                               
   ENMAX  =  700.000; ENMIN  =  500.000 eV                                                          
   ICORE  =        2    local potential                                                             
   LCOR   =        T    correct aug charges                                                         
   LPAW   =        T    paw PP                                                                      
   EAUG   =  888.804                                                                                
   DEXC   =    0.000                                                                                
   RMAX   =    1.128    core radius for proj-oper                                                   
   RAUG   =    1.300    factor for augmentation sphere                                              
   RDEP   =    1.125    radius for radial grids                                                     
   RDEPT  =    1.088    core radius for aug-charge                                                  
                                                                                                    
   Atomic configuration                                                                             
    4 entries                                                                                       
     n  l   j            E        occ.                                                              
     1  0  0.50      -514.6923   2.0000                                                             
     2  0  0.50       -23.9615   2.0000                                                             
     2  1  0.50        -9.0305   4.0000                                                             
     3  2  1.50        -9.5241   0.0000                                                             
   Description                                                                                      
     l       E           TYP  RCUT    TYP  RCUT                                                     
     0    -23.9615319     23  1.100                                                                 
     0    -25.3221145     23  1.100                                                                 
     1     -9.0304911     23  1.100                                                                 
     1     -5.4802209     23  1.100                                                                 
     2     -9.5240782      7  1.100                                                                 
  local pseudopotential read in
  partial core-charges read in
  partial kinetic energy density read in
  atomic valenz-charges read in
  non local Contribution for L=           0  read in
    real space projection operators read in
  non local Contribution for L=           0  read in
    real space projection operators read in
  non local Contribution for L=           1  read in
    real space projection operators read in
  non local Contribution for L=           1  read in
    real space projection operators read in
    PAW grid and wavefunctions read in

   number of l-projection  operators is LMAX  =           4
   number of lm-projection operators is LMMAX =           8

 -----------------------------------------------------------------------------
|                                                                             |
|               ----> ADVICE to this user running VASP <----                  |
|                                                                             |
|     You enforced a specific xc type in the INCAR file but a different       |
|     type was found in the POTCAR file.                                      |
|     I HOPE YOU KNOW WHAT YOU ARE DOING!                                     |
|                                                                             |
 -----------------------------------------------------------------------------

  PAW_PBE C_h 06Feb2004                 :
 energy of atom  1       EATOM= -147.1560
 kinetic energy error for atom=    0.0031 (will be added to EATOM!!)
  PAW_PBE O_h 06Feb2004                 :
 energy of atom  2       EATOM= -432.3788
 kinetic energy error for atom=    0.0171 (will be added to EATOM!!)


 POSCAR:  C  O
  positions in cartesian coordinates
  No initial velocities read in
 exchange correlation table for  LEXCH =       42
   RHO(1)=    0.500       N(1)  =     2000
   RHO(2)=  100.500       N(2)  =     4000

 VTST: version 4.1, (05/19/21)

 CHAIN: initializing optimizer
 
 OPT: Using VASP Dynamics algorithm
 CHAIN: Read ICHAIN            0

 POSCAR:  C  O
  positions in cartesian coordinates
  No initial velocities read in



--------------------------------------------------------------------------------------------------------


 ion  position               nearest neighbor table
   1  0.060  0.060  0.060-   5 1.17   6 1.17
   2  0.560  0.060  0.560-   8 1.17   7 1.17
   3  0.060  0.560  0.560-  10 1.17   9 1.17
   4  0.560  0.560  0.060-  12 1.17  11 1.17
   5  0.180  0.180  0.180-   1 1.17
   6  0.940  0.940  0.940-   1 1.17
   7  0.440  0.940  0.680-   2 1.17
   8  0.680  0.180  0.440-   2 1.17
   9  0.940  0.680  0.440-   3 1.17
  10  0.180  0.440  0.680-   3 1.17
  11  0.680  0.440  0.940-   4 1.17
  12  0.440  0.680  0.180-   4 1.17

  LATTYP: Found a simple cubic cell.
 ALAT       =     5.6240000000
  
  Lattice vectors:
  
 A1 = (   5.6240000000,   0.0000000000,   0.0000000000)
 A2 = (   0.0000000000,   5.6240000000,   0.0000000000)
 A3 = (   0.0000000000,   0.0000000000,   5.6240000000)


Analysis of symmetry for initial positions (statically):
=====================================================================
 Subroutine PRICEL returns:
 Original cell was already a primitive cell.
 

 Routine SETGRP: Setting up the symmetry group for a 
 simple cubic supercell.


 Subroutine GETGRP returns: Found 24 space group operations
 (whereof  3 operations were pure point group operations)
 out of a pool of 48 trial point group operations.


The static configuration has the point symmetry C_3 .
 The point group associated with its full space group is T_h .


Analysis of symmetry for dynamics (positions and initial velocities):
=====================================================================
 Subroutine PRICEL returns:
 Original cell was already a primitive cell.
 

 Routine SETGRP: Setting up the symmetry group for a 
 simple cubic supercell.


 Subroutine GETGRP returns: Found 24 space group operations
 (whereof  3 operations were pure point group operations)
 out of a pool of 48 trial point group operations.


The dynamic configuration has the point symmetry C_3 .
 The point group associated with its full space group is T_h .


 Subroutine INISYM returns: Found 24 space group operations
 (whereof  3 operations are pure point group operations),
 and found     1 'primitive' translations


----------------------------------------------------------------------------------------

                                     Primitive cell                                     

  volume of cell :     177.8836

  direct lattice vectors                    reciprocal lattice vectors
     5.624000000  0.000000000  0.000000000     0.177809388  0.000000000  0.000000000
     0.000000000  5.624000000  0.000000000     0.000000000  0.177809388  0.000000000
     0.000000000  0.000000000  5.624000000     0.000000000  0.000000000  0.177809388

  length of vectors
     5.624000000  5.624000000  5.624000000     0.177809388  0.177809388  0.177809388

  position of ions in fractional coordinates (direct lattice)
     0.059987786  0.059987776  0.059987775
     0.559987778  0.059987768  0.559987763
     0.059987778  0.559987765  0.559987768
     0.559987773  0.559987770  0.059987770
     0.179963330  0.179963313  0.179963318
     0.940012222  0.940012223  0.940012218
     0.440012229  0.940012232  0.679963321
     0.679963320  0.179963309  0.440012217
     0.940012202  0.679963342  0.440012187
     0.179963354  0.440012195  0.679963346
     0.679963307  0.440012225  0.940012230
     0.440012246  0.679963308  0.179963311

  ion indices of the primitive-cell ions
   primitive index   ion index
                 1           1
                 2           2
                 3           3
                 4           4
                 5           5
                 6           6
                 7           7
                 8           8
                 9           9
                10          10
                11          11
                12          12

----------------------------------------------------------------------------------------



 KPOINTS: auto                                    

Automatic generation of k-mesh.
 Grid dimensions read from file:
 generate k-points for:    5    5    5

 Generating k-lattice:

  Cartesian coordinates                     Fractional coordinates (reciprocal lattice)
     0.035561878  0.000000000  0.000000000     0.200000000  0.000000000  0.000000000
     0.000000000  0.035561878  0.000000000     0.000000000  0.200000000  0.000000000
     0.000000000  0.000000000  0.035561878     0.000000000  0.000000000  0.200000000

  Length of vectors
     0.035561878  0.035561878  0.035561878

  Shift w.r.t. Gamma in fractional coordinates (k-lattice)
     0.000000000  0.000000000  0.000000000

 
 Subroutine IBZKPT returns following result:
 ===========================================
 
 Found     11 irreducible k-points:
 
 Following reciprocal coordinates:
            Coordinates               Weight
  0.000000  0.000000  0.000000      1.000000
  0.200000  0.000000  0.000000      6.000000
  0.400000  0.000000  0.000000      6.000000
  0.200000  0.200000  0.000000     12.000000
  0.400000  0.200000  0.000000     12.000000
 -0.200000  0.400000  0.000000     12.000000
  0.400000  0.400000  0.000000     12.000000
  0.200000  0.200000  0.200000      8.000000
  0.400000  0.200000  0.200000     24.000000
  0.400000  0.400000  0.200000     24.000000
  0.400000  0.400000  0.400000      8.000000
 
 Following cartesian coordinates:
            Coordinates               Weight
  0.000000  0.000000  0.000000      1.000000
  0.035562  0.000000  0.000000      6.000000
  0.071124  0.000000  0.000000      6.000000
  0.035562  0.035562  0.000000     12.000000
  0.071124  0.035562  0.000000     12.000000
 -0.035562  0.071124  0.000000     12.000000
  0.071124  0.071124  0.000000     12.000000
  0.035562  0.035562  0.035562      8.000000
  0.071124  0.035562  0.035562     24.000000
  0.071124  0.071124  0.035562     24.000000
  0.071124  0.071124  0.071124      8.000000
 


--------------------------------------------------------------------------------------------------------




 Dimension of arrays:
   k-points           NKPTS =     11   k-points in BZ     NKDIM =     11   number of bands    NBANDS=     40
   number of dos      NEDOS =    301   number of ions     NIONS =     12
   non local maximal  LDIM  =      4   non local SUM 2l+1 LMDIM =      8
   total plane-waves  NPLWV = 216000
   max r-space proj   IRMAX =      1   max aug-charges    IRDMAX=   9054
   dimension x,y,z NGX =    60 NGY =   60 NGZ =   60
   dimension x,y,z NGXF=   120 NGYF=  120 NGZF=  120
   support grid    NGXF=   120 NGYF=  120 NGZF=  120
   ions per type =               4   8
   NGX,Y,Z   is equivalent  to a cutoff of  17.74, 17.74, 17.74 a.u.
   NGXF,Y,Z  is equivalent  to a cutoff of  35.47, 35.47, 35.47 a.u.

 SYSTEM =  unknown system                          
 POSCAR =   C  O                                   

 Startparameter for this run:
   NWRITE =      2    write-flag & timer
   PREC   = accura    normal or accurate (medium, high low for compatibility)
   ISTART =      0    job   : 0-new  1-cont  2-samecut
   ICHARG =      2    charge: 1-file 2-atom 10-const
   ISPIN  =      1    spin polarized calculation?
   LNONCOLLINEAR =      F non collinear calculations
   LSORBIT =      F    spin-orbit coupling
   INIWAV =      1    electr: 0-lowe 1-rand  2-diag
   LASPH  =      T    aspherical Exc in radial PAW
 Electronic Relaxation 1
   ENCUT  = 1000.0 eV  73.50 Ry    8.57 a.u.  14.50 14.50 14.50*2*pi/ulx,y,z
   ENINI  = 1000.0     initial cutoff
   ENAUG  =  946.8 eV  augmentation charge cutoff
   NELM   =     60;   NELMIN=  2; NELMDL= -5     # of ELM steps 
   EDIFF  = 0.1E-06   stopping-criterion for ELM
   LREAL  =      F    real-space projection
   NLSPLINE    = F    spline interpolate recip. space projectors
   LCOMPAT=      F    compatible to vasp.4.4
   GGA_COMPAT  = T    GGA compatible to vasp.4.4-vasp.4.6
   LMAXPAW     = -100 max onsite density
   LMAXMIX     =    2 max onsite mixed and CHGCAR
   VOSKOWN=      0    Vosko Wilk Nusair interpolation
   ROPT   =    0.00000   0.00000
 Ionic relaxation
   EDIFFG = 0.1E-05   stopping-criterion for IOM
   NSW    =      0    number of steps for IOM
   NBLOCK =      1;   KBLOCK =      1    inner block; outer block 
   IBRION =     -1    ionic relax: 0-MD 1-quasi-New 2-CG
   NFREE  =      0    steps in history (QN), initial steepest desc. (CG)
   ISIF   =      0    stress and relaxation
   IWAVPR =     10    prediction:  0-non 1-charg 2-wave 3-comb
   ISYM   =      2    0-nonsym 1-usesym 2-fastsym
   LCORR  =      T    Harris-Foulkes like correction to forces

   POTIM  = 0.5000    time-step for ionic-motion
   TEIN   =    0.0    initial temperature
   TEBEG  =    0.0;   TEEND  =   0.0 temperature during run
   SMASS  =  -3.00    Nose mass-parameter (am)
   estimated Nose-frequenzy (Omega)   =  0.10E-29 period in steps = 0.13E+47 mass=  -0.723E-27a.u.
   SCALEE = 1.0000    scale energy and forces
   NPACO  =    256;   APACO  = 10.0  distance and # of slots for P.C.
   PSTRESS=    0.0 pullay stress

  Mass of Ions in am
   POMASS =  12.01 16.00
  Ionic Valenz
   ZVAL   =   4.00  6.00
  Atomic Wigner-Seitz radii
   RWIGS  =  -1.00 -1.00
  virtual crystal weights 
   VCA    =   1.00  1.00
   NELECT =      64.0000    total number of electrons
   NUPDOWN=      -1.0000    fix difference up-down

 DOS related values:
   EMIN   =  10.00;   EMAX   =-10.00  energy-range for DOS
   EFERMI =   0.00;   METHOD = LEGACY      
   ISMEAR =     0;   SIGMA  =   0.01  broadening in eV -4-tet -1-fermi 0-gaus

 Electronic relaxation 2 (details)
   IALGO  =     58    algorithm
   LDIAG  =      T    sub-space diagonalisation (order eigenvalues)
   LSUBROT=      F    optimize rotation matrix (better conditioning)
   TURBO    =      0    0=normal 1=particle mesh
   IRESTART =      0    0=no restart 2=restart with 2 vectors
   NREBOOT  =      0    no. of reboots
   NMIN     =      0    reboot dimension
   EREF     =   0.00    reference energy to select bands
   IMIX   =      4    mixing-type and parameters
     AMIX     =   0.40;   BMIX     =  1.00
     AMIX_MAG =   1.60;   BMIX_MAG =  1.00
     AMIN     =   0.10
     WC   =   100.;   INIMIX=   1;  MIXPRE=   1;  MAXMIX= -45

 Intra band minimization:
   WEIMIN = 0.0000     energy-eigenvalue tresh-hold
   EBREAK =  0.63E-09  absolut break condition
   DEPER  =   0.30     relativ break condition  

   TIME   =   0.40     timestep for ELM

  volume/ion in A,a.u.               =      14.82       100.03
  Fermi-wavevector in a.u.,A,eV,Ry     =   1.164366  2.200333 18.446073  1.355748
  Thomas-Fermi vector in A             =   2.300905

 Write flags
   LWAVE        =      F    write WAVECAR
   LDOWNSAMPLE  =      F    k-point downsampling of WAVECAR
   LCHARG       =      T    write CHGCAR
   LVTOT        =      F    write LOCPOT, total local potential
   LVHAR        =      F    write LOCPOT, Hartree potential only
   LELF         =      F    write electronic localiz. function (ELF)
   LORBIT       =      0    0 simple, 1 ext, 2 COOP (PROOUT), +10 PAW based schemes


 Dipole corrections
   LMONO  =      F    monopole corrections only (constant potential shift)
   LDIPOL =      F    correct potential (dipole corrections)
   IDIPOL =      0    1-x, 2-y, 3-z, 4-all directions 
   EPSILON=  1.0000000 bulk dielectric constant

 Exchange correlation treatment:
   GGA     =    BO    GGA type
   LEXCH   =    42    internal setting for exchange type
   LIBXC   =     F    Libxc                    
   VOSKOWN =     0    Vosko Wilk Nusair interpolation
   LHFCALC =     F    Hartree Fock is set to
   LHFONE  =     F    Hartree Fock one center treatment
   AEXX    =    0.0000 exact exchange contribution

 vdW DFT:
   LUSE_VDW   =     T    switch on vdW DFT
   IVDW_NL    =     1    kernel type
   LSPIN_VDW  =     F    use spin-polarized vdW DFT
   Zab_VDW    =-.8491    correlation parameter
   PARAM1     =0.1833
   PARAM2     =0.2200
   PARAM3     =0.0000
   -- rVV10 --
   BPARAM     = 6.3000
   CPARAM     = 0.0093

 Linear response parameters
   LEPSILON=     F    determine dielectric tensor
   LRPA    =     F    only Hartree local field effects (RPA)
   LNABLA  =     F    use nabla operator in PAW spheres
   LVEL    =     F    velocity operator in full k-point grid
   CSHIFT  =0.1000    complex shift for real part using Kramers Kronig
   OMEGAMAX=  -1.0    maximum frequency
   DEG_THRESHOLD= 0.2000000E-02 threshold for treating states as degnerate
   RTIME   =   -0.100 relaxation time in fs
  (WPLASMAI=    0.000 imaginary part of plasma frequency in eV, 0.658/RTIME)
   DFIELD  = 0.0000000 0.0000000 0.0000000 field for delta impulse in time

  Optional k-point grid parameters
   LKPOINTS_OPT  =     F    use optional k-point grid
   KPOINTS_OPT_MODE=     1    mode for optional k-point grid

 Orbital magnetization related:
   ORBITALMAG=     F  switch on orbital magnetization
   LCHIMAG   =     F  perturbation theory with respect to B field
   DQ        =  0.001000  dq finite difference perturbation B field
   LLRAUG    =     F  two centre corrections for induced B field
   LBONE     =     F  B-component reconstruction in AE one-centre
   LVGVCALC  =     T  calculate vGv susceptibility
   LVGVAPPL  =     F  apply vGv susceptibility instead of pGv for G=0

 Random number generation:
   RANDOM_GENERATOR = DEFAULT
   PCG_SEED         = not used


--------------------------------------------------------------------------------------------------------


 Static calculation
 charge density and potential will be updated during run
 non-spin polarized calculation
 Conjugate gradient for all bands (Freysoldt, et al. PRB 79, 241103 (2009))
 preconditioned conjugated gradient                                        
 perform sub-space diagonalisation
    before iterative eigenvector-optimisation
 modified Broyden-mixing scheme, WC =      100.0
 initial mixing is a Kerker type mixing with AMIX =  0.4000 and BMIX =      1.0000
 Hartree-type preconditioning will be used
 using additional bands            8
 reciprocal scheme for non local part
 use partial core corrections
 no Harris-corrections to forces 
 use gradient corrections 
 use of overlap-Matrix (Vanderbilt PP)
 Gauss-broadening in eV      SIGMA  =   0.01


--------------------------------------------------------------------------------------------------------


  energy-cutoff  :     1000.00
  volume of cell :      177.88
      direct lattice vectors                 reciprocal lattice vectors
     5.624000000  0.000000000  0.000000000     0.177809388  0.000000000  0.000000000
     0.000000000  5.624000000  0.000000000     0.000000000  0.177809388  0.000000000
     0.000000000  0.000000000  5.624000000     0.000000000  0.000000000  0.177809388

  length of vectors
     5.624000000  5.624000000  5.624000000     0.177809388  0.177809388  0.177809388



 k-points in units of 2pi/SCALE and weight: auto                                    
   0.00000000  0.00000000  0.00000000       0.008
   0.03556188  0.00000000  0.00000000       0.048
   0.07112376  0.00000000  0.00000000       0.048
   0.03556188  0.03556188  0.00000000       0.096
   0.07112376  0.03556188  0.00000000       0.096
  -0.03556188  0.07112376  0.00000000       0.096
   0.07112376  0.07112376  0.00000000       0.096
   0.03556188  0.03556188  0.03556188       0.064
   0.07112376  0.03556188  0.03556188       0.192
   0.07112376  0.07112376  0.03556188       0.192
   0.07112376  0.07112376  0.07112376       0.064

 k-points in reciprocal lattice and weights: auto                                    
   0.00000000  0.00000000  0.00000000       0.008
   0.20000000  0.00000000  0.00000000       0.048
   0.40000000  0.00000000  0.00000000       0.048
   0.20000000  0.20000000  0.00000000       0.096
   0.40000000  0.20000000  0.00000000       0.096
  -0.20000000  0.40000000  0.00000000       0.096
   0.40000000  0.40000000  0.00000000       0.096
   0.20000000  0.20000000  0.20000000       0.064
   0.40000000  0.20000000  0.20000000       0.192
   0.40000000  0.40000000  0.20000000       0.192
   0.40000000  0.40000000  0.40000000       0.064

 position of ions in fractional coordinates (direct lattice) 
   0.05998779  0.05998778  0.05998778
   0.55998778  0.05998777  0.55998776
   0.05998778  0.55998777  0.55998777
   0.55998777  0.55998777  0.05998777
   0.17996333  0.17996331  0.17996332
   0.94001222  0.94001222  0.94001222
   0.44001223  0.94001223  0.67996332
   0.67996332  0.17996331  0.44001222
   0.94001220  0.67996334  0.44001219
   0.17996335  0.44001220  0.67996335
   0.67996331  0.44001223  0.94001223
   0.44001225  0.67996331  0.17996331

 position of ions in cartesian coordinates  (Angst):
   0.33737131  0.33737125  0.33737125
   3.14937126  0.33737121  3.14937118
   0.33737126  3.14937119  3.14937121
   3.14937123  3.14937122  0.33737122
   1.01211377  1.01211367  1.01211370
   5.28662874  5.28662874  5.28662871
   2.47462878  5.28662879  3.82411372
   3.82411371  1.01211365  2.47462871
   5.28662862  3.82411384  2.47462854
   1.01211391  2.47462859  3.82411386
   3.82411364  2.47462875  5.28662878
   2.47462887  3.82411364  1.01211366



--------------------------------------------------------------------------------------------------------


 k-point   1 :   0.0000 0.0000 0.0000  plane waves:   12893
 k-point   2 :   0.2000 0.0000 0.0000  plane waves:   12817
 k-point   3 :   0.4000 0.0000 0.0000  plane waves:   12773
 k-point   4 :   0.2000 0.2000 0.0000  plane waves:   12779
 k-point   5 :   0.4000 0.2000 0.0000  plane waves:   12768
 k-point   6 :  -0.2000 0.4000 0.0000  plane waves:   12768
 k-point   7 :   0.4000 0.4000 0.0000  plane waves:   12758
 k-point   8 :   0.2000 0.2000 0.2000  plane waves:   12782
 k-point   9 :   0.4000 0.2000 0.2000  plane waves:   12778
 k-point  10 :   0.4000 0.4000 0.2000  plane waves:   12779
 k-point  11 :   0.4000 0.4000 0.4000  plane waves:   12769

 maximum and minimum number of plane-waves per node :       416      382

 maximum number of plane-waves:     12893
 maximum index in each direction: 
   IXMAX=   14   IYMAX=   14   IZMAX=   14
   IXMIN=  -14   IYMIN=  -14   IZMIN=  -14


 parallel 3D FFT for wavefunctions:
    minimum data exchange during FFTs selected (reduces bandwidth)
 parallel 3D FFT for charge:
    minimum data exchange during FFTs selected (reduces bandwidth)


 total amount of memory used by VASP MPI-rank0    34643. kBytes
=======================================================================

   base      :      30000. kBytes
   nonl-proj :        640. kBytes
   fftplans  :        741. kBytes
   grid      :       1105. kBytes
   one-center:          3. kBytes
   wavefun   :       2154. kBytes

     INWAV:  cpu time      0.0016: real time      0.0018
 Broyden mixing: mesh for mixing (old mesh)
   NGX = 29   NGY = 29   NGZ = 29
  (NGX  =120   NGY  =120   NGZ  =120)
  gives a total of  24389 points

 initial charge density was supplied:
 charge density of overlapping atoms calculated
 number of electron      64.0000000 magnetization 
 keeping initial charge density in first step


--------------------------------------------------------------------------------------------------------


 Maximum index for augmentation-charges          345 (set IRDMAX)


--------------------------------------------------------------------------------------------------------


 First call to EWALD:  gamma=   0.315
 Maximum number of real-space cells 3x 3x 3
 Maximum number of reciprocal cells 3x 3x 3

    FEWALD:  cpu time      0.0014: real time      0.0014


--------------------------------------- Ionic step        1  -------------------------------------------




--------------------------------------- Iteration      1(   1)  ---------------------------------------


vdW kernel read from vdw_kernel.bindat
  0.0000  0.2424  0.5071  0.7962  1.1119  1.4567  1.8333  2.2446  2.6937  3.1842
  3.7199  4.3049  4.9438  5.6415  6.4036  7.2358  8.1446  9.1372 10.2212 11.4050
 12.6979 14.1099 15.6519 17.3360 19.1751 21.1837 23.3773 25.7729 28.3892 31.2465
 34.3669 37.7748 41.4965 45.5611 50.0000

    POTLOK:  cpu time      1.2293: real time      1.2327
    SETDIJ:  cpu time      0.0708: real time      0.0709
    TRIAL :  cpu time      0.2077: real time      0.2091
    CORREC:  cpu time      0.0026: real time      0.0026
    --------------------------------------------
      LOOP:  cpu time      1.5143: real time      1.5191

 eigenvalue-minimisations  :   880
 total energy-change (2. order) : 0.7491300E+03  (-0.4890305E+04)
 number of electron      64.0000000 magnetization 
 augmentation part       64.0000000 magnetization 

 Free energy of the ion-electron system (eV)
  ---------------------------------------------------
  alpha Z        PSCENC =        64.50308324
  Ewald energy   TEWEN  =     -2171.10254707
  -Hartree energ DENC   =     -1496.95817215
  -exchange      EXHF   =         0.00000000
  -V(xc)+E(xc)   XCENC  =       231.37592155
  PAW double counting   =      3241.03957612    -3223.51418829
  entropy T*S    EENTRO =        -0.00088836
  eigenvalues    EBANDS =        24.55531355
  atomic energy  EATOM  =      4079.23188876
  ---------------------------------------------------
  free energy    TOTEN  =       749.12998737 eV

  energy without entropy =      749.13087572  energy(sigma->0) =      749.13043154


--------------------------------------------------------------------------------------------------------




--------------------------------------- Iteration      1(   2)  ---------------------------------------


    TRIAL :  cpu time      0.2229: real time      0.2229
    CORREC:  cpu time      0.0001: real time      0.0001
    --------------------------------------------
      LOOP:  cpu time      0.2382: real time      0.2517

 eigenvalue-minimisations  :  1272
 total energy-change (2. order) :-0.7199799E+03  (-0.6977993E+03)
 number of electron      64.0000000 magnetization 
 augmentation part       64.0000000 magnetization 

 Free energy of the ion-electron system (eV)
  ---------------------------------------------------
  alpha Z        PSCENC =        64.50308324
  Ewald energy   TEWEN  =     -2171.10254707
  -Hartree energ DENC   =     -1496.95817215
  -exchange      EXHF   =         0.00000000
  -V(xc)+E(xc)   XCENC  =       231.37592155
  PAW double counting   =      3241.03957612    -3223.51418829
  entropy T*S    EENTRO =        -0.00000000
  eigenvalues    EBANDS =      -695.42551447
  atomic energy  EATOM  =      4079.23188876
  ---------------------------------------------------
  free energy    TOTEN  =        29.15004770 eV

  energy without entropy =       29.15004770  energy(sigma->0) =       29.15004770


--------------------------------------------------------------------------------------------------------




--------------------------------------- Iteration      1(   3)  ---------------------------------------


    TRIAL :  cpu time      0.1895: real time      0.1898
    CORREC:  cpu time      0.0001: real time      0.0001
    --------------------------------------------
      LOOP:  cpu time      0.2021: real time      0.2190

 eigenvalue-minimisations  :  1056
 total energy-change (2. order) :-0.1060931E+03  (-0.1050659E+03)
 number of electron      64.0000000 magnetization 
 augmentation part       64.0000000 magnetization 

 Free energy of the ion-electron system (eV)
  ---------------------------------------------------
  alpha Z        PSCENC =        64.50308324
  Ewald energy   TEWEN  =     -2171.10254707
  -Hartree energ DENC   =     -1496.95817215
  -exchange      EXHF   =         0.00000000
  -V(xc)+E(xc)   XCENC  =       231.37592155
  PAW double counting   =      3241.03957612    -3223.51418829
  entropy T*S    EENTRO =        -0.00000000
  eigenvalues    EBANDS =      -801.51863326
  atomic energy  EATOM  =      4079.23188876
  ---------------------------------------------------
  free energy    TOTEN  =       -76.94307109 eV

  energy without entropy =      -76.94307109  energy(sigma->0) =      -76.94307109


--------------------------------------------------------------------------------------------------------




--------------------------------------- Iteration      1(   4)  ---------------------------------------


    TRIAL :  cpu time      0.2062: real time      0.2062
    CORREC:  cpu time      0.0001: real time      0.0001
    --------------------------------------------
      LOOP:  cpu time      0.2342: real time      0.2345

 eigenvalue-minimisations  :  1208
 total energy-change (2. order) :-0.3830947E+01  (-0.3808701E+01)
 number of electron      64.0000000 magnetization 
 augmentation part       64.0000000 magnetization 

 Free energy of the ion-electron system (eV)
  ---------------------------------------------------
  alpha Z        PSCENC =        64.50308324
  Ewald energy   TEWEN  =     -2171.10254707
  -Hartree energ DENC   =     -1496.95817215
  -exchange      EXHF   =         0.00000000
  -V(xc)+E(xc)   XCENC  =       231.37592155
  PAW double counting   =      3241.03957612    -3223.51418829
  entropy T*S    EENTRO =        -0.00000000
  eigenvalues    EBANDS =      -805.34958005
  atomic energy  EATOM  =      4079.23188876
  ---------------------------------------------------
  free energy    TOTEN  =       -80.77401788 eV

  energy without entropy =      -80.77401788  energy(sigma->0) =      -80.77401788


--------------------------------------------------------------------------------------------------------




--------------------------------------- Iteration      1(   5)  ---------------------------------------


    TRIAL :  cpu time      0.1940: real time      0.1940
    CORREC:  cpu time      0.0001: real time      0.0001
    CHARGE:  cpu time      0.0652: real time      0.0658
    --------------------------------------------
      LOOP:  cpu time      0.2721: real time      0.2886

 eigenvalue-minimisations  :  1096
 total energy-change (2. order) :-0.1188104E+00  (-0.1185454E+00)
 number of electron      64.0000001 magnetization 
 augmentation part        0.5546393 magnetization 

 Free energy of the ion-electron system (eV)
  ---------------------------------------------------
  alpha Z        PSCENC =        64.50308324
  Ewald energy   TEWEN  =     -2171.10254707
  -Hartree energ DENC   =     -1496.95817215
  -exchange      EXHF   =         0.00000000
  -V(xc)+E(xc)   XCENC  =       231.37592155
  PAW double counting   =      3241.03957612    -3223.51418829
  entropy T*S    EENTRO =        -0.00000000
  eigenvalues    EBANDS =      -805.46839044
  atomic energy  EATOM  =      4079.23188876
  ---------------------------------------------------
  free energy    TOTEN  =       -80.89282827 eV

  energy without entropy =      -80.89282827  energy(sigma->0) =      -80.89282827


--------------------------------------------------------------------------------------------------------




--------------------------------------- Iteration      1(   6)  ---------------------------------------


    POTLOK:  cpu time      0.6332: real time      0.6335
    SETDIJ:  cpu time      0.0633: real time      0.0633
    TRIAL :  cpu time      0.1228: real time      0.1237
    CORREC:  cpu time      0.8122: real time      0.8130
    CHARGE:  cpu time      0.0496: real time      0.0496
    --------------------------------------------
      LOOP:  cpu time      1.6959: real time      1.7120

 eigenvalue-minimisations  :     0
 total energy-change (2. order) : 0.1773300E+02  (-0.9220004E+01)
 number of electron      64.0000001 magnetization 
 augmentation part        0.4019623 magnetization 

 Free energy of the ion-electron system (eV)
  ---------------------------------------------------
  alpha Z        PSCENC =        64.50308324
  Ewald energy   TEWEN  =     -2171.10254707
  -Hartree energ DENC   =     -1791.38019835
  -exchange      EXHF   =         0.00000000
  -V(xc)+E(xc)   XCENC  =       250.82146388
  PAW double counting   =     34665.42881422   -34653.45145212
  entropy T*S    EENTRO =        -0.00000000
  eigenvalues    EBANDS =      -507.21088490
  atomic energy  EATOM  =      4079.23188876
  ---------------------------------------------------
  free energy    TOTEN  =       -63.15983233 eV

  energy without entropy =      -63.15983233  energy(sigma->0) =      -63.15983233


--------------------------------------------------------------------------------------------------------




--------------------------------------- Iteration      1(   7)  ---------------------------------------


    POTLOK:  cpu time      0.6326: real time      0.6330
    SETDIJ:  cpu time      0.0651: real time      0.0651
    TRIAL :  cpu time      0.1030: real time      0.1030
    CORREC:  cpu time      0.8032: real time      0.8035
    CHARGE:  cpu time      0.0494: real time      0.0494
    --------------------------------------------
      LOOP:  cpu time      1.6825: real time      1.6833

 eigenvalue-minimisations  :     0
 total energy-change (2. order) :-0.9276129E+01  (-0.1122513E+01)
 number of electron      64.0000001 magnetization 
 augmentation part        0.3037114 magnetization 

 Free energy of the ion-electron system (eV)
  ---------------------------------------------------
  alpha Z        PSCENC =        64.50308324
  Ewald energy   TEWEN  =     -2171.10254707
  -Hartree energ DENC   =     -1620.32990581
  -exchange      EXHF   =         0.00000000
  -V(xc)+E(xc)   XCENC  =       239.67641588
  PAW double counting   =     40280.36465418   -40265.80709571
  entropy T*S    EENTRO =        -0.00000000
  eigenvalues    EBANDS =      -678.97245440
  atomic energy  EATOM  =      4079.23188876
  ---------------------------------------------------
  free energy    TOTEN  =       -72.43596092 eV

  energy without entropy =      -72.43596092  energy(sigma->0) =      -72.43596092


--------------------------------------------------------------------------------------------------------




--------------------------------------- Iteration      1(   8)  ---------------------------------------


    POTLOK:  cpu time      0.6318: real time      0.6318
    SETDIJ:  cpu time      0.0652: real time      0.0652
    TRIAL :  cpu time      0.1028: real time      0.1029
    CORREC:  cpu time      0.8094: real time      0.8097
    CHARGE:  cpu time      0.0501: real time      0.0501
    --------------------------------------------
      LOOP:  cpu time      1.6713: real time      1.6889

 eigenvalue-minimisations  :     0
 total energy-change (2. order) :-0.1122243E+01  (-0.2958912E+00)
 number of electron      64.0000001 magnetization 
 augmentation part        0.2956817 magnetization 

 Free energy of the ion-electron system (eV)
  ---------------------------------------------------
  alpha Z        PSCENC =        64.50308324
  Ewald energy   TEWEN  =     -2171.10254707
  -Hartree energ DENC   =     -1626.06459316
  -exchange      EXHF   =         0.00000000
  -V(xc)+E(xc)   XCENC  =       239.84058567
  PAW double counting   =     40863.37016502   -40848.34175180
  entropy T*S    EENTRO =        -0.00000000
  eigenvalues    EBANDS =      -674.99503482
  atomic energy  EATOM  =      4079.23188876
  ---------------------------------------------------
  free energy    TOTEN  =       -73.55820415 eV

  energy without entropy =      -73.55820415  energy(sigma->0) =      -73.55820415


--------------------------------------------------------------------------------------------------------




--------------------------------------- Iteration      1(   9)  ---------------------------------------


    POTLOK:  cpu time      0.6328: real time      0.6331
    SETDIJ:  cpu time      0.1010: real time      0.1010
    TRIAL :  cpu time      0.1031: real time      0.1031
    CORREC:  cpu time      0.8026: real time      0.8029
    CHARGE:  cpu time      0.0493: real time      0.0493
    --------------------------------------------
      LOOP:  cpu time      1.7128: real time      1.7301

 eigenvalue-minimisations  :     0
 total energy-change (2. order) :-0.2958961E+00  (-0.7877489E-01)
 number of electron      64.0000001 magnetization 
 augmentation part        0.2984628 magnetization 

 Free energy of the ion-electron system (eV)
  ---------------------------------------------------
  alpha Z        PSCENC =        64.50308324
  Ewald energy   TEWEN  =     -2171.10254707
  -Hartree energ DENC   =     -1629.56595551
  -exchange      EXHF   =         0.00000000
  -V(xc)+E(xc)   XCENC  =       240.01836872
  PAW double counting   =     42126.93114727   -42111.87727550
  entropy T*S    EENTRO =        -0.00000000
  eigenvalues    EBANDS =      -671.99281020
  atomic energy  EATOM  =      4079.23188876
  ---------------------------------------------------
  free energy    TOTEN  =       -73.85410027 eV

  energy without entropy =      -73.85410027  energy(sigma->0) =      -73.85410027


--------------------------------------------------------------------------------------------------------




--------------------------------------- Iteration      1(  10)  ---------------------------------------


    POTLOK:  cpu time      0.6321: real time      0.6324
    SETDIJ:  cpu time      0.0651: real time      0.0651
    TRIAL :  cpu time      0.1043: real time      0.1043
    CORREC:  cpu time      0.8024: real time      0.8027
    CHARGE:  cpu time      0.0492: real time      0.0492
    --------------------------------------------
      LOOP:  cpu time      1.6657: real time      1.6828

 eigenvalue-minimisations  :     0
 total energy-change (2. order) :-0.7865405E-01  (-0.2526829E-01)
 number of electron      64.0000001 magnetization 
 augmentation part        0.3007632 magnetization 

 Free energy of the ion-electron system (eV)
  ---------------------------------------------------
  alpha Z        PSCENC =        64.50308324
  Ewald energy   TEWEN  =     -2171.10254707
  -Hartree energ DENC   =     -1625.69978526
  -exchange      EXHF   =         0.00000000
  -V(xc)+E(xc)   XCENC  =       239.76225696
  PAW double counting   =     42289.17936932   -42274.11717659
  entropy T*S    EENTRO =        -0.00000000
  eigenvalues    EBANDS =      -675.68984369
  atomic energy  EATOM  =      4079.23188876
  ---------------------------------------------------
  free energy    TOTEN  =       -73.93275432 eV

  energy without entropy =      -73.93275432  energy(sigma->0) =      -73.93275432


--------------------------------------------------------------------------------------------------------




--------------------------------------- Iteration      1(  11)  ---------------------------------------


    POTLOK:  cpu time      0.6331: real time      0.6331
    SETDIJ:  cpu time      0.0646: real time      0.0646
    TRIAL :  cpu time      0.1026: real time      0.1029
    CORREC:  cpu time      0.8034: real time      0.8034
    CHARGE:  cpu time      0.0494: real time      0.0494
    --------------------------------------------
      LOOP:  cpu time      1.6663: real time      1.6828

 eigenvalue-minimisations  :     0
 total energy-change (2. order) :-0.2525337E-01  (-0.7253811E-02)
 number of electron      64.0000001 magnetization 
 augmentation part        0.3024427 magnetization 

 Free energy of the ion-electron system (eV)
  ---------------------------------------------------
  alpha Z        PSCENC =        64.50308324
  Ewald energy   TEWEN  =     -2171.10254707
  -Hartree energ DENC   =     -1626.73681734
  -exchange      EXHF   =         0.00000000
  -V(xc)+E(xc)   XCENC  =       239.81003180
  PAW double counting   =     41863.07253035   -41848.03980919
  entropy T*S    EENTRO =        -0.00000000
  eigenvalues    EBANDS =      -674.69636825
  atomic energy  EATOM  =      4079.23188876
  ---------------------------------------------------
  free energy    TOTEN  =       -73.95800769 eV

  energy without entropy =      -73.95800769  energy(sigma->0) =      -73.95800769


--------------------------------------------------------------------------------------------------------




--------------------------------------- Iteration      1(  12)  ---------------------------------------


    POTLOK:  cpu time      0.6322: real time      0.6325
    SETDIJ:  cpu time      0.0654: real time      0.0654
    TRIAL :  cpu time      0.1025: real time      0.1025
    CORREC:  cpu time      0.8036: real time      0.8039
    CHARGE:  cpu time      0.0560: real time      0.0560
    --------------------------------------------
      LOOP:  cpu time      1.6884: real time      1.6892

 eigenvalue-minimisations  :     0
 total energy-change (2. order) :-0.7255072E-02  (-0.2784175E-02)
 number of electron      64.0000001 magnetization 
 augmentation part        0.3023982 magnetization 

 Free energy of the ion-electron system (eV)
  ---------------------------------------------------
  alpha Z        PSCENC =        64.50308324
  Ewald energy   TEWEN  =     -2171.10254707
  -Hartree energ DENC   =     -1626.38213589
  -exchange      EXHF   =         0.00000000
  -V(xc)+E(xc)   XCENC  =       239.77971742
  PAW double counting   =     41872.24846680   -41857.21466297
  entropy T*S    EENTRO =        -0.00000000
  eigenvalues    EBANDS =      -675.02907305
  atomic energy  EATOM  =      4079.23188876
  ---------------------------------------------------
  free energy    TOTEN  =       -73.96526276 eV

  energy without entropy =      -73.96526276  energy(sigma->0) =      -73.96526276


--------------------------------------------------------------------------------------------------------




--------------------------------------- Iteration      1(  13)  ---------------------------------------


    POTLOK:  cpu time      0.6322: real time      0.6326
    SETDIJ:  cpu time      0.0641: real time      0.0641
    TRIAL :  cpu time      0.1024: real time      0.1024
    CORREC:  cpu time      0.8027: real time      0.8030
    CHARGE:  cpu time      0.0492: real time      0.0493
    --------------------------------------------
      LOOP:  cpu time      1.6641: real time      1.6818

 eigenvalue-minimisations  :     0
 total energy-change (2. order) :-0.2783570E-02  (-0.1110139E-02)
 number of electron      64.0000001 magnetization 
 augmentation part        0.3020683 magnetization 

 Free energy of the ion-electron system (eV)
  ---------------------------------------------------
  alpha Z        PSCENC =        64.50308324
  Ewald energy   TEWEN  =     -2171.10254707
  -Hartree energ DENC   =     -1626.38960199
  -exchange      EXHF   =         0.00000000
  -V(xc)+E(xc)   XCENC  =       239.78388602
  PAW double counting   =     41906.42022366   -41891.38222582
  entropy T*S    EENTRO =        -0.00000000
  eigenvalues    EBANDS =      -675.03275314
  atomic energy  EATOM  =      4079.23188876
  ---------------------------------------------------
  free energy    TOTEN  =       -73.96804633 eV

  energy without entropy =      -73.96804633  energy(sigma->0) =      -73.96804633


--------------------------------------------------------------------------------------------------------




--------------------------------------- Iteration      1(  14)  ---------------------------------------


    POTLOK:  cpu time      0.6322: real time      0.6322
    SETDIJ:  cpu time      0.0661: real time      0.0661
    TRIAL :  cpu time      0.1035: real time      0.1037
    CORREC:  cpu time      0.8101: real time      0.8101
    CHARGE:  cpu time      0.0492: real time      0.0492
    --------------------------------------------
      LOOP:  cpu time      1.6730: real time      1.6904

 eigenvalue-minimisations  :     0
 total energy-change (2. order) :-0.1110102E-02  (-0.4794608E-03)
 number of electron      64.0000001 magnetization 
 augmentation part        0.3023540 magnetization 

 Free energy of the ion-electron system (eV)
  ---------------------------------------------------
  alpha Z        PSCENC =        64.50308324
  Ewald energy   TEWEN  =     -2171.10254707
  -Hartree energ DENC   =     -1626.11269574
  -exchange      EXHF   =         0.00000000
  -V(xc)+E(xc)   XCENC  =       239.76697751
  PAW double counting   =     41838.53537928   -41823.49262581
  entropy T*S    EENTRO =        -0.00000000
  eigenvalues    EBANDS =      -675.29861660
  atomic energy  EATOM  =      4079.23188876
  ---------------------------------------------------
  free energy    TOTEN  =       -73.96915643 eV

  energy without entropy =      -73.96915643  energy(sigma->0) =      -73.96915643


--------------------------------------------------------------------------------------------------------




--------------------------------------- Iteration      1(  15)  ---------------------------------------


    POTLOK:  cpu time      0.6322: real time      0.6325
    SETDIJ:  cpu time      0.0640: real time      0.0640
    TRIAL :  cpu time      0.1027: real time      0.1027
    CORREC:  cpu time      0.8401: real time      0.8404
    CHARGE:  cpu time      0.0496: real time      0.0496
    --------------------------------------------
      LOOP:  cpu time      1.7000: real time      1.7182

 eigenvalue-minimisations  :     0
 total energy-change (2. order) :-0.4793899E-03  (-0.1990504E-03)
 number of electron      64.0000001 magnetization 
 augmentation part        0.3022215 magnetization 

 Free energy of the ion-electron system (eV)
  ---------------------------------------------------
  alpha Z        PSCENC =        64.50308324
  Ewald energy   TEWEN  =     -2171.10254707
  -Hartree energ DENC   =     -1626.32837897
  -exchange      EXHF   =         0.00000000
  -V(xc)+E(xc)   XCENC  =       239.77855620
  PAW double counting   =     41752.10639020   -41737.06771996
  entropy T*S    EENTRO =        -0.00000000
  eigenvalues    EBANDS =      -675.09090823
  atomic energy  EATOM  =      4079.23188876
  ---------------------------------------------------
  free energy    TOTEN  =       -73.96963582 eV

  energy without entropy =      -73.96963582  energy(sigma->0) =      -73.96963582


--------------------------------------------------------------------------------------------------------




--------------------------------------- Iteration      1(  16)  ---------------------------------------


    POTLOK:  cpu time      0.6322: real time      0.6326
    SETDIJ:  cpu time      0.0640: real time      0.0640
    TRIAL :  cpu time      0.1026: real time      0.1026
    CORREC:  cpu time      0.8283: real time      0.8286
    CHARGE:  cpu time      0.0493: real time      0.0493
    --------------------------------------------
      LOOP:  cpu time      1.7068: real time      1.7078

 eigenvalue-minimisations  :     0
 total energy-change (2. order) :-0.1993039E-03  (-0.7826812E-04)
 number of electron      64.0000001 magnetization 
 augmentation part        0.3021718 magnetization 

 Free energy of the ion-electron system (eV)
  ---------------------------------------------------
  alpha Z        PSCENC =        64.50308324
  Ewald energy   TEWEN  =     -2171.10254707
  -Hartree energ DENC   =     -1626.17828589
  -exchange      EXHF   =         0.00000000
  -V(xc)+E(xc)   XCENC  =       239.76876631
  PAW double counting   =     41722.85670549   -41707.81727412
  entropy T*S    EENTRO =        -0.00000000
  eigenvalues    EBANDS =      -675.23217186
  atomic energy  EATOM  =      4079.23188876
  ---------------------------------------------------
  free energy    TOTEN  =       -73.96983513 eV

  energy without entropy =      -73.96983513  energy(sigma->0) =      -73.96983513


--------------------------------------------------------------------------------------------------------




--------------------------------------- Iteration      1(  17)  ---------------------------------------


    POTLOK:  cpu time      0.6320: real time      0.6320
    SETDIJ:  cpu time      0.0646: real time      0.0649
    TRIAL :  cpu time      0.1029: real time      0.1029
    CORREC:  cpu time      0.8803: real time      0.8806
    CHARGE:  cpu time      0.0491: real time      0.0491
    --------------------------------------------
      LOOP:  cpu time      1.7411: real time      1.7590

 eigenvalue-minimisations  :     0
 total energy-change (2. order) :-0.7780913E-04  (-0.2673315E-04)
 number of electron      64.0000001 magnetization 
 augmentation part        0.3019589 magnetization 

 Free energy of the ion-electron system (eV)
  ---------------------------------------------------
  alpha Z        PSCENC =        64.50308324
  Ewald energy   TEWEN  =     -2171.10254707
  -Hartree energ DENC   =     -1626.29078178
  -exchange      EXHF   =         0.00000000
  -V(xc)+E(xc)   XCENC  =       239.77632449
  PAW double counting   =     41730.06994173   -41715.03165881
  entropy T*S    EENTRO =        -0.00000000
  eigenvalues    EBANDS =      -675.12616351
  atomic energy  EATOM  =      4079.23188876
  ---------------------------------------------------
  free energy    TOTEN  =       -73.96991294 eV

  energy without entropy =      -73.96991294  energy(sigma->0) =      -73.96991294


--------------------------------------------------------------------------------------------------------




--------------------------------------- Iteration      1(  18)  ---------------------------------------


    POTLOK:  cpu time      0.6321: real time      0.6322
    SETDIJ:  cpu time      0.0659: real time      0.0659
    TRIAL :  cpu time      0.1025: real time      0.1025
    CORREC:  cpu time      0.8018: real time      0.8021
    CHARGE:  cpu time      0.0494: real time      0.0494
    --------------------------------------------
      LOOP:  cpu time      1.6817: real time      1.6823

 eigenvalue-minimisations  :     0
 total energy-change (2. order) :-0.2652182E-04  (-0.7990901E-05)
 number of electron      64.0000001 magnetization 
 augmentation part        0.3019605 magnetization 

 Free energy of the ion-electron system (eV)
  ---------------------------------------------------
  alpha Z        PSCENC =        64.50308324
  Ewald energy   TEWEN  =     -2171.10254707
  -Hartree energ DENC   =     -1626.22291997
  -exchange      EXHF   =         0.00000000
  -V(xc)+E(xc)   XCENC  =       239.77183861
  PAW double counting   =     41750.08727476   -41735.04708200
  entropy T*S    EENTRO =        -0.00000000
  eigenvalues    EBANDS =      -675.19147580
  atomic energy  EATOM  =      4079.23188876
  ---------------------------------------------------
  free energy    TOTEN  =       -73.96993946 eV

  energy without entropy =      -73.96993946  energy(sigma->0) =      -73.96993946


--------------------------------------------------------------------------------------------------------




--------------------------------------- Iteration      1(  19)  ---------------------------------------


    POTLOK:  cpu time      0.6320: real time      0.6323
    SETDIJ:  cpu time      0.1505: real time      0.1505
    TRIAL :  cpu time      0.1026: real time      0.1026
    CORREC:  cpu time      0.8030: real time      0.8033
    CHARGE:  cpu time      0.0496: real time      0.0496
    --------------------------------------------
      LOOP:  cpu time      1.7636: real time      1.7670

 eigenvalue-minimisations  :     0
 total energy-change (2. order) :-0.7833536E-05  (-0.2456492E-05)
 number of electron      64.0000001 magnetization 
 augmentation part        0.3019515 magnetization 

 Free energy of the ion-electron system (eV)
  ---------------------------------------------------
  alpha Z        PSCENC =        64.50308324
  Ewald energy   TEWEN  =     -2171.10254707
  -Hartree energ DENC   =     -1626.28368983
  -exchange      EXHF   =         0.00000000
  -V(xc)+E(xc)   XCENC  =       239.77587111
  PAW double counting   =     41762.81931633   -41747.77954982
  entropy T*S    EENTRO =        -0.00000000
  eigenvalues    EBANDS =      -675.13432002
  atomic energy  EATOM  =      4079.23188876
  ---------------------------------------------------
  free energy    TOTEN  =       -73.96994729 eV

  energy without entropy =      -73.96994729  energy(sigma->0) =      -73.96994729


--------------------------------------------------------------------------------------------------------




--------------------------------------- Iteration      1(  20)  ---------------------------------------


    POTLOK:  cpu time      0.6317: real time      0.6320
    SETDIJ:  cpu time      0.0646: real time      0.0646
    TRIAL :  cpu time      0.1025: real time      0.1025
    CORREC:  cpu time      0.8100: real time      0.8103
    CHARGE:  cpu time      0.0494: real time      0.0494
    --------------------------------------------
      LOOP:  cpu time      1.6710: real time      1.6879

 eigenvalue-minimisations  :     0
 total energy-change (2. order) :-0.2500368E-05  (-0.1135304E-05)
 number of electron      64.0000001 magnetization 
 augmentation part        0.3019962 magnetization 

 Free energy of the ion-electron system (eV)
  ---------------------------------------------------
  alpha Z        PSCENC =        64.50308324
  Ewald energy   TEWEN  =     -2171.10254707
  -Hartree energ DENC   =     -1626.25075261
  -exchange      EXHF   =         0.00000000
  -V(xc)+E(xc)   XCENC  =       239.77376661
  PAW double counting   =     41764.86230277   -41749.82217546
  entropy T*S    EENTRO =        -0.00000000
  eigenvalues    EBANDS =      -675.16551605
  atomic energy  EATOM  =      4079.23188876
  ---------------------------------------------------
  free energy    TOTEN  =       -73.96994979 eV

  energy without entropy =      -73.96994979  energy(sigma->0) =      -73.96994979


--------------------------------------------------------------------------------------------------------




--------------------------------------- Iteration      1(  21)  ---------------------------------------


    POTLOK:  cpu time      0.6322: real time      0.6322
    SETDIJ:  cpu time      0.0651: real time      0.0651
    TRIAL :  cpu time      0.1026: real time      0.1028
    CORREC:  cpu time      0.8025: real time      0.8025
    CHARGE:  cpu time      0.0493: real time      0.0493
    --------------------------------------------
      LOOP:  cpu time      1.6640: real time      1.6808

 eigenvalue-minimisations  :     0
 total energy-change (2. order) :-0.1174172E-05  (-0.5752514E-06)
 number of electron      64.0000001 magnetization 
 augmentation part        0.3020061 magnetization 

 Free energy of the ion-electron system (eV)
  ---------------------------------------------------
  alpha Z        PSCENC =        64.50308324
  Ewald energy   TEWEN  =     -2171.10254707
  -Hartree energ DENC   =     -1626.26627627
  -exchange      EXHF   =         0.00000000
  -V(xc)+E(xc)   XCENC  =       239.77472102
  PAW double counting   =     41762.04477647   -41747.00502022
  entropy T*S    EENTRO =        -0.00000000
  eigenvalues    EBANDS =      -675.15057691
  atomic energy  EATOM  =      4079.23188876
  ---------------------------------------------------
  free energy    TOTEN  =       -73.96995097 eV

  energy without entropy =      -73.96995097  energy(sigma->0) =      -73.96995097


--------------------------------------------------------------------------------------------------------




--------------------------------------- Iteration      1(  22)  ---------------------------------------


    POTLOK:  cpu time      0.6326: real time      0.6330
    SETDIJ:  cpu time      0.0628: real time      0.0628
    TRIAL :  cpu time      0.1027: real time      0.1027
    CORREC:  cpu time      0.8013: real time      0.8015
    CHARGE:  cpu time      0.0501: real time      0.0501
    --------------------------------------------
      LOOP:  cpu time      1.6610: real time      1.6793

 eigenvalue-minimisations  :     0
 total energy-change (2. order) :-0.6076007E-06  (-0.2710979E-06)
 number of electron      64.0000001 magnetization 
 augmentation part        0.3020075 magnetization 

 Free energy of the ion-electron system (eV)
  ---------------------------------------------------
  alpha Z        PSCENC =        64.50308324
  Ewald energy   TEWEN  =     -2171.10254707
  -Hartree energ DENC   =     -1626.26296398
  -exchange      EXHF   =         0.00000000
  -V(xc)+E(xc)   XCENC  =       239.77449168
  PAW double counting   =     41760.06014256   -41745.02040356
  entropy T*S    EENTRO =        -0.00000000
  eigenvalues    EBANDS =      -675.15364321
  atomic energy  EATOM  =      4079.23188876
  ---------------------------------------------------
  free energy    TOTEN  =       -73.96995157 eV

  energy without entropy =      -73.96995157  energy(sigma->0) =      -73.96995157


--------------------------------------------------------------------------------------------------------




--------------------------------------- Iteration      1(  23)  ---------------------------------------


    POTLOK:  cpu time      0.7078: real time      0.7081
    SETDIJ:  cpu time      0.0008: real time      0.0008
    TRIAL :  cpu time      0.1031: real time      0.1031
    CORREC:  cpu time      0.8026: real time      0.8028
    CHARGE:  cpu time      0.0493: real time      0.0493
    --------------------------------------------
      LOOP:  cpu time      1.6926: real time      1.6934

 eigenvalue-minimisations  :     0
 total energy-change (2. order) :-0.2844245E-06  (-0.1204550E-06)
 number of electron      64.0000001 magnetization 
 augmentation part        0.3020159 magnetization 

 Free energy of the ion-electron system (eV)
  ---------------------------------------------------
  alpha Z        PSCENC =        64.50308324
  Ewald energy   TEWEN  =     -2171.10254707
  -Hartree energ DENC   =     -1626.25929301
  -exchange      EXHF   =         0.00000000
  -V(xc)+E(xc)   XCENC  =       239.77427959
  PAW double counting   =     41760.30446204   -41745.26466880
  entropy T*S    EENTRO =        -0.00000000
  eigenvalues    EBANDS =      -675.15715662
  atomic energy  EATOM  =      4079.23188876
  ---------------------------------------------------
  free energy    TOTEN  =       -73.96995186 eV

  energy without entropy =      -73.96995186  energy(sigma->0) =      -73.96995186


--------------------------------------------------------------------------------------------------------




--------------------------------------- Iteration      1(  24)  ---------------------------------------


    POTLOK:  cpu time      0.6322: real time      0.6322
    SETDIJ:  cpu time      0.0640: real time      0.0642
    TRIAL :  cpu time      0.1026: real time      0.1026
    CORREC:  cpu time      0.8036: real time      0.8036
    CHARGE:  cpu time      0.0497: real time      0.0497
    --------------------------------------------
      LOOP:  cpu time      1.6645: real time      1.6817

 eigenvalue-minimisations  :     0
 total energy-change (2. order) :-0.1204971E-06  (-0.2793255E-07)
 number of electron      64.0000001 magnetization 
 augmentation part        0.3020128 magnetization 

 Free energy of the ion-electron system (eV)
  ---------------------------------------------------
  alpha Z        PSCENC =        64.50308324
  Ewald energy   TEWEN  =     -2171.10254707
  -Hartree energ DENC   =     -1626.26427693
  -exchange      EXHF   =         0.00000000
  -V(xc)+E(xc)   XCENC  =       239.77461102
  PAW double counting   =     41760.98344299   -41745.94371209
  entropy T*S    EENTRO =        -0.00000000
  eigenvalues    EBANDS =      -675.15244191
  atomic energy  EATOM  =      4079.23188876
  ---------------------------------------------------
  free energy    TOTEN  =       -73.96995198 eV

  energy without entropy =      -73.96995198  energy(sigma->0) =      -73.96995198


--------------------------------------------------------------------------------------------------------




--------------------------------------- Iteration      1(  25)  ---------------------------------------


    POTLOK:  cpu time      0.6322: real time      0.6322
    SETDIJ:  cpu time      0.0644: real time      0.0644
    TRIAL :  cpu time      0.1027: real time      0.1027
    CORREC:  cpu time      0.8019: real time      0.8021
    EDDIAG:  cpu time      0.0647: real time      0.0654
    CHARGE:  cpu time      0.0499: real time      0.0499
    --------------------------------------------
      LOOP:  cpu time      1.7290: real time      1.7461

 eigenvalue-minimisations  :     0
 total energy-change (2. order) :-0.2762681E-07  (-0.1127119E-07)
 number of electron      64.0000001 magnetization 
 augmentation part        0.3020140 magnetization 

 Free energy of the ion-electron system (eV)
  ---------------------------------------------------
  alpha Z        PSCENC =        64.50308324
  Ewald energy   TEWEN  =     -2171.10254707
  -Hartree energ DENC   =     -1626.26047923
  -exchange      EXHF   =         0.00000000
  -V(xc)+E(xc)   XCENC  =       239.77436270
  PAW double counting   =     41761.14331448   -41746.10353340
  entropy T*S    EENTRO =        -0.00000000
  eigenvalues    EBANDS =      -675.15604149
  atomic energy  EATOM  =      4079.23188876
  ---------------------------------------------------
  free energy    TOTEN  =       -73.96995201 eV

  energy without entropy =      -73.96995201  energy(sigma->0) =      -73.96995201


--------------------------------------------------------------------------------------------------------


  average scaling for gradient   0.6229


 average (electrostatic) potential at core
  the test charge radii are     0.5770  0.5955
  (the norm of the test charge is              1.0000)
       1 -86.1324       2 -86.1324       3 -86.1324       4 -86.1324       5-116.4458
       6-116.4458       7-116.4458       8-116.4458       9-116.4458      10-116.4458
      11-116.4458      12-116.4458



 E-fermi :  -3.3230     XC(G=0):  -8.1731     alpha+bet : -6.0625

 Fermi energy:        -3.3230258987

 k-point     1 :       0.0000    0.0000    0.0000
  band No.  band energies     occupation 
      1     -23.8264      2.00000
      2     -23.6166      2.00000
      3     -23.6166      2.00000
      4     -23.6166      2.00000
      5     -22.7169      2.00000
      6     -22.7169      2.00000
      7     -22.7168      2.00000
      8     -22.6632      2.00000
      9      -8.6133      2.00000
     10      -8.6133      2.00000
     11      -8.6133      2.00000
     12      -8.4418      2.00000
     13      -8.0681      2.00000
     14      -8.0681      2.00000
     15      -8.0681      2.00000
     16      -7.3131      2.00000
     17      -7.3131      2.00000
     18      -7.2850      2.00000
     19      -7.1727      2.00000
     20      -7.1727      2.00000
     21      -7.1727      2.00000
     22      -6.7193      2.00000
     23      -6.7193      2.00000
     24      -6.7193      2.00000
     25      -4.1589      2.00000
     26      -4.1589      2.00000
     27      -4.1589      2.00000
     28      -3.6088      2.00000
     29      -3.6088      2.00000
     30      -3.6088      2.00000
     31      -3.4156      2.00000
     32      -3.4156      2.00000
     33       3.3072      0.00000
     34       4.5800      0.00000
     35       4.5802      0.00000
     36       4.6502      0.00000
     37       4.8406      0.00000
     38       4.9181      0.00000
     39       5.4166      0.00000
     40       5.4291      0.00000

 k-point     2 :       0.2000    0.0000    0.0000
  band No.  band energies     occupation 
      1     -23.8076      2.00000
      2     -23.6381      2.00000
      3     -23.6165      2.00000
      4     -23.6164      2.00000
      5     -22.7158      2.00000
      6     -22.7156      2.00000
      7     -22.7118      2.00000
      8     -22.6684      2.00000
      9      -8.6572      2.00000
     10      -8.6498      2.00000
     11      -8.6388      2.00000
     12      -8.5251      2.00000
     13      -7.9687      2.00000
     14      -7.9590      2.00000
     15      -7.9357      2.00000
     16      -7.3605      2.00000
     17      -7.3127      2.00000
     18      -7.2418      2.00000
     19      -7.2241      2.00000
     20      -7.2028      2.00000
     21      -7.1357      2.00000
     22      -6.8184      2.00000
     23      -6.7738      2.00000
     24      -6.7589      2.00000
     25      -4.0905      2.00000
     26      -4.0867      2.00000
     27      -4.0837      2.00000
     28      -3.6312      2.00000
     29      -3.6296      2.00000
     30      -3.5814      2.00000
     31      -3.4800      2.00000
     32      -3.4267      2.00000
     33       3.5642      0.00000
     34       4.5441      0.00000
     35       4.6480      0.00000
     36       4.6614      0.00000
     37       4.7749      0.00000
     38       4.8651      0.00000
     39       5.3249      0.00000
     40       5.3624      0.00000

 k-point     3 :       0.4000    0.0000    0.0000
  band No.  band energies     occupation 
      1     -23.7573      2.00000
      2     -23.6927      2.00000
      3     -23.6163      2.00000
      4     -23.6162      2.00000
      5     -22.7139      2.00000
      6     -22.7137      2.00000
      7     -22.6985      2.00000
      8     -22.6819      2.00000
      9      -8.6908      2.00000
     10      -8.6889      2.00000
     11      -8.6820      2.00000
     12      -8.6397      2.00000
     13      -7.7722      2.00000
     14      -7.7544      2.00000
     15      -7.7199      2.00000
     16      -7.5282      2.00000
     17      -7.3079      2.00000
     18      -7.2966      2.00000
     19      -7.2650      2.00000
     20      -7.1438      2.00000
     21      -7.0878      2.00000
     22      -6.9564      2.00000
     23      -6.9126      2.00000
     24      -6.8588      2.00000
     25      -3.9519      2.00000
     26      -3.9465      2.00000
     27      -3.8897      2.00000
     28      -3.6936      2.00000
     29      -3.6903      2.00000
     30      -3.6578      2.00000
     31      -3.5201      2.00000
     32      -3.4620      2.00000
     33       4.2918      0.00000
     34       4.5102      0.00000
     35       4.5747      0.00000
     36       4.7712      0.00000
     37       4.8563      0.00000
     38       4.9749      0.00000
     39       5.1334      0.00000
     40       5.2529      0.00000

 k-point     4 :       0.2000    0.2000    0.0000
  band No.  band energies     occupation 
      1     -23.7903      2.00000
      2     -23.6358      2.00000
      3     -23.6358      2.00000
      4     -23.6183      2.00000
      5     -22.7148      2.00000
      6     -22.7113      2.00000
      7     -22.7111      2.00000
      8     -22.6731      2.00000
      9      -8.6906      2.00000
     10      -8.6770      2.00000
     11      -8.6469      2.00000
     12      -8.5476      2.00000
     13      -7.9607      2.00000
     14      -7.8971      2.00000
     15      -7.8124      2.00000
     16      -7.4454      2.00000
     17      -7.2912      2.00000
     18      -7.2348      2.00000
     19      -7.2067      2.00000
     20      -7.1608      2.00000
     21      -7.1369      2.00000
     22      -6.9512      2.00000
     23      -6.8107      2.00000
     24      -6.7524      2.00000
     25      -4.0357      2.00000
     26      -4.0239      2.00000
     27      -4.0219      2.00000
     28      -3.6466      2.00000
     29      -3.6096      2.00000
     30      -3.6082      2.00000
     31      -3.5060      2.00000
     32      -3.4680      2.00000
     33       3.8045      0.00000
     34       4.5436      0.00000
     35       4.5916      0.00000
     36       4.7500      0.00000
     37       4.7719      0.00000
     38       4.8812      0.00000
     39       5.2873      0.00000
     40       5.3348      0.00000

 k-point     5 :       0.4000    0.2000    0.0000
  band No.  band energies     occupation 
      1     -23.7441      2.00000
      2     -23.6852      2.00000
      3     -23.6300      2.00000
      4     -23.6233      2.00000
      5     -22.7124      2.00000
      6     -22.7110      2.00000
      7     -22.6997      2.00000
      8     -22.6852      2.00000
      9      -8.7195      2.00000
     10      -8.6999      2.00000
     11      -8.6696      2.00000
     12      -8.6186      2.00000
     13      -7.8403      2.00000
     14      -7.7651      2.00000
     15      -7.6578      2.00000
     16      -7.5628      2.00000
     17      -7.3780      2.00000
     18      -7.2879      2.00000
     19      -7.1570      2.00000
     20      -7.1263      2.00000
     21      -7.0387      2.00000
     22      -7.0372      2.00000
     23      -6.9070      2.00000
     24      -6.8522      2.00000
     25      -3.9182      2.00000
     26      -3.9080      2.00000
     27      -3.8527      2.00000
     28      -3.6917      2.00000
     29      -3.6815      2.00000
     30      -3.6498      2.00000
     31      -3.5608      2.00000
     32      -3.5124      2.00000
     33       4.4424      0.00000
     34       4.4816      0.00000
     35       4.4941      0.00000
     36       4.8010      0.00000
     37       4.9398      0.00000
     38       4.9838      0.00000
     39       5.1556      0.00000
     40       5.2555      0.00000

 k-point     6 :      -0.2000    0.4000    0.0000
  band No.  band energies     occupation 
      1     -23.7441      2.00000
      2     -23.6852      2.00000
      3     -23.6300      2.00000
      4     -23.6233      2.00000
      5     -22.7125      2.00000
      6     -22.7108      2.00000
      7     -22.6998      2.00000
      8     -22.6852      2.00000
      9      -8.7040      2.00000
     10      -8.6919      2.00000
     11      -8.6756      2.00000
     12      -8.6402      2.00000
     13      -7.7898      2.00000
     14      -7.7790      2.00000
     15      -7.6755      2.00000
     16      -7.6302      2.00000
     17      -7.3013      2.00000
     18      -7.2047      2.00000
     19      -7.2001      2.00000
     20      -7.1595      2.00000
     21      -7.1229      2.00000
     22      -6.9660      2.00000
     23      -6.9483      2.00000
     24      -6.8288      2.00000
     25      -3.9132      2.00000
     26      -3.9042      2.00000
     27      -3.8585      2.00000
     28      -3.6959      2.00000
     29      -3.6819      2.00000
     30      -3.6566      2.00000
     31      -3.5571      2.00000
     32      -3.5077      2.00000
     33       4.4407      0.00000
     34       4.5099      0.00000
     35       4.5685      0.00000
     36       4.6983      0.00000
     37       4.9717      0.00000
     38       5.0626      0.00000
     39       5.1602      0.00000
     40       5.2003      0.00000

 k-point     7 :       0.4000    0.4000    0.0000
  band No.  band energies     occupation 
      1     -23.7093      2.00000
      2     -23.6657      2.00000
      3     -23.6657      2.00000
      4     -23.6421      2.00000
      5     -22.7083      2.00000
      6     -22.7035      2.00000
      7     -22.7033      2.00000
      8     -22.6936      2.00000
      9      -8.7115      2.00000
     10      -8.6936      2.00000
     11      -8.6737      2.00000
     12      -8.6541      2.00000
     13      -7.7909      2.00000
     14      -7.7875      2.00000
     15      -7.7068      2.00000
     16      -7.6508      2.00000
     17      -7.3315      2.00000
     18      -7.2491      2.00000
     19      -7.1916      2.00000
     20      -7.0990      2.00000
     21      -6.9952      2.00000
     22      -6.9827      2.00000
     23      -6.9646      2.00000
     24      -6.8565      2.00000
     25      -3.8263      2.00000
     26      -3.8006      2.00000
     27      -3.7838      2.00000
     28      -3.7062      2.00000
     29      -3.6755      2.00000
     30      -3.6609      2.00000
     31      -3.6428      2.00000
     32      -3.6195      2.00000
     33       4.4651      0.00000
     34       4.5172      0.00000
     35       4.5719      0.00000
     36       4.5917      0.00000
     37       5.0973      0.00000
     38       5.1641      0.00000
     39       5.2084      0.00000
     40       5.3454      0.00000

 k-point     8 :       0.2000    0.2000    0.2000
  band No.  band energies     occupation 
      1     -23.7745      2.00000
      2     -23.6358      2.00000
      3     -23.6352      2.00000
      4     -23.6352      2.00000
      5     -22.7119      2.00000
      6     -22.7119      2.00000
      7     -22.7089      2.00000
      8     -22.6774      2.00000
      9      -8.7351      2.00000
     10      -8.6507      2.00000
     11      -8.6507      2.00000
     12      -8.5583      2.00000
     13      -7.9451      2.00000
     14      -7.9451      2.00000
     15      -7.7388      2.00000
     16      -7.4486      2.00000
     17      -7.2710      2.00000
     18      -7.2710      2.00000
     19      -7.1738      2.00000
     20      -7.1240      2.00000
     21      -7.1240      2.00000
     22      -7.0410      2.00000
     23      -6.7887      2.00000
     24      -6.7887      2.00000
     25      -3.9889      2.00000
     26      -3.9730      2.00000
     27      -3.9730      2.00000
     28      -3.6331      2.00000
     29      -3.6331      2.00000
     30      -3.6260      2.00000
     31      -3.5178      2.00000
     32      -3.5178      2.00000
     33       4.0342      0.00000
     34       4.4999      0.00000
     35       4.5100      0.00000
     36       4.7927      0.00000
     37       4.8002      0.00000
     38       4.8549      0.00000
     39       5.2195      0.00000
     40       5.3721      0.00000

 k-point     9 :       0.4000    0.2000    0.2000
  band No.  band energies     occupation 
      1     -23.7326      2.00000
      2     -23.6795      2.00000
      3     -23.6349      2.00000
      4     -23.6347      2.00000
      5     -22.7108      2.00000
      6     -22.7097      2.00000
      7     -22.7009      2.00000
      8     -22.6883      2.00000
      9      -8.7327      2.00000
     10      -8.6819      2.00000
     11      -8.6434      2.00000
     12      -8.6128      2.00000
     13      -7.9104      2.00000
     14      -7.8757      2.00000
     15      -7.7079      2.00000
     16      -7.5650      2.00000
     17      -7.2946      2.00000
     18      -7.2653      2.00000
     19      -7.1188      2.00000
     20      -7.0889      2.00000
     21      -7.0617      2.00000
     22      -7.0044      2.00000
     23      -6.8869      2.00000
     24      -6.8569      2.00000
     25      -3.8840      2.00000
     26      -3.8763      2.00000
     27      -3.8337      2.00000
     28      -3.6920      2.00000
     29      -3.6875      2.00000
     30      -3.6540      2.00000
     31      -3.5917      2.00000
     32      -3.5501      2.00000
     33       4.4430      0.00000
     34       4.4768      0.00000
     35       4.5975      0.00000
     36       4.7707      0.00000
     37       4.8335      0.00000
     38       5.0410      0.00000
     39       5.2176      0.00000
     40       5.3616      0.00000

 k-point    10 :       0.4000    0.4000    0.2000
  band No.  band energies     occupation 
      1     -23.7024      2.00000
      2     -23.6651      2.00000
      3     -23.6649      2.00000
      4     -23.6479      2.00000
      5     -22.7078      2.00000
      6     -22.7048      2.00000
      7     -22.7034      2.00000
      8     -22.6958      2.00000
      9      -8.7077      2.00000
     10      -8.6599      2.00000
     11      -8.6365      2.00000
     12      -8.6205      2.00000
     13      -7.9513      2.00000
     14      -7.9124      2.00000
     15      -7.8392      2.00000
     16      -7.7252      2.00000
     17      -7.2089      2.00000
     18      -7.1429      2.00000
     19      -7.0919      2.00000
     20      -7.0357      2.00000
     21      -6.9867      2.00000
     22      -6.9629      2.00000
     23      -6.9413      2.00000
     24      -6.8674      2.00000
     25      -3.8098      2.00000
     26      -3.7904      2.00000
     27      -3.7807      2.00000
     28      -3.7109      2.00000
     29      -3.6856      2.00000
     30      -3.6784      2.00000
     31      -3.6609      2.00000
     32      -3.6421      2.00000
     33       4.4515      0.00000
     34       4.4714      0.00000
     35       4.6052      0.00000
     36       4.6219      0.00000
     37       5.1051      0.00000
     38       5.2097      0.00000
     39       5.2667      0.00000
     40       5.4538      0.00000

 k-point    11 :       0.4000    0.4000    0.4000
  band No.  band energies     occupation 
      1     -23.6847      2.00000
      2     -23.6640      2.00000
      3     -23.6638      2.00000
      4     -23.6637      2.00000
      5     -22.7057      2.00000
      6     -22.7057      2.00000
      7     -22.7045      2.00000
      8     -22.7008      2.00000
      9      -8.6516      2.00000
     10      -8.5919      2.00000
     11      -8.5919      2.00000
     12      -8.5836      2.00000
     13      -8.0657      2.00000
     14      -8.0656      2.00000
     15      -8.0217      2.00000
     16      -7.9351      2.00000
     17      -7.0328      2.00000
     18      -7.0042      2.00000
     19      -7.0042      2.00000
     20      -6.9848      2.00000
     21      -6.9454      2.00000
     22      -6.9454      2.00000
     23      -6.8938      2.00000
     24      -6.8938      2.00000
     25      -3.7636      2.00000
     26      -3.7636      2.00000
     27      -3.7635      2.00000
     28      -3.7170      2.00000
     29      -3.7170      2.00000
     30      -3.7092      2.00000
     31      -3.6978      2.00000
     32      -3.6978      2.00000
     33       4.4767      0.00000
     34       4.4818      0.00000
     35       4.5707      0.00000
     36       4.6030      0.00000
     37       5.3057      0.00000
     38       5.3568      0.00000
     39       5.3928      0.00000
     40       5.5058      0.00000


--------------------------------------------------------------------------------------------------------


 soft charge-density along one line, spin component           1
         0         1         2         3         4         5         6         7         8         9
 total charge-density along one line

 pseudopotential strength for first ion, spin component:           1
 12.684  21.345  -0.000  -0.000  -0.000  -0.000  -0.000  -0.000
 21.345  35.919  -0.000  -0.000  -0.000  -0.000  -0.000  -0.000
 -0.000  -0.000  -3.241   0.003   0.003  -5.809   0.006   0.006
 -0.000  -0.000   0.003  -3.241   0.003   0.006  -5.809   0.006
 -0.000  -0.000   0.003   0.003  -3.241   0.006   0.006  -5.809
 -0.000  -0.000  -5.809   0.006   0.006 -10.390   0.010   0.010
 -0.000  -0.000   0.006  -5.809   0.006   0.010 -10.390   0.010
 -0.000  -0.000   0.006   0.006  -5.809   0.010   0.010 -10.390
 total augmentation occupancy for first ion, spin component:           1
  9.381  -3.666   0.000   0.000   0.000   0.000   0.000   0.000
 -3.666   1.586   0.000   0.000   0.000   0.000   0.000   0.000
  0.000   0.000   6.882   3.858   3.858  -2.438  -1.672  -1.672
  0.000   0.000   3.858   6.882   3.858  -1.672  -2.438  -1.672
  0.000   0.000   3.858   3.858   6.882  -1.672  -1.672  -2.438
  0.000   0.000  -2.438  -1.672  -1.672   0.912   0.718   0.718
  0.000   0.000  -1.672  -2.438  -1.672   0.718   0.912   0.718
  0.000   0.000  -1.672  -1.672  -2.438   0.718   0.718   0.912


------------------------ aborting loop because EDIFF is reached ----------------------------------------


    FORLOC:  cpu time      0.0029: real time      0.0029
    FORNL :  cpu time      0.0344: real time      0.0345
    FORCOR:  cpu time      0.6973: real time      0.6976
    OFIELD:  cpu time      0.0023: real time      0.0025

 VOLUME and BASIS-vectors are now :
 -----------------------------------------------------------------------------
  energy-cutoff  :     1000.00
  volume of cell :      177.88
      direct lattice vectors                 reciprocal lattice vectors
     5.624000000  0.000000000  0.000000000     0.177809388  0.000000000  0.000000000
     0.000000000  5.624000000  0.000000000     0.000000000  0.177809388  0.000000000
     0.000000000  0.000000000  5.624000000     0.000000000  0.000000000  0.177809388

  length of vectors
     5.624000000  5.624000000  5.624000000     0.177809388  0.177809388  0.177809388


 FORCES acting on ions:
    Electron-Ion                     Ewald-Force                    Non-Local-Force
 -----------------------------------------------------------------------------------------------
   -.153E-04 -.578E-05 0.239E-04   -.396E-04 -.449E-04 -.460E-04   0.210E-21 0.915E-22 0.796E-23
   0.752E-05 0.319E-04 0.363E-04   -.655E-05 -.202E-04 0.511E-05   -.622E-22 -.224E-21 -.108E-21
   0.152E-04 0.450E-04 0.282E-04   -.152E-04 0.645E-05 -.691E-05   -.623E-22 0.229E-21 -.488E-22
   0.259E-04 0.104E-04 0.127E-04   0.118E-04 -.979E-05 -.197E-04   0.134E-22 -.131E-21 0.390E-21
   -.107E+03 -.107E+03 -.107E+03   0.141E+03 0.141E+03 0.141E+03   -.351E+02 -.351E+02 -.351E+02
   0.107E+03 0.107E+03 0.107E+03   -.141E+03 -.141E+03 -.141E+03   0.351E+02 0.351E+02 0.351E+02
   0.107E+03 0.107E+03 -.107E+03   -.141E+03 -.141E+03 0.141E+03   0.351E+02 0.351E+02 -.351E+02
   -.107E+03 -.107E+03 0.107E+03   0.141E+03 0.141E+03 -.141E+03   -.351E+02 -.351E+02 0.351E+02
   0.107E+03 -.107E+03 0.107E+03   -.141E+03 0.141E+03 -.141E+03   0.351E+02 -.351E+02 0.351E+02
   -.107E+03 0.107E+03 -.107E+03   0.141E+03 -.141E+03 0.141E+03   -.351E+02 0.351E+02 -.351E+02
   -.107E+03 0.107E+03 0.107E+03   0.141E+03 -.141E+03 -.141E+03   -.351E+02 0.351E+02 0.351E+02
   0.107E+03 -.107E+03 -.107E+03   -.141E+03 0.141E+03 0.141E+03   0.351E+02 -.351E+02 -.351E+02
 -----------------------------------------------------------------------------------------------
   0.365E-03 0.555E-03 0.741E-03   0.284E-13 0.853E-13 -.568E-13   0.711E-14 -.142E-13 0.000E+00


 POSITION                                       TOTAL-FORCE (eV/Angst)
 -----------------------------------------------------------------------------------
      0.33737      0.33737      0.33737        -0.000000     -0.000000     -0.000000
      3.14937      0.33737      3.14937        -0.000000     -0.000000     -0.000000
      0.33737      3.14937      3.14937        -0.000000     -0.000000     -0.000000
      3.14937      3.14937      0.33737        -0.000000      0.000000     -0.000000
      1.01211      1.01211      1.01211        -0.017491     -0.017491     -0.017491
      5.28663      5.28663      5.28663         0.017491      0.017491      0.017491
      2.47463      5.28663      3.82411         0.017491      0.017491     -0.017491
      3.82411      1.01211      2.47463        -0.017491     -0.017491      0.017491
      5.28663      3.82411      2.47463         0.017491     -0.017491      0.017491
      1.01211      2.47463      3.82411        -0.017491      0.017491     -0.017491
      3.82411      2.47463      5.28663        -0.017491      0.017491      0.017491
      2.47463      3.82411      1.01211         0.017491     -0.017491     -0.017491
 -----------------------------------------------------------------------------------
    total drift:                                0.000365      0.000555      0.000741


--------------------------------------------------------------------------------------------------------



  FREE ENERGIE OF THE ION-ELECTRON SYSTEM (eV)
  ---------------------------------------------------
  free  energy   TOTEN  =       -73.96995201 eV

  energy  without entropy=      -73.96995201  energy(sigma->0) =      -73.96995201



--------------------------------------------------------------------------------------------------------


    POTLOK:  cpu time      0.6385: real time      2.5352


--------------------------------------------------------------------------------------------------------


 stress matrix after NEB project (eV)
      0.00000      0.00000      0.00000
      0.00000      0.00000      0.00000
      0.00000      0.00000      0.00000
  FORCES: max atom, RMS     0.030296    0.024737
  FORCE total and by dimension    0.085690    0.017491
  Stress total and by dimension    0.000000    0.000000
     LOOP+:  cpu time     40.1887: real time     42.4079
    4ORBIT:  cpu time      0.0000: real time      0.0000

 total amount of memory used by VASP MPI-rank0    34643. kBytes
=======================================================================

   base      :      30000. kBytes
   nonl-proj :        640. kBytes
   fftplans  :        741. kBytes
   grid      :       1105. kBytes
   one-center:          3. kBytes
   wavefun   :       2154. kBytes

  
  
 General timing and accounting informations for this job:
 ========================================================
  
                  Total CPU time used (sec):       48.352
                            User time (sec):       46.076
                          System time (sec):        2.276
                         Elapsed time (sec):       54.165
  
                   Maximum memory used (kb):      283288.
                   Average memory used (kb):          N/A
  
                          Minor page faults:       132733
                          Major page faults:          518
                 Voluntary context switches:         3789
