 vasp.6.4.1 05Apr23 (build Jun  6 2023 14:36:51) complex                         
 executed on        HPECrayEX_GCC date 2024.08.20  16:53:13
 running  128 mpi-ranks, with    1 threads/rank, on    1 nodes
 distrk:  each k-point on   64 cores,    2 groups
 distr:  one band on NCORE=  32 cores,    2 groups


--------------------------------------------------------------------------------------------------------


 INCAR:
   ALGO = Conjugate
   KPAR = 2
   NCORE = 32
   ISMEAR = 0
   SIGMA = 0.01
   PREC = Accurate
   EDIFF = 1E-7
   ENCUT = 1000
   ISIF = 0
   METAGGA = RSCAN
   LASPH = .TRUE.
   SYMPREC = 1E-7
   LWAVE = .FALSE.
   LCHARG = .FALSE.
   LWAVE = .FALSE.
   LCHARGE = .FALSE.

 POTCAR:    PAW_PBE C_h 06Feb2004                 
 POTCAR:    PAW_PBE O_h 06Feb2004                 
 POTCAR:    PAW_PBE C_h 06Feb2004                 
   VRHFIN =C: s2p2                                                                                  
   LEXCH  = PE                                                                                      
   EATOM  =   147.1560 eV,   10.8157 Ry                                                             
                                                                                                    
   TITEL  = PAW_PBE C_h 06Feb2004                                                                   
   LULTRA =        F    use ultrasoft PP ?                                                          
   IUNSCR =        1    unscreen: 0-lin 1-nonlin 2-no                                               
   RPACOR =    0.800    partial core radius                                                         
   POMASS =   12.011; ZVAL   =    4.000    mass and valenz                                          
   RCORE  =    1.100    outmost cutoff radius                                                       
   RWIGS  =    1.630; RWIGS  =    0.863    wigner-seitz radius (au A)                               
   ENMAX  =  700.000; ENMIN  =  500.000 eV                                                          
   ICORE  =        2    local potential                                                             
   LCOR   =        T    correct aug charges                                                         
   LPAW   =        T    paw PP                                                                      
   EAUG   =  946.768                                                                                
   DEXC   =    0.000                                                                                
   RMAX   =    1.128    core radius for proj-oper                                                   
   RAUG   =    1.300    factor for augmentation sphere                                              
   RDEP   =    1.162    radius for radial grids                                                     
   RDEPT  =    1.088    core radius for aug-charge                                                  
                                                                                                    
   Atomic configuration                                                                             
    4 entries                                                                                       
     n  l   j            E        occ.                                                              
     1  0  0.50      -273.3789   2.0000                                                             
     2  0  0.50       -13.7508   2.0000                                                             
     2  1  0.50        -5.2854   2.0000                                                             
     3  2  1.50        -5.4423   0.0000                                                             
   Description                                                                                      
     l       E           TYP  RCUT    TYP  RCUT                                                     
     0    -13.7508458     23  1.100                                                                 
     0     -8.2022199     23  1.100                                                                 
     1     -5.2854383     23  1.100                                                                 
     1      1.1560700     23  1.100                                                                 
     2     -5.4423304      7  1.100                                                                 
  local pseudopotential read in
  partial core-charges read in
  partial kinetic energy density read in
  atomic valenz-charges read in
  non local Contribution for L=           0  read in
    real space projection operators read in
  non local Contribution for L=           0  read in
    real space projection operators read in
  non local Contribution for L=           1  read in
    real space projection operators read in
  non local Contribution for L=           1  read in
    real space projection operators read in
    PAW grid and wavefunctions read in

   number of l-projection  operators is LMAX  =           4
   number of lm-projection operators is LMMAX =           8

 POTCAR:    PAW_PBE O_h 06Feb2004                 
   VRHFIN =O: s2p4                                                                                  
   LEXCH  = PE                                                                                      
   EATOM  =   432.3788 eV,   31.7789 Ry                                                             
                                                                                                    
   TITEL  = PAW_PBE O_h 06Feb2004                                                                   
   LULTRA =        F    use ultrasoft PP ?                                                          
   IUNSCR =        1    unscreen: 0-lin 1-nonlin 2-no                                               
   RPACOR =    0.800    partial core radius                                                         
   POMASS =   16.000; ZVAL   =    6.000    mass and valenz                                          
   RCORE  =    1.100    outmost cutoff radius                                                       
   RWIGS  =    1.400; RWIGS  =    0.741    wigner-seitz radius (au A)                               
   ENMAX  =  700.000; ENMIN  =  500.000 eV                                                          
   ICORE  =        2    local potential                                                             
   LCOR   =        T    correct aug charges                                                         
   LPAW   =        T    paw PP                                                                      
   EAUG   =  888.804                                                                                
   DEXC   =    0.000                                                                                
   RMAX   =    1.128    core radius for proj-oper                                                   
   RAUG   =    1.300    factor for augmentation sphere                                              
   RDEP   =    1.125    radius for radial grids                                                     
   RDEPT  =    1.088    core radius for aug-charge                                                  
                                                                                                    
   Atomic configuration                                                                             
    4 entries                                                                                       
     n  l   j            E        occ.                                                              
     1  0  0.50      -514.6923   2.0000                                                             
     2  0  0.50       -23.9615   2.0000                                                             
     2  1  0.50        -9.0305   4.0000                                                             
     3  2  1.50        -9.5241   0.0000                                                             
   Description                                                                                      
     l       E           TYP  RCUT    TYP  RCUT                                                     
     0    -23.9615319     23  1.100                                                                 
     0    -25.3221145     23  1.100                                                                 
     1     -9.0304911     23  1.100                                                                 
     1     -5.4802209     23  1.100                                                                 
     2     -9.5240782      7  1.100                                                                 
  local pseudopotential read in
  partial core-charges read in
  partial kinetic energy density read in
  atomic valenz-charges read in
  non local Contribution for L=           0  read in
    real space projection operators read in
  non local Contribution for L=           0  read in
    real space projection operators read in
  non local Contribution for L=           1  read in
    real space projection operators read in
  non local Contribution for L=           1  read in
    real space projection operators read in
    PAW grid and wavefunctions read in

   number of l-projection  operators is LMAX  =           4
   number of lm-projection operators is LMMAX =           8

  PAW_PBE C_h 06Feb2004                 :
 energy of atom  1       EATOM= -147.1560
 kinetic energy error for atom=    0.0031 (will be added to EATOM!!)
  PAW_PBE O_h 06Feb2004                 :
 energy of atom  2       EATOM= -432.3788
 kinetic energy error for atom=    0.0171 (will be added to EATOM!!)


 POSCAR:  C  O
  positions in cartesian coordinates
  No initial velocities read in

 METAGGA = RSCAN                                       LMAXTAU =  6    LMIXTAU =  F

 exchange correlation table for  LEXCH =        8
   RHO(1)=    0.500       N(1)  =     2000
   RHO(2)=  100.500       N(2)  =     4000

 VTST: version 4.1, (05/19/21)

 CHAIN: initializing optimizer
 
 OPT: Using VASP Dynamics algorithm
 CHAIN: Read ICHAIN            0

 POSCAR:  C  O
  positions in cartesian coordinates
  No initial velocities read in



--------------------------------------------------------------------------------------------------------


 ion  position               nearest neighbor table
   1  0.060  0.060  0.060-   5 1.17   6 1.17
   2  0.560  0.060  0.560-   8 1.17   7 1.17
   3  0.060  0.560  0.560-  10 1.17   9 1.17
   4  0.560  0.560  0.060-  12 1.17  11 1.17
   5  0.180  0.180  0.180-   1 1.17
   6  0.940  0.940  0.940-   1 1.17
   7  0.440  0.940  0.680-   2 1.17
   8  0.680  0.180  0.440-   2 1.17
   9  0.940  0.680  0.440-   3 1.17
  10  0.180  0.440  0.680-   3 1.17
  11  0.680  0.440  0.940-   4 1.17
  12  0.440  0.680  0.180-   4 1.17

  LATTYP: Found a simple cubic cell.
 ALAT       =     5.6240000000
  
  Lattice vectors:
  
 A1 = (   5.6240000000,   0.0000000000,   0.0000000000)
 A2 = (   0.0000000000,   5.6240000000,   0.0000000000)
 A3 = (   0.0000000000,   0.0000000000,   5.6240000000)


Analysis of symmetry for initial positions (statically):
=====================================================================
 Subroutine PRICEL returns:
 Original cell was already a primitive cell.
 

 Routine SETGRP: Setting up the symmetry group for a 
 simple cubic supercell.


 Subroutine GETGRP returns: Found 24 space group operations
 (whereof  3 operations were pure point group operations)
 out of a pool of 48 trial point group operations.


The static configuration has the point symmetry C_3 .
 The point group associated with its full space group is T_h .


Analysis of symmetry for dynamics (positions and initial velocities):
=====================================================================
 Subroutine PRICEL returns:
 Original cell was already a primitive cell.
 

 Routine SETGRP: Setting up the symmetry group for a 
 simple cubic supercell.


 Subroutine GETGRP returns: Found 24 space group operations
 (whereof  3 operations were pure point group operations)
 out of a pool of 48 trial point group operations.


The dynamic configuration has the point symmetry C_3 .
 The point group associated with its full space group is T_h .


 Subroutine INISYM returns: Found 24 space group operations
 (whereof  3 operations are pure point group operations),
 and found     1 'primitive' translations


----------------------------------------------------------------------------------------

                                     Primitive cell                                     

  volume of cell :     177.8836

  direct lattice vectors                    reciprocal lattice vectors
     5.624000000  0.000000000  0.000000000     0.177809388  0.000000000  0.000000000
     0.000000000  5.624000000  0.000000000     0.000000000  0.177809388  0.000000000
     0.000000000  0.000000000  5.624000000     0.000000000  0.000000000  0.177809388

  length of vectors
     5.624000000  5.624000000  5.624000000     0.177809388  0.177809388  0.177809388

  position of ions in fractional coordinates (direct lattice)
     0.059987786  0.059987776  0.059987775
     0.559987778  0.059987768  0.559987763
     0.059987778  0.559987765  0.559987768
     0.559987773  0.559987770  0.059987770
     0.179963330  0.179963313  0.179963318
     0.940012222  0.940012223  0.940012218
     0.440012229  0.940012232  0.679963321
     0.679963320  0.179963309  0.440012217
     0.940012202  0.679963342  0.440012187
     0.179963354  0.440012195  0.679963346
     0.679963307  0.440012225  0.940012230
     0.440012246  0.679963308  0.179963311

  ion indices of the primitive-cell ions
   primitive index   ion index
                 1           1
                 2           2
                 3           3
                 4           4
                 5           5
                 6           6
                 7           7
                 8           8
                 9           9
                10          10
                11          11
                12          12

----------------------------------------------------------------------------------------



 KPOINTS: auto                                    

Automatic generation of k-mesh.
 Grid dimensions read from file:
 generate k-points for:    5    5    5

 Generating k-lattice:

  Cartesian coordinates                     Fractional coordinates (reciprocal lattice)
     0.035561878  0.000000000  0.000000000     0.200000000  0.000000000  0.000000000
     0.000000000  0.035561878  0.000000000     0.000000000  0.200000000  0.000000000
     0.000000000  0.000000000  0.035561878     0.000000000  0.000000000  0.200000000

  Length of vectors
     0.035561878  0.035561878  0.035561878

  Shift w.r.t. Gamma in fractional coordinates (k-lattice)
     0.000000000  0.000000000  0.000000000

 
 Subroutine IBZKPT returns following result:
 ===========================================
 
 Found     11 irreducible k-points:
 
 Following reciprocal coordinates:
            Coordinates               Weight
  0.000000  0.000000  0.000000      1.000000
  0.200000  0.000000  0.000000      6.000000
  0.400000  0.000000  0.000000      6.000000
  0.200000  0.200000  0.000000     12.000000
  0.400000  0.200000  0.000000     12.000000
 -0.200000  0.400000  0.000000     12.000000
  0.400000  0.400000  0.000000     12.000000
  0.200000  0.200000  0.200000      8.000000
  0.400000  0.200000  0.200000     24.000000
  0.400000  0.400000  0.200000     24.000000
  0.400000  0.400000  0.400000      8.000000
 
 Following cartesian coordinates:
            Coordinates               Weight
  0.000000  0.000000  0.000000      1.000000
  0.035562  0.000000  0.000000      6.000000
  0.071124  0.000000  0.000000      6.000000
  0.035562  0.035562  0.000000     12.000000
  0.071124  0.035562  0.000000     12.000000
 -0.035562  0.071124  0.000000     12.000000
  0.071124  0.071124  0.000000     12.000000
  0.035562  0.035562  0.035562      8.000000
  0.071124  0.035562  0.035562     24.000000
  0.071124  0.071124  0.035562     24.000000
  0.071124  0.071124  0.071124      8.000000
 


--------------------------------------------------------------------------------------------------------




 Dimension of arrays:
   k-points           NKPTS =     11   k-points in BZ     NKDIM =     11   number of bands    NBANDS=     40
   number of dos      NEDOS =    301   number of ions     NIONS =     12
   non local maximal  LDIM  =      4   non local SUM 2l+1 LMDIM =      8
   total plane-waves  NPLWV = 216000
   max r-space proj   IRMAX =      1   max aug-charges    IRDMAX=   9054
   dimension x,y,z NGX =    60 NGY =   60 NGZ =   60
   dimension x,y,z NGXF=   120 NGYF=  120 NGZF=  120
   support grid    NGXF=   120 NGYF=  120 NGZF=  120
   ions per type =               4   8
   NGX,Y,Z   is equivalent  to a cutoff of  17.74, 17.74, 17.74 a.u.
   NGXF,Y,Z  is equivalent  to a cutoff of  35.47, 35.47, 35.47 a.u.

 SYSTEM =  unknown system                          
 POSCAR =   C  O                                   

 Startparameter for this run:
   NWRITE =      2    write-flag & timer
   PREC   = accura    normal or accurate (medium, high low for compatibility)
   ISTART =      0    job   : 0-new  1-cont  2-samecut
   ICHARG =      2    charge: 1-file 2-atom 10-const
   ISPIN  =      1    spin polarized calculation?
   LNONCOLLINEAR =      F non collinear calculations
   LSORBIT =      F    spin-orbit coupling
   INIWAV =      1    electr: 0-lowe 1-rand  2-diag
   LASPH  =      T    aspherical Exc in radial PAW
 Electronic Relaxation 1
   ENCUT  = 1000.0 eV  73.50 Ry    8.57 a.u.  14.50 14.50 14.50*2*pi/ulx,y,z
   ENINI  = 1000.0     initial cutoff
   ENAUG  =  946.8 eV  augmentation charge cutoff
   NELM   =     60;   NELMIN=  2; NELMDL= -5     # of ELM steps 
   EDIFF  = 0.1E-06   stopping-criterion for ELM
   LREAL  =      F    real-space projection
   NLSPLINE    = F    spline interpolate recip. space projectors
   LCOMPAT=      F    compatible to vasp.4.4
   GGA_COMPAT  = T    GGA compatible to vasp.4.4-vasp.4.6
   LMAXPAW     = -100 max onsite density
   LMAXMIX     =    2 max onsite mixed and CHGCAR
   VOSKOWN=      0    Vosko Wilk Nusair interpolation
   ROPT   =    0.00000   0.00000
 Ionic relaxation
   EDIFFG = 0.1E-05   stopping-criterion for IOM
   NSW    =      0    number of steps for IOM
   NBLOCK =      1;   KBLOCK =      1    inner block; outer block 
   IBRION =     -1    ionic relax: 0-MD 1-quasi-New 2-CG
   NFREE  =      0    steps in history (QN), initial steepest desc. (CG)
   ISIF   =      0    stress and relaxation
   IWAVPR =     10    prediction:  0-non 1-charg 2-wave 3-comb
   ISYM   =      2    0-nonsym 1-usesym 2-fastsym
   LCORR  =      T    Harris-Foulkes like correction to forces

   POTIM  = 0.5000    time-step for ionic-motion
   TEIN   =    0.0    initial temperature
   TEBEG  =    0.0;   TEEND  =   0.0 temperature during run
   SMASS  =  -3.00    Nose mass-parameter (am)
   estimated Nose-frequenzy (Omega)   =  0.10E-29 period in steps = 0.13E+47 mass=  -0.723E-27a.u.
   SCALEE = 1.0000    scale energy and forces
   NPACO  =    256;   APACO  = 10.0  distance and # of slots for P.C.
   PSTRESS=    0.0 pullay stress

  Mass of Ions in am
   POMASS =  12.01 16.00
  Ionic Valenz
   ZVAL   =   4.00  6.00
  Atomic Wigner-Seitz radii
   RWIGS  =  -1.00 -1.00
  virtual crystal weights 
   VCA    =   1.00  1.00
   NELECT =      64.0000    total number of electrons
   NUPDOWN=      -1.0000    fix difference up-down

 DOS related values:
   EMIN   =  10.00;   EMAX   =-10.00  energy-range for DOS
   EFERMI =   0.00;   METHOD = LEGACY      
   ISMEAR =     0;   SIGMA  =   0.01  broadening in eV -4-tet -1-fermi 0-gaus

 Electronic relaxation 2 (details)
   IALGO  =     58    algorithm
   LDIAG  =      T    sub-space diagonalisation (order eigenvalues)
   LSUBROT=      F    optimize rotation matrix (better conditioning)
   TURBO    =      0    0=normal 1=particle mesh
   IRESTART =      0    0=no restart 2=restart with 2 vectors
   NREBOOT  =      0    no. of reboots
   NMIN     =      0    reboot dimension
   EREF     =   0.00    reference energy to select bands
   IMIX   =      4    mixing-type and parameters
     AMIX     =   0.40;   BMIX     =  1.00
     AMIX_MAG =   1.60;   BMIX_MAG =  1.00
     AMIN     =   0.10
     WC   =   100.;   INIMIX=   1;  MIXPRE=   1;  MAXMIX= -45

 Intra band minimization:
   WEIMIN = 0.0000     energy-eigenvalue tresh-hold
   EBREAK =  0.63E-09  absolut break condition
   DEPER  =   0.30     relativ break condition  

   TIME   =   0.40     timestep for ELM

  volume/ion in A,a.u.               =      14.82       100.03
  Fermi-wavevector in a.u.,A,eV,Ry     =   1.164366  2.200333 18.446073  1.355748
  Thomas-Fermi vector in A             =   2.300905

 Write flags
   LWAVE        =      F    write WAVECAR
   LDOWNSAMPLE  =      F    k-point downsampling of WAVECAR
   LCHARG       =      F    write CHGCAR
   LVTOT        =      F    write LOCPOT, total local potential
   LVHAR        =      F    write LOCPOT, Hartree potential only
   LELF         =      F    write electronic localiz. function (ELF)
   LORBIT       =      0    0 simple, 1 ext, 2 COOP (PROOUT), +10 PAW based schemes


 Dipole corrections
   LMONO  =      F    monopole corrections only (constant potential shift)
   LDIPOL =      F    correct potential (dipole corrections)
   IDIPOL =      0    1-x, 2-y, 3-z, 4-all directions 
   EPSILON=  1.0000000 bulk dielectric constant

 Exchange correlation treatment:
   GGA     =    --    GGA type
   LEXCH   =     8    internal setting for exchange type
   LIBXC   =     F    Libxc                    
   VOSKOWN =     0    Vosko Wilk Nusair interpolation
   LHFCALC =     F    Hartree Fock is set to
   LHFONE  =     F    Hartree Fock one center treatment
   AEXX    =    0.0000 exact exchange contribution

 Linear response parameters
   LEPSILON=     F    determine dielectric tensor
   LRPA    =     F    only Hartree local field effects (RPA)
   LNABLA  =     F    use nabla operator in PAW spheres
   LVEL    =     F    velocity operator in full k-point grid
   CSHIFT  =0.1000    complex shift for real part using Kramers Kronig
   OMEGAMAX=  -1.0    maximum frequency
   DEG_THRESHOLD= 0.2000000E-02 threshold for treating states as degnerate
   RTIME   =   -0.100 relaxation time in fs
  (WPLASMAI=    0.000 imaginary part of plasma frequency in eV, 0.658/RTIME)
   DFIELD  = 0.0000000 0.0000000 0.0000000 field for delta impulse in time

  Optional k-point grid parameters
   LKPOINTS_OPT  =     F    use optional k-point grid
   KPOINTS_OPT_MODE=     1    mode for optional k-point grid

 Orbital magnetization related:
   ORBITALMAG=     F  switch on orbital magnetization
   LCHIMAG   =     F  perturbation theory with respect to B field
   DQ        =  0.001000  dq finite difference perturbation B field
   LLRAUG    =     F  two centre corrections for induced B field
   LBONE     =     F  B-component reconstruction in AE one-centre
   LVGVCALC  =     T  calculate vGv susceptibility
   LVGVAPPL  =     F  apply vGv susceptibility instead of pGv for G=0

 Random number generation:
   RANDOM_GENERATOR = DEFAULT
   PCG_SEED         = not used


--------------------------------------------------------------------------------------------------------


 Static calculation
 charge density and potential will be updated during run
 non-spin polarized calculation
 Conjugate gradient for all bands (Freysoldt, et al. PRB 79, 241103 (2009))
 preconditioned conjugated gradient                                        
 perform sub-space diagonalisation
    before iterative eigenvector-optimisation
 modified Broyden-mixing scheme, WC =      100.0
 initial mixing is a Kerker type mixing with AMIX =  0.4000 and BMIX =      1.0000
 Hartree-type preconditioning will be used
 using additional bands            8
 reciprocal scheme for non local part
 use partial core corrections
 no Harris-corrections to forces 
 use gradient corrections 
 use of overlap-Matrix (Vanderbilt PP)
 Gauss-broadening in eV      SIGMA  =   0.01


--------------------------------------------------------------------------------------------------------


  energy-cutoff  :     1000.00
  volume of cell :      177.88
      direct lattice vectors                 reciprocal lattice vectors
     5.624000000  0.000000000  0.000000000     0.177809388  0.000000000  0.000000000
     0.000000000  5.624000000  0.000000000     0.000000000  0.177809388  0.000000000
     0.000000000  0.000000000  5.624000000     0.000000000  0.000000000  0.177809388

  length of vectors
     5.624000000  5.624000000  5.624000000     0.177809388  0.177809388  0.177809388



 k-points in units of 2pi/SCALE and weight: auto                                    
   0.00000000  0.00000000  0.00000000       0.008
   0.03556188  0.00000000  0.00000000       0.048
   0.07112376  0.00000000  0.00000000       0.048
   0.03556188  0.03556188  0.00000000       0.096
   0.07112376  0.03556188  0.00000000       0.096
  -0.03556188  0.07112376  0.00000000       0.096
   0.07112376  0.07112376  0.00000000       0.096
   0.03556188  0.03556188  0.03556188       0.064
   0.07112376  0.03556188  0.03556188       0.192
   0.07112376  0.07112376  0.03556188       0.192
   0.07112376  0.07112376  0.07112376       0.064

 k-points in reciprocal lattice and weights: auto                                    
   0.00000000  0.00000000  0.00000000       0.008
   0.20000000  0.00000000  0.00000000       0.048
   0.40000000  0.00000000  0.00000000       0.048
   0.20000000  0.20000000  0.00000000       0.096
   0.40000000  0.20000000  0.00000000       0.096
  -0.20000000  0.40000000  0.00000000       0.096
   0.40000000  0.40000000  0.00000000       0.096
   0.20000000  0.20000000  0.20000000       0.064
   0.40000000  0.20000000  0.20000000       0.192
   0.40000000  0.40000000  0.20000000       0.192
   0.40000000  0.40000000  0.40000000       0.064

 position of ions in fractional coordinates (direct lattice) 
   0.05998779  0.05998778  0.05998778
   0.55998778  0.05998777  0.55998776
   0.05998778  0.55998777  0.55998777
   0.55998777  0.55998777  0.05998777
   0.17996333  0.17996331  0.17996332
   0.94001222  0.94001222  0.94001222
   0.44001223  0.94001223  0.67996332
   0.67996332  0.17996331  0.44001222
   0.94001220  0.67996334  0.44001219
   0.17996335  0.44001220  0.67996335
   0.67996331  0.44001223  0.94001223
   0.44001225  0.67996331  0.17996331

 position of ions in cartesian coordinates  (Angst):
   0.33737131  0.33737125  0.33737125
   3.14937126  0.33737121  3.14937118
   0.33737126  3.14937119  3.14937121
   3.14937123  3.14937122  0.33737122
   1.01211377  1.01211367  1.01211370
   5.28662874  5.28662874  5.28662871
   2.47462878  5.28662879  3.82411372
   3.82411371  1.01211365  2.47462871
   5.28662862  3.82411384  2.47462854
   1.01211391  2.47462859  3.82411386
   3.82411364  2.47462875  5.28662878
   2.47462887  3.82411364  1.01211366



--------------------------------------------------------------------------------------------------------


 k-point   1 :   0.0000 0.0000 0.0000  plane waves:   12893
 k-point   2 :   0.2000 0.0000 0.0000  plane waves:   12817
 k-point   3 :   0.4000 0.0000 0.0000  plane waves:   12773
 k-point   4 :   0.2000 0.2000 0.0000  plane waves:   12779
 k-point   5 :   0.4000 0.2000 0.0000  plane waves:   12768
 k-point   6 :  -0.2000 0.4000 0.0000  plane waves:   12768
 k-point   7 :   0.4000 0.4000 0.0000  plane waves:   12758
 k-point   8 :   0.2000 0.2000 0.2000  plane waves:   12782
 k-point   9 :   0.4000 0.2000 0.2000  plane waves:   12778
 k-point  10 :   0.4000 0.4000 0.2000  plane waves:   12779
 k-point  11 :   0.4000 0.4000 0.4000  plane waves:   12769

 maximum and minimum number of plane-waves per node :       416      382

 maximum number of plane-waves:     12893
 maximum index in each direction: 
   IXMAX=   14   IYMAX=   14   IZMAX=   14
   IXMIN=  -14   IYMIN=  -14   IZMIN=  -14


 parallel 3D FFT for wavefunctions:
    minimum data exchange during FFTs selected (reduces bandwidth)
 parallel 3D FFT for charge:
    minimum data exchange during FFTs selected (reduces bandwidth)


 total amount of memory used by VASP MPI-rank0    38528. kBytes
=======================================================================

   base      :      30000. kBytes
   nonl-proj :        640. kBytes
   fftplans  :       1192. kBytes
   grid      :       2385. kBytes
   one-center:          3. kBytes
   wavefun   :       4308. kBytes

     INWAV:  cpu time      0.0001: real time      0.0002
 Broyden mixing: mesh for mixing (old mesh)
   NGX = 29   NGY = 29   NGZ = 29
  (NGX  =120   NGY  =120   NGZ  =120)
  gives a total of  24389 points

 initial charge density was supplied:
 charge density of overlapping atoms calculated
 number of electron      64.0000000 magnetization 
 keeping initial charge density in first step


--------------------------------------------------------------------------------------------------------


 Maximum index for augmentation-charges          443 (set IRDMAX)


--------------------------------------------------------------------------------------------------------


 First call to EWALD:  gamma=   0.315
 Maximum number of real-space cells 3x 3x 3
 Maximum number of reciprocal cells 3x 3x 3

    FEWALD:  cpu time      0.0016: real time      0.0016


--------------------------------------- Ionic step        1  -------------------------------------------




--------------------------------------- Iteration      1(   1)  ---------------------------------------


    POTLOK:  cpu time      0.0729: real time      0.0731
    SETDIJ:  cpu time      0.2397: real time      0.2403
    TRIAL :  cpu time      0.6918: real time      0.6982
    CORREC:  cpu time      0.0013: real time      0.0013
    --------------------------------------------
      LOOP:  cpu time      1.0083: real time      1.0833

 eigenvalue-minimisations  :   880
 total energy-change (2. order) : 0.6902117E+03  (-0.4942919E+04)
 number of electron      64.0000000 magnetization 
 augmentation part       64.0000000 magnetization 

 Free energy of the ion-electron system (eV)
  ---------------------------------------------------
  alpha Z        PSCENC =        64.50308324
  Ewald energy   TEWEN  =     -2171.10254707
  -Hartree energ DENC   =     -1496.95817215
  -exchange      EXHF   =         0.00000000
  -V(xc)+E(xc)   XCENC  =       296.08837487
  PAW double counting   =      3168.80585223    -3188.14705466
  entropy T*S    EENTRO =        -0.00073054
  eigenvalues    EBANDS =       -30.48278115
  atomic energy  EATOM  =      4047.50565470
  ---------------------------------------------------
  free energy    TOTEN  =       690.21167948 eV

  energy without entropy =      690.21241002  energy(sigma->0) =      690.21204475


--------------------------------------------------------------------------------------------------------




--------------------------------------- Iteration      1(   2)  ---------------------------------------


    TRIAL :  cpu time      0.7671: real time      0.7673
    CORREC:  cpu time      0.0001: real time      0.0001
    --------------------------------------------
      LOOP:  cpu time      0.7800: real time      0.7987

 eigenvalue-minimisations  :  1280
 total energy-change (2. order) :-0.7207364E+03  (-0.6979816E+03)
 number of electron      64.0000000 magnetization 
 augmentation part       64.0000000 magnetization 

 Free energy of the ion-electron system (eV)
  ---------------------------------------------------
  alpha Z        PSCENC =        64.50308324
  Ewald energy   TEWEN  =     -2171.10254707
  -Hartree energ DENC   =     -1496.95817215
  -exchange      EXHF   =         0.00000000
  -V(xc)+E(xc)   XCENC  =       296.08837487
  PAW double counting   =      3168.80585223    -3188.14705466
  entropy T*S    EENTRO =        -0.00000000
  eigenvalues    EBANDS =      -751.21990844
  atomic energy  EATOM  =      4047.50565470
  ---------------------------------------------------
  free energy    TOTEN  =       -30.52471728 eV

  energy without entropy =      -30.52471728  energy(sigma->0) =      -30.52471728


--------------------------------------------------------------------------------------------------------




--------------------------------------- Iteration      1(   3)  ---------------------------------------


    TRIAL :  cpu time      0.6700: real time      0.6703
    CORREC:  cpu time      0.0001: real time      0.0001
    --------------------------------------------
      LOOP:  cpu time      0.6831: real time      0.7008

 eigenvalue-minimisations  :  1048
 total energy-change (2. order) :-0.1039306E+03  (-0.1029971E+03)
 number of electron      64.0000000 magnetization 
 augmentation part       64.0000000 magnetization 

 Free energy of the ion-electron system (eV)
  ---------------------------------------------------
  alpha Z        PSCENC =        64.50308324
  Ewald energy   TEWEN  =     -2171.10254707
  -Hartree energ DENC   =     -1496.95817215
  -exchange      EXHF   =         0.00000000
  -V(xc)+E(xc)   XCENC  =       296.08837487
  PAW double counting   =      3168.80585223    -3188.14705466
  entropy T*S    EENTRO =        -0.00000000
  eigenvalues    EBANDS =      -855.15047605
  atomic energy  EATOM  =      4047.50565470
  ---------------------------------------------------
  free energy    TOTEN  =      -134.45528488 eV

  energy without entropy =     -134.45528488  energy(sigma->0) =     -134.45528488


--------------------------------------------------------------------------------------------------------




--------------------------------------- Iteration      1(   4)  ---------------------------------------


    TRIAL :  cpu time      0.7347: real time      0.7349
    CORREC:  cpu time      0.0001: real time      0.0001
    --------------------------------------------
      LOOP:  cpu time      0.7656: real time      0.7662

 eigenvalue-minimisations  :  1192
 total energy-change (2. order) :-0.3592900E+01  (-0.3574164E+01)
 number of electron      64.0000000 magnetization 
 augmentation part       64.0000000 magnetization 

 Free energy of the ion-electron system (eV)
  ---------------------------------------------------
  alpha Z        PSCENC =        64.50308324
  Ewald energy   TEWEN  =     -2171.10254707
  -Hartree energ DENC   =     -1496.95817215
  -exchange      EXHF   =         0.00000000
  -V(xc)+E(xc)   XCENC  =       296.08837487
  PAW double counting   =      3168.80585223    -3188.14705466
  entropy T*S    EENTRO =        -0.00000000
  eigenvalues    EBANDS =      -858.74337651
  atomic energy  EATOM  =      4047.50565470
  ---------------------------------------------------
  free energy    TOTEN  =      -138.04818535 eV

  energy without entropy =     -138.04818535  energy(sigma->0) =     -138.04818535


--------------------------------------------------------------------------------------------------------




--------------------------------------- Iteration      1(   5)  ---------------------------------------


    TRIAL :  cpu time      0.6903: real time      0.6904
    CORREC:  cpu time      0.0001: real time      0.0001
    CHARGE:  cpu time      0.4968: real time      0.5000
    --------------------------------------------
      LOOP:  cpu time      1.2006: real time      1.2188

 eigenvalue-minimisations  :  1096
 total energy-change (2. order) :-0.1235626E+00  (-0.1233674E+00)
 number of electron      64.0000001 magnetization 
 augmentation part        0.3480496 magnetization 

 Free energy of the ion-electron system (eV)
  ---------------------------------------------------
  alpha Z        PSCENC =        64.50308324
  Ewald energy   TEWEN  =     -2171.10254707
  -Hartree energ DENC   =     -1496.95817215
  -exchange      EXHF   =         0.00000000
  -V(xc)+E(xc)   XCENC  =       296.08837487
  PAW double counting   =      3168.80585223    -3188.14705466
  entropy T*S    EENTRO =        -0.00000000
  eigenvalues    EBANDS =      -858.86693906
  atomic energy  EATOM  =      4047.50565470
  ---------------------------------------------------
  free energy    TOTEN  =      -138.17174790 eV

  energy without entropy =     -138.17174790  energy(sigma->0) =     -138.17174790


--------------------------------------------------------------------------------------------------------




--------------------------------------- Iteration      1(   6)  ---------------------------------------


    POTLOK:  cpu time      0.0678: real time      0.0678
    SETDIJ:  cpu time      0.3063: real time      0.3064
    TRIAL :  cpu time      0.5538: real time      0.5546
    CORREC:  cpu time      1.0163: real time      1.0171
    CHARGE:  cpu time      0.4723: real time      0.4723
    --------------------------------------------
      LOOP:  cpu time      2.4280: real time      2.4441

 eigenvalue-minimisations  :     0
 total energy-change (2. order) : 0.3465876E+02  (-0.6289909E+01)
 number of electron      64.0000000 magnetization 
 augmentation part        0.2590256 magnetization 

 Free energy of the ion-electron system (eV)
  ---------------------------------------------------
  alpha Z        PSCENC =        64.50308324
  Ewald energy   TEWEN  =     -2171.10254707
  -Hartree energ DENC   =     -1756.10717116
  -exchange      EXHF   =         0.00000000
  -V(xc)+E(xc)   XCENC  =       324.61447551
  PAW double counting   =     52418.37648669   -52441.53699624
  entropy T*S    EENTRO =        -0.00000000
  eigenvalues    EBANDS =      -589.76596989
  atomic energy  EATOM  =      4047.50565470
  ---------------------------------------------------
  free energy    TOTEN  =      -103.51298421 eV

  energy without entropy =     -103.51298421  energy(sigma->0) =     -103.51298421


--------------------------------------------------------------------------------------------------------




--------------------------------------- Iteration      1(   7)  ---------------------------------------


    POTLOK:  cpu time      0.0677: real time      0.0677
    SETDIJ:  cpu time      0.3035: real time      0.3037
    TRIAL :  cpu time      0.5164: real time      0.5165
    CORREC:  cpu time      0.9898: real time      0.9903
    CHARGE:  cpu time      0.4712: real time      0.4716
    --------------------------------------------
      LOOP:  cpu time      2.3733: real time      2.3745

 eigenvalue-minimisations  :     0
 total energy-change (2. order) :-0.6314829E+01  (-0.9085064E+00)
 number of electron      64.0000000 magnetization 
 augmentation part        0.1974682 magnetization 

 Free energy of the ion-electron system (eV)
  ---------------------------------------------------
  alpha Z        PSCENC =        64.50308324
  Ewald energy   TEWEN  =     -2171.10254707
  -Hartree energ DENC   =     -1620.33013411
  -exchange      EXHF   =         0.00000000
  -V(xc)+E(xc)   XCENC  =       312.99281225
  PAW double counting   =     55847.55784308   -55868.61448104
  entropy T*S    EENTRO =        -0.00000000
  eigenvalues    EBANDS =      -722.34004469
  atomic energy  EATOM  =      4047.50565470
  ---------------------------------------------------
  free energy    TOTEN  =      -109.82781362 eV

  energy without entropy =     -109.82781362  energy(sigma->0) =     -109.82781362


--------------------------------------------------------------------------------------------------------




--------------------------------------- Iteration      1(   8)  ---------------------------------------


    POTLOK:  cpu time      0.0673: real time      0.0673
    SETDIJ:  cpu time      0.3036: real time      0.3036
    TRIAL :  cpu time      0.5239: real time      0.5242
    CORREC:  cpu time      1.0059: real time      1.0061
    CHARGE:  cpu time      0.4695: real time      0.4695
    --------------------------------------------
      LOOP:  cpu time      2.3817: real time      2.3976

 eigenvalue-minimisations  :     0
 total energy-change (2. order) :-0.9082442E+00  (-0.2605542E+00)
 number of electron      64.0000000 magnetization 
 augmentation part        0.2036749 magnetization 

 Free energy of the ion-electron system (eV)
  ---------------------------------------------------
  alpha Z        PSCENC =        64.50308324
  Ewald energy   TEWEN  =     -2171.10254707
  -Hartree energ DENC   =     -1625.33265486
  -exchange      EXHF   =         0.00000000
  -V(xc)+E(xc)   XCENC  =       313.14571068
  PAW double counting   =     58025.04325349   -58045.85069199
  entropy T*S    EENTRO =        -0.00000000
  eigenvalues    EBANDS =      -718.64786599
  atomic energy  EATOM  =      4047.50565470
  ---------------------------------------------------
  free energy    TOTEN  =      -110.73605779 eV

  energy without entropy =     -110.73605779  energy(sigma->0) =     -110.73605779


--------------------------------------------------------------------------------------------------------




--------------------------------------- Iteration      1(   9)  ---------------------------------------


    POTLOK:  cpu time      0.0671: real time      0.0672
    SETDIJ:  cpu time      0.3033: real time      0.3033
    TRIAL :  cpu time      0.5159: real time      0.5163
    CORREC:  cpu time      0.9888: real time      0.9890
    CHARGE:  cpu time      0.4719: real time      0.4719
    --------------------------------------------
      LOOP:  cpu time      2.3579: real time      2.3737

 eigenvalue-minimisations  :     0
 total energy-change (2. order) :-0.2606753E+00  (-0.7409183E-01)
 number of electron      64.0000000 magnetization 
 augmentation part        0.2106568 magnetization 

 Free energy of the ion-electron system (eV)
  ---------------------------------------------------
  alpha Z        PSCENC =        64.50308324
  Ewald energy   TEWEN  =     -2171.10254707
  -Hartree energ DENC   =     -1630.04819503
  -exchange      EXHF   =         0.00000000
  -V(xc)+E(xc)   XCENC  =       313.47166383
  PAW double counting   =     60753.42406663   -60774.29965159
  entropy T*S    EENTRO =        -0.00000000
  eigenvalues    EBANDS =      -714.45080786
  atomic energy  EATOM  =      4047.50565470
  ---------------------------------------------------
  free energy    TOTEN  =      -110.99673313 eV

  energy without entropy =     -110.99673313  energy(sigma->0) =     -110.99673313


--------------------------------------------------------------------------------------------------------




--------------------------------------- Iteration      1(  10)  ---------------------------------------


    POTLOK:  cpu time      0.0669: real time      0.0672
    SETDIJ:  cpu time      0.3035: real time      0.3035
    TRIAL :  cpu time      0.5185: real time      0.5185
    CORREC:  cpu time      0.9878: real time      0.9883
    CHARGE:  cpu time      0.4704: real time      0.4706
    --------------------------------------------
      LOOP:  cpu time      2.3591: real time      2.3725

 eigenvalue-minimisations  :     0
 total energy-change (2. order) :-0.7408805E-01  (-0.2283853E-01)
 number of electron      64.0000000 magnetization 
 augmentation part        0.2127501 magnetization 

 Free energy of the ion-electron system (eV)
  ---------------------------------------------------
  alpha Z        PSCENC =        64.50308324
  Ewald energy   TEWEN  =     -2171.10254707
  -Hartree energ DENC   =     -1626.40478778
  -exchange      EXHF   =         0.00000000
  -V(xc)+E(xc)   XCENC  =       313.17930661
  PAW double counting   =     61950.79359959   -61971.68153345
  entropy T*S    EENTRO =        -0.00000000
  eigenvalues    EBANDS =      -717.86359703
  atomic energy  EATOM  =      4047.50565470
  ---------------------------------------------------
  free energy    TOTEN  =      -111.07082118 eV

  energy without entropy =     -111.07082118  energy(sigma->0) =     -111.07082118


--------------------------------------------------------------------------------------------------------




--------------------------------------- Iteration      1(  11)  ---------------------------------------


    POTLOK:  cpu time      0.0670: real time      0.0670
    SETDIJ:  cpu time      0.3031: real time      0.3031
    TRIAL :  cpu time      0.5200: real time      0.5202
    CORREC:  cpu time      0.9882: real time      0.9884
    CHARGE:  cpu time      0.4707: real time      0.4707
    --------------------------------------------
      LOOP:  cpu time      2.3616: real time      2.3763

 eigenvalue-minimisations  :     0
 total energy-change (2. order) :-0.2284618E-01  (-0.7021688E-02)
 number of electron      64.0000000 magnetization 
 augmentation part        0.2154995 magnetization 

 Free energy of the ion-electron system (eV)
  ---------------------------------------------------
  alpha Z        PSCENC =        64.50308324
  Ewald energy   TEWEN  =     -2171.10254707
  -Hartree energ DENC   =     -1626.26004533
  -exchange      EXHF   =         0.00000000
  -V(xc)+E(xc)   XCENC  =       313.16899937
  PAW double counting   =     61963.23428735   -61984.14477950
  entropy T*S    EENTRO =        -0.00000000
  eigenvalues    EBANDS =      -717.99832014
  atomic energy  EATOM  =      4047.50565470
  ---------------------------------------------------
  free energy    TOTEN  =      -111.09366736 eV

  energy without entropy =     -111.09366736  energy(sigma->0) =     -111.09366736


--------------------------------------------------------------------------------------------------------




--------------------------------------- Iteration      1(  12)  ---------------------------------------


    POTLOK:  cpu time      0.0670: real time      0.0670
    SETDIJ:  cpu time      0.3033: real time      0.3035
    TRIAL :  cpu time      0.5169: real time      0.5169
    CORREC:  cpu time      0.9849: real time      0.9852
    CHARGE:  cpu time      0.4706: real time      0.4708
    --------------------------------------------
      LOOP:  cpu time      2.3528: real time      2.3670

 eigenvalue-minimisations  :     0
 total energy-change (2. order) :-0.7026988E-02  (-0.2652268E-02)
 number of electron      64.0000000 magnetization 
 augmentation part        0.2157116 magnetization 

 Free energy of the ion-electron system (eV)
  ---------------------------------------------------
  alpha Z        PSCENC =        64.50308324
  Ewald energy   TEWEN  =     -2171.10254707
  -Hartree energ DENC   =     -1626.70279085
  -exchange      EXHF   =         0.00000000
  -V(xc)+E(xc)   XCENC  =       313.20186781
  PAW double counting   =     62084.51635910   -62105.43833094
  entropy T*S    EENTRO =        -0.00000000
  eigenvalues    EBANDS =      -717.58399035
  atomic energy  EATOM  =      4047.50565470
  ---------------------------------------------------
  free energy    TOTEN  =      -111.10069435 eV

  energy without entropy =     -111.10069435  energy(sigma->0) =     -111.10069435


--------------------------------------------------------------------------------------------------------




--------------------------------------- Iteration      1(  13)  ---------------------------------------


    POTLOK:  cpu time      0.0672: real time      0.0672
    SETDIJ:  cpu time      0.3032: real time      0.3032
    TRIAL :  cpu time      0.5147: real time      0.5148
    CORREC:  cpu time      0.9889: real time      0.9892
    CHARGE:  cpu time      0.4707: real time      0.4710
    --------------------------------------------
      LOOP:  cpu time      2.3582: real time      2.3687

 eigenvalue-minimisations  :     0
 total energy-change (2. order) :-0.2657101E-02  (-0.1111234E-02)
 number of electron      64.0000000 magnetization 
 augmentation part        0.2154096 magnetization 

 Free energy of the ion-electron system (eV)
  ---------------------------------------------------
  alpha Z        PSCENC =        64.50308324
  Ewald energy   TEWEN  =     -2171.10254707
  -Hartree energ DENC   =     -1626.37888166
  -exchange      EXHF   =         0.00000000
  -V(xc)+E(xc)   XCENC  =       313.17880745
  PAW double counting   =     62107.67654493   -62128.59034802
  entropy T*S    EENTRO =        -0.00000000
  eigenvalues    EBANDS =      -717.89566504
  atomic energy  EATOM  =      4047.50565470
  ---------------------------------------------------
  free energy    TOTEN  =      -111.10335145 eV

  energy without entropy =     -111.10335145  energy(sigma->0) =     -111.10335145


--------------------------------------------------------------------------------------------------------




--------------------------------------- Iteration      1(  14)  ---------------------------------------


    POTLOK:  cpu time      0.0672: real time      0.0672
    SETDIJ:  cpu time      0.3028: real time      0.3029
    TRIAL :  cpu time      0.5168: real time      0.5170
    CORREC:  cpu time      0.9863: real time      0.9865
    CHARGE:  cpu time      0.4714: real time      0.4714
    --------------------------------------------
      LOOP:  cpu time      2.3545: real time      2.3694

 eigenvalue-minimisations  :     0
 total energy-change (2. order) :-0.1111356E-02  (-0.4890402E-03)
 number of electron      64.0000000 magnetization 
 augmentation part        0.2156117 magnetization 

 Free energy of the ion-electron system (eV)
  ---------------------------------------------------
  alpha Z        PSCENC =        64.50308324
  Ewald energy   TEWEN  =     -2171.10254707
  -Hartree energ DENC   =     -1626.21899113
  -exchange      EXHF   =         0.00000000
  -V(xc)+E(xc)   XCENC  =       313.16720743
  PAW double counting   =     61919.37153751   -61940.28101284
  entropy T*S    EENTRO =        -0.00000000
  eigenvalues    EBANDS =      -718.04939465
  atomic energy  EATOM  =      4047.50565470
  ---------------------------------------------------
  free energy    TOTEN  =      -111.10446281 eV

  energy without entropy =     -111.10446281  energy(sigma->0) =     -111.10446281


--------------------------------------------------------------------------------------------------------




--------------------------------------- Iteration      1(  15)  ---------------------------------------


    POTLOK:  cpu time      0.0672: real time      0.0672
    SETDIJ:  cpu time      0.3031: real time      0.3033
    TRIAL :  cpu time      0.5168: real time      0.5169
    CORREC:  cpu time      1.0156: real time      1.0160
    CHARGE:  cpu time      0.5035: real time      0.5037
    --------------------------------------------
      LOOP:  cpu time      2.4324: real time      2.4335

 eigenvalue-minimisations  :     0
 total energy-change (2. order) :-0.4873069E-03  (-0.1976110E-03)
 number of electron      64.0000000 magnetization 
 augmentation part        0.2155608 magnetization 

 Free energy of the ion-electron system (eV)
  ---------------------------------------------------
  alpha Z        PSCENC =        64.50308324
  Ewald energy   TEWEN  =     -2171.10254707
  -Hartree energ DENC   =     -1626.36224182
  -exchange      EXHF   =         0.00000000
  -V(xc)+E(xc)   XCENC  =       313.17656677
  PAW double counting   =     61701.30413698   -61722.21650989
  entropy T*S    EENTRO =        -0.00000000
  eigenvalues    EBANDS =      -717.91309305
  atomic energy  EATOM  =      4047.50565470
  ---------------------------------------------------
  free energy    TOTEN  =      -111.10495012 eV

  energy without entropy =     -111.10495012  energy(sigma->0) =     -111.10495012


--------------------------------------------------------------------------------------------------------




--------------------------------------- Iteration      1(  16)  ---------------------------------------


    POTLOK:  cpu time      0.0671: real time      0.0671
    SETDIJ:  cpu time      0.3032: real time      0.3033
    TRIAL :  cpu time      0.5188: real time      0.5190
    CORREC:  cpu time      0.9860: real time      0.9862
    CHARGE:  cpu time      0.4710: real time      0.4710
    --------------------------------------------
      LOOP:  cpu time      2.3571: real time      2.3728

 eigenvalue-minimisations  :     0
 total energy-change (2. order) :-0.1973226E-03  (-0.7946614E-04)
 number of electron      64.0000000 magnetization 
 augmentation part        0.2154904 magnetization 

 Free energy of the ion-electron system (eV)
  ---------------------------------------------------
  alpha Z        PSCENC =        64.50308324
  Ewald energy   TEWEN  =     -2171.10254707
  -Hartree energ DENC   =     -1626.26326400
  -exchange      EXHF   =         0.00000000
  -V(xc)+E(xc)   XCENC  =       313.16800661
  PAW double counting   =     61602.76703240   -61623.67926531
  entropy T*S    EENTRO =        -0.00000000
  eigenvalues    EBANDS =      -718.00384801
  atomic energy  EATOM  =      4047.50565470
  ---------------------------------------------------
  free energy    TOTEN  =      -111.10514744 eV

  energy without entropy =     -111.10514744  energy(sigma->0) =     -111.10514744


--------------------------------------------------------------------------------------------------------




--------------------------------------- Iteration      1(  17)  ---------------------------------------


    POTLOK:  cpu time      0.0672: real time      0.0672
    SETDIJ:  cpu time      0.3031: real time      0.3033
    TRIAL :  cpu time      0.5169: real time      0.5169
    CORREC:  cpu time      0.9896: real time      0.9898
    CHARGE:  cpu time      0.4706: real time      0.4708
    --------------------------------------------
      LOOP:  cpu time      2.3595: real time      2.3722

 eigenvalue-minimisations  :     0
 total energy-change (2. order) :-0.7872985E-04  (-0.2743515E-04)
 number of electron      64.0000000 magnetization 
 augmentation part        0.2153007 magnetization 

 Free energy of the ion-electron system (eV)
  ---------------------------------------------------
  alpha Z        PSCENC =        64.50308324
  Ewald energy   TEWEN  =     -2171.10254707
  -Hartree energ DENC   =     -1626.34616695
  -exchange      EXHF   =         0.00000000
  -V(xc)+E(xc)   XCENC  =       313.17511983
  PAW double counting   =     61599.02329163   -61619.93652108
  entropy T*S    EENTRO =        -0.00000000
  eigenvalues    EBANDS =      -717.92714048
  atomic energy  EATOM  =      4047.50565470
  ---------------------------------------------------
  free energy    TOTEN  =      -111.10522617 eV

  energy without entropy =     -111.10522617  energy(sigma->0) =     -111.10522617


--------------------------------------------------------------------------------------------------------




--------------------------------------- Iteration      1(  18)  ---------------------------------------


    POTLOK:  cpu time      0.0670: real time      0.0670
    SETDIJ:  cpu time      0.3031: real time      0.3031
    TRIAL :  cpu time      0.5154: real time      0.5154
    CORREC:  cpu time      0.9899: real time      0.9901
    CHARGE:  cpu time      0.4703: real time      0.4705
    --------------------------------------------
      LOOP:  cpu time      2.3716: real time      2.3722

 eigenvalue-minimisations  :     0
 total energy-change (2. order) :-0.2731589E-04  (-0.7618197E-05)
 number of electron      64.0000000 magnetization 
 augmentation part        0.2152713 magnetization 

 Free energy of the ion-electron system (eV)
  ---------------------------------------------------
  alpha Z        PSCENC =        64.50308324
  Ewald energy   TEWEN  =     -2171.10254707
  -Hartree energ DENC   =     -1626.30974067
  -exchange      EXHF   =         0.00000000
  -V(xc)+E(xc)   XCENC  =       313.17174251
  PAW double counting   =     61641.44553468   -61662.35728478
  entropy T*S    EENTRO =        -0.00000000
  eigenvalues    EBANDS =      -717.96169611
  atomic energy  EATOM  =      4047.50565470
  ---------------------------------------------------
  free energy    TOTEN  =      -111.10525349 eV

  energy without entropy =     -111.10525349  energy(sigma->0) =     -111.10525349


--------------------------------------------------------------------------------------------------------




--------------------------------------- Iteration      1(  19)  ---------------------------------------


    POTLOK:  cpu time      0.0670: real time      0.0670
    SETDIJ:  cpu time      0.3032: real time      0.3032
    TRIAL :  cpu time      0.5184: real time      0.5186
    CORREC:  cpu time      0.9873: real time      0.9875
    CHARGE:  cpu time      0.4696: real time      0.4696
    --------------------------------------------
      LOOP:  cpu time      2.3705: real time      2.3744

 eigenvalue-minimisations  :     0
 total energy-change (2. order) :-0.7540097E-05  (-0.2065878E-05)
 number of electron      64.0000000 magnetization 
 augmentation part        0.2152824 magnetization 

 Free energy of the ion-electron system (eV)
  ---------------------------------------------------
  alpha Z        PSCENC =        64.50308324
  Ewald energy   TEWEN  =     -2171.10254707
  -Hartree energ DENC   =     -1626.33496484
  -exchange      EXHF   =         0.00000000
  -V(xc)+E(xc)   XCENC  =       313.17391196
  PAW double counting   =     61675.57627294   -61696.48807441
  entropy T*S    EENTRO =        -0.00000000
  eigenvalues    EBANDS =      -717.93859755
  atomic energy  EATOM  =      4047.50565470
  ---------------------------------------------------
  free energy    TOTEN  =      -111.10526103 eV

  energy without entropy =     -111.10526103  energy(sigma->0) =     -111.10526103


--------------------------------------------------------------------------------------------------------




--------------------------------------- Iteration      1(  20)  ---------------------------------------


    POTLOK:  cpu time      0.0677: real time      0.0677
    SETDIJ:  cpu time      0.3043: real time      0.3045
    TRIAL :  cpu time      0.5171: real time      0.5171
    CORREC:  cpu time      0.9878: real time      0.9880
    CHARGE:  cpu time      0.4706: real time      0.4707
    --------------------------------------------
      LOOP:  cpu time      2.3599: real time      2.3759

 eigenvalue-minimisations  :     0
 total energy-change (2. order) :-0.2130335E-05  (-0.8475750E-06)
 number of electron      64.0000000 magnetization 
 augmentation part        0.2153036 magnetization 

 Free energy of the ion-electron system (eV)
  ---------------------------------------------------
  alpha Z        PSCENC =        64.50308324
  Ewald energy   TEWEN  =     -2171.10254707
  -Hartree energ DENC   =     -1626.32833698
  -exchange      EXHF   =         0.00000000
  -V(xc)+E(xc)   XCENC  =       313.17342407
  PAW double counting   =     61688.74120218   -61709.65302374
  entropy T*S    EENTRO =        -0.00000000
  eigenvalues    EBANDS =      -717.94471956
  atomic energy  EATOM  =      4047.50565470
  ---------------------------------------------------
  free energy    TOTEN  =      -111.10526316 eV

  energy without entropy =     -111.10526316  energy(sigma->0) =     -111.10526316


--------------------------------------------------------------------------------------------------------




--------------------------------------- Iteration      1(  21)  ---------------------------------------


    POTLOK:  cpu time      0.0670: real time      0.0670
    SETDIJ:  cpu time      0.3029: real time      0.3029
    TRIAL :  cpu time      0.5197: real time      0.5199
    CORREC:  cpu time      0.9873: real time      0.9876
    CHARGE:  cpu time      0.4709: real time      0.4709
    --------------------------------------------
      LOOP:  cpu time      2.3725: real time      2.3731

 eigenvalue-minimisations  :     0
 total energy-change (2. order) :-0.8880234E-06  (-0.4190732E-06)
 number of electron      64.0000000 magnetization 
 augmentation part        0.2153120 magnetization 

 Free energy of the ion-electron system (eV)
  ---------------------------------------------------
  alpha Z        PSCENC =        64.50308324
  Ewald energy   TEWEN  =     -2171.10254707
  -Hartree energ DENC   =     -1626.33037563
  -exchange      EXHF   =         0.00000000
  -V(xc)+E(xc)   XCENC  =       313.17358955
  PAW double counting   =     61691.79937077   -61712.71136580
  entropy T*S    EENTRO =        -0.00000000
  eigenvalues    EBANDS =      -717.94267381
  atomic energy  EATOM  =      4047.50565470
  ---------------------------------------------------
  free energy    TOTEN  =      -111.10526404 eV

  energy without entropy =     -111.10526404  energy(sigma->0) =     -111.10526404


--------------------------------------------------------------------------------------------------------




--------------------------------------- Iteration      1(  22)  ---------------------------------------


    POTLOK:  cpu time      0.0668: real time      0.0668
    SETDIJ:  cpu time      0.3034: real time      0.3034
    TRIAL :  cpu time      0.5170: real time      0.5173
    CORREC:  cpu time      0.9881: real time      0.9883
    CHARGE:  cpu time      0.4757: real time      0.4757
    --------------------------------------------
      LOOP:  cpu time      2.3614: real time      2.3773

 eigenvalue-minimisations  :     0
 total energy-change (2. order) :-0.4409449E-06  (-0.1758145E-06)
 number of electron      64.0000000 magnetization 
 augmentation part        0.2153131 magnetization 

 Free energy of the ion-electron system (eV)
  ---------------------------------------------------
  alpha Z        PSCENC =        64.50308324
  Ewald energy   TEWEN  =     -2171.10254707
  -Hartree energ DENC   =     -1626.33061518
  -exchange      EXHF   =         0.00000000
  -V(xc)+E(xc)   XCENC  =       313.17361884
  PAW double counting   =     61692.31986734   -61713.23192161
  entropy T*S    EENTRO =        -0.00000000
  eigenvalues    EBANDS =      -717.94240475
  atomic energy  EATOM  =      4047.50565470
  ---------------------------------------------------
  free energy    TOTEN  =      -111.10526448 eV

  energy without entropy =     -111.10526448  energy(sigma->0) =     -111.10526448


--------------------------------------------------------------------------------------------------------




--------------------------------------- Iteration      1(  23)  ---------------------------------------


    POTLOK:  cpu time      0.0670: real time      0.0670
    SETDIJ:  cpu time      0.3030: real time      0.3032
    TRIAL :  cpu time      0.5266: real time      0.5266
    CORREC:  cpu time      0.9867: real time      0.9870
    CHARGE:  cpu time      0.4717: real time      0.4720
    --------------------------------------------
      LOOP:  cpu time      2.3672: real time      2.3810

 eigenvalue-minimisations  :     0
 total energy-change (2. order) :-0.1862136E-06  (-0.8130086E-07)
 number of electron      64.0000000 magnetization 
 augmentation part        0.2153137 magnetization 

 Free energy of the ion-electron system (eV)
  ---------------------------------------------------
  alpha Z        PSCENC =        64.50308324
  Ewald energy   TEWEN  =     -2171.10254707
  -Hartree energ DENC   =     -1626.32926163
  -exchange      EXHF   =         0.00000000
  -V(xc)+E(xc)   XCENC  =       313.17351390
  PAW double counting   =     61692.28571941   -61713.19773938
  entropy T*S    EENTRO =        -0.00000000
  eigenvalues    EBANDS =      -717.94368785
  atomic energy  EATOM  =      4047.50565470
  ---------------------------------------------------
  free energy    TOTEN  =      -111.10526467 eV

  energy without entropy =     -111.10526467  energy(sigma->0) =     -111.10526467


--------------------------------------------------------------------------------------------------------




--------------------------------------- Iteration      1(  24)  ---------------------------------------


    POTLOK:  cpu time      0.0671: real time      0.0671
    SETDIJ:  cpu time      0.3031: real time      0.3031
    TRIAL :  cpu time      0.5162: real time      0.5164
    CORREC:  cpu time      0.9883: real time      0.9884
    EDDIAG:  cpu time      0.1536: real time      0.1542
    CHARGE:  cpu time      0.4691: real time      0.4691
    --------------------------------------------
      LOOP:  cpu time      2.5092: real time      2.5212

 eigenvalue-minimisations  :     0
 total energy-change (2. order) :-0.8466304E-07  (-0.3517197E-07)
 number of electron      64.0000000 magnetization 
 augmentation part        0.2153126 magnetization 

 Free energy of the ion-electron system (eV)
  ---------------------------------------------------
  alpha Z        PSCENC =        64.50308324
  Ewald energy   TEWEN  =     -2171.10254707
  -Hartree energ DENC   =     -1626.32974611
  -exchange      EXHF   =         0.00000000
  -V(xc)+E(xc)   XCENC  =       313.17354790
  PAW double counting   =     61691.72950441   -61712.64150678
  entropy T*S    EENTRO =        -0.00000000
  eigenvalues    EBANDS =      -717.94325506
  atomic energy  EATOM  =      4047.50565470
  ---------------------------------------------------
  free energy    TOTEN  =      -111.10526476 eV

  energy without entropy =     -111.10526476  energy(sigma->0) =     -111.10526476


--------------------------------------------------------------------------------------------------------


  average scaling for gradient   0.6229


 average (electrostatic) potential at core
  the test charge radii are     0.5770  0.5955
  (the norm of the test charge is              1.0000)
       1 -87.9435       2 -87.9435       3 -87.9434       4 -87.9435       5-120.0793
       6-120.0793       7-120.0793       8-120.0793       9-120.0793      10-120.0793
      11-120.0793      12-120.0793



 E-fermi :  -3.6061     XC(G=0):  -8.3292     alpha+bet : -6.0625

 Fermi energy:        -3.6061409598

 k-point     1 :       0.0000    0.0000    0.0000
  band No.  band energies     occupation 
      1     -25.2974      2.00000
      2     -25.0897      2.00000
      3     -25.0897      2.00000
      4     -25.0897      2.00000
      5     -24.0742      2.00000
      6     -24.0742      2.00000
      7     -24.0742      2.00000
      8     -24.0185      2.00000
      9      -9.2922      2.00000
     10      -9.2922      2.00000
     11      -9.2922      2.00000
     12      -9.0954      2.00000
     13      -8.5023      2.00000
     14      -8.5023      2.00000
     15      -8.5023      2.00000
     16      -7.7871      2.00000
     17      -7.7040      2.00000
     18      -7.7040      2.00000
     19      -7.5909      2.00000
     20      -7.5909      2.00000
     21      -7.5909      2.00000
     22      -7.1315      2.00000
     23      -7.1315      2.00000
     24      -7.1315      2.00000
     25      -4.4420      2.00000
     26      -4.4420      2.00000
     27      -4.4420      2.00000
     28      -3.8992      2.00000
     29      -3.8992      2.00000
     30      -3.8992      2.00000
     31      -3.7052      2.00000
     32      -3.7052      2.00000
     33       3.6862      0.00000
     34       4.9883      0.00000
     35       4.9889      0.00000
     36       5.0268      0.00000
     37       5.2701      0.00000
     38       5.3082      0.00000
     39       5.8703      0.00000
     40       5.8945      0.00000

 k-point     2 :       0.2000    0.0000    0.0000
  band No.  band energies     occupation 
      1     -25.2787      2.00000
      2     -25.1108      2.00000
      3     -25.0896      2.00000
      4     -25.0896      2.00000
      5     -24.0732      2.00000
      6     -24.0730      2.00000
      7     -24.0689      2.00000
      8     -24.0239      2.00000
      9      -9.3177      2.00000
     10      -9.3172      2.00000
     11      -9.3120      2.00000
     12      -9.1637      2.00000
     13      -8.4152      2.00000
     14      -8.4064      2.00000
     15      -8.3864      2.00000
     16      -7.8321      2.00000
     17      -7.7173      2.00000
     18      -7.6524      2.00000
     19      -7.6411      2.00000
     20      -7.6187      2.00000
     21      -7.5589      2.00000
     22      -7.2295      2.00000
     23      -7.1878      2.00000
     24      -7.1722      2.00000
     25      -4.3755      2.00000
     26      -4.3717      2.00000
     27      -4.3676      2.00000
     28      -3.9218      2.00000
     29      -3.9201      2.00000
     30      -3.8719      2.00000
     31      -3.7694      2.00000
     32      -3.7165      2.00000
     33       3.9541      0.00000
     34       4.9524      0.00000
     35       5.0606      0.00000
     36       5.0721      0.00000
     37       5.1872      0.00000
     38       5.2948      0.00000
     39       5.7759      0.00000
     40       5.8180      0.00000

 k-point     3 :       0.4000    0.0000    0.0000
  band No.  band energies     occupation 
      1     -25.2287      2.00000
      2     -25.1647      2.00000
      3     -25.0894      2.00000
      4     -25.0894      2.00000
      5     -24.0715      2.00000
      6     -24.0713      2.00000
      7     -24.0551      2.00000
      8     -24.0379      2.00000
      9      -9.3504      2.00000
     10      -9.3454      2.00000
     11      -9.3295      2.00000
     12      -9.2728      2.00000
     13      -8.2267      2.00000
     14      -8.2137      2.00000
     15      -8.1837      2.00000
     16      -7.9930      2.00000
     17      -7.7160      2.00000
     18      -7.7128      2.00000
     19      -7.6765      2.00000
     20      -7.5773      2.00000
     21      -7.5052      2.00000
     22      -7.3614      2.00000
     23      -7.3299      2.00000
     24      -7.2722      2.00000
     25      -4.2406      2.00000
     26      -4.2352      2.00000
     27      -4.1757      2.00000
     28      -3.9839      2.00000
     29      -3.9804      2.00000
     30      -3.9459      2.00000
     31      -3.8107      2.00000
     32      -3.7523      2.00000
     33       4.7118      0.00000
     34       4.9167      0.00000
     35       4.9940      0.00000
     36       5.1923      0.00000
     37       5.2907      0.00000
     38       5.4253      0.00000
     39       5.5805      0.00000
     40       5.8487      0.00000

 k-point     4 :       0.2000    0.2000    0.0000
  band No.  band energies     occupation 
      1     -25.2615      2.00000
      2     -25.1086      2.00000
      3     -25.1086      2.00000
      4     -25.0914      2.00000
      5     -24.0723      2.00000
      6     -24.0685      2.00000
      7     -24.0684      2.00000
      8     -24.0288      2.00000
      9      -9.3398      2.00000
     10      -9.3351      2.00000
     11      -9.3163      2.00000
     12      -9.1946      2.00000
     13      -8.4006      2.00000
     14      -8.3479      2.00000
     15      -8.2723      2.00000
     16      -7.9060      2.00000
     17      -7.7124      2.00000
     18      -7.6374      2.00000
     19      -7.6369      2.00000
     20      -7.5844      2.00000
     21      -7.5515      2.00000
     22      -7.3616      2.00000
     23      -7.2241      2.00000
     24      -7.1657      2.00000
     25      -4.3215      2.00000
     26      -4.3094      2.00000
     27      -4.3080      2.00000
     28      -3.9374      2.00000
     29      -3.9002      2.00000
     30      -3.8987      2.00000
     31      -3.7956      2.00000
     32      -3.7577      2.00000
     33       4.2038      0.00000
     34       4.9563      0.00000
     35       4.9980      0.00000
     36       5.1724      0.00000
     37       5.1849      0.00000
     38       5.3107      0.00000
     39       5.7362      0.00000
     40       5.7870      0.00000

 k-point     5 :       0.4000    0.2000    0.0000
  band No.  band energies     occupation 
      1     -25.2157      2.00000
      2     -25.1573      2.00000
      3     -25.1029      2.00000
      4     -25.0964      2.00000
      5     -24.0699      2.00000
      6     -24.0684      2.00000
      7     -24.0565      2.00000
      8     -24.0414      2.00000
      9      -9.3630      2.00000
     10      -9.3482      2.00000
     11      -9.3254      2.00000
     12      -9.2680      2.00000
     13      -8.2861      2.00000
     14      -8.2183      2.00000
     15      -8.1203      2.00000
     16      -8.0291      2.00000
     17      -7.7947      2.00000
     18      -7.7250      2.00000
     19      -7.5711      2.00000
     20      -7.5328      2.00000
     21      -7.4623      2.00000
     22      -7.4531      2.00000
     23      -7.3164      2.00000
     24      -7.2656      2.00000
     25      -4.2066      2.00000
     26      -4.1967      2.00000
     27      -4.1402      2.00000
     28      -3.9823      2.00000
     29      -3.9718      2.00000
     30      -3.9388      2.00000
     31      -3.8512      2.00000
     32      -3.8023      2.00000
     33       4.8655      0.00000
     34       4.8924      0.00000
     35       4.8990      0.00000
     36       5.2211      0.00000
     37       5.3634      0.00000
     38       5.4057      0.00000
     39       5.5674      0.00000
     40       5.6980      0.00000

 k-point     6 :      -0.2000    0.4000    0.0000
  band No.  band energies     occupation 
      1     -25.2157      2.00000
      2     -25.1573      2.00000
      3     -25.1029      2.00000
      4     -25.0964      2.00000
      5     -24.0700      2.00000
      6     -24.0683      2.00000
      7     -24.0566      2.00000
      8     -24.0414      2.00000
      9      -9.3487      2.00000
     10      -9.3410      2.00000
     11      -9.3376      2.00000
     12      -9.2791      2.00000
     13      -8.2408      2.00000
     14      -8.2343      2.00000
     15      -8.1394      2.00000
     16      -8.0821      2.00000
     17      -7.7246      2.00000
     18      -7.6294      2.00000
     19      -7.6275      2.00000
     20      -7.5940      2.00000
     21      -7.5227      2.00000
     22      -7.3752      2.00000
     23      -7.3607      2.00000
     24      -7.2423      2.00000
     25      -4.2016      2.00000
     26      -4.1934      2.00000
     27      -4.1455      2.00000
     28      -3.9865      2.00000
     29      -3.9720      2.00000
     30      -3.9454      2.00000
     31      -3.8476      2.00000
     32      -3.7979      2.00000
     33       4.8525      0.00000
     34       4.9188      0.00000
     35       4.9910      0.00000
     36       5.1009      0.00000
     37       5.3869      0.00000
     38       5.4844      0.00000
     39       5.6081      0.00000
     40       5.7830      0.00000

 k-point     7 :       0.4000    0.4000    0.0000
  band No.  band energies     occupation 
      1     -25.1812      2.00000
      2     -25.1382      2.00000
      3     -25.1382      2.00000
      4     -25.1149      2.00000
      5     -24.0656      2.00000
      6     -24.0605      2.00000
      7     -24.0604      2.00000
      8     -24.0501      2.00000
      9      -9.3504      2.00000
     10      -9.3422      2.00000
     11      -9.3288      2.00000
     12      -9.3009      2.00000
     13      -8.2382      2.00000
     14      -8.2376      2.00000
     15      -8.1601      2.00000
     16      -8.1148      2.00000
     17      -7.7576      2.00000
     18      -7.6806      2.00000
     19      -7.6155      2.00000
     20      -7.5390      2.00000
     21      -7.4067      2.00000
     22      -7.3830      2.00000
     23      -7.3747      2.00000
     24      -7.2701      2.00000
     25      -4.1150      2.00000
     26      -4.0894      2.00000
     27      -4.0734      2.00000
     28      -3.9972      2.00000
     29      -3.9654      2.00000
     30      -3.9508      2.00000
     31      -3.9331      2.00000
     32      -3.9090      2.00000
     33       4.8762      0.00000
     34       4.9296      0.00000
     35       4.9966      0.00000
     36       5.0370      0.00000
     37       5.5458      0.00000
     38       5.6309      0.00000
     39       5.6618      0.00000
     40       5.8333      0.00000

 k-point     8 :       0.2000    0.2000    0.2000
  band No.  band energies     occupation 
      1     -25.2458      2.00000
      2     -25.1086      2.00000
      3     -25.1081      2.00000
      4     -25.1081      2.00000
      5     -24.0691      2.00000
      6     -24.0691      2.00000
      7     -24.0663      2.00000
      8     -24.0332      2.00000
      9      -9.3739      2.00000
     10      -9.3158      2.00000
     11      -9.3158      2.00000
     12      -9.2094      2.00000
     13      -8.3848      2.00000
     14      -8.3848      2.00000
     15      -8.1987      2.00000
     16      -7.9312      2.00000
     17      -7.6760      2.00000
     18      -7.6760      2.00000
     19      -7.6277      2.00000
     20      -7.5328      2.00000
     21      -7.5328      2.00000
     22      -7.4554      2.00000
     23      -7.2013      2.00000
     24      -7.2013      2.00000
     25      -4.2746      2.00000
     26      -4.2601      2.00000
     27      -4.2601      2.00000
     28      -3.9239      2.00000
     29      -3.9239      2.00000
     30      -3.9163      2.00000
     31      -3.8075      2.00000
     32      -3.8075      2.00000
     33       4.4444      0.00000
     34       4.9101      0.00000
     35       4.9166      0.00000
     36       5.2171      0.00000
     37       5.2234      0.00000
     38       5.2728      0.00000
     39       5.6658      0.00000
     40       5.8167      0.00000

 k-point     9 :       0.4000    0.2000    0.2000
  band No.  band energies     occupation 
      1     -25.2043      2.00000
      2     -25.1518      2.00000
      3     -25.1078      2.00000
      4     -25.1076      2.00000
      5     -24.0681      2.00000
      6     -24.0671      2.00000
      7     -24.0577      2.00000
      8     -24.0445      2.00000
      9      -9.3698      2.00000
     10      -9.3347      2.00000
     11      -9.3052      2.00000
     12      -9.2645      2.00000
     13      -8.3482      2.00000
     14      -8.3183      2.00000
     15      -8.1660      2.00000
     16      -8.0402      2.00000
     17      -7.7167      2.00000
     18      -7.6936      2.00000
     19      -7.5381      2.00000
     20      -7.5177      2.00000
     21      -7.4729      2.00000
     22      -7.4206      2.00000
     23      -7.2954      2.00000
     24      -7.2670      2.00000
     25      -4.1722      2.00000
     26      -4.1655      2.00000
     27      -4.1216      2.00000
     28      -3.9822      2.00000
     29      -3.9778      2.00000
     30      -3.9435      2.00000
     31      -3.8819      2.00000
     32      -3.8400      2.00000
     33       4.8598      0.00000
     34       4.8941      0.00000
     35       5.0310      0.00000
     36       5.2000      0.00000
     37       5.2764      0.00000
     38       5.4891      0.00000
     39       5.6773      0.00000
     40       6.0539      0.00000

 k-point    10 :       0.4000    0.4000    0.2000
  band No.  band energies     occupation 
      1     -25.1744      2.00000
      2     -25.1377      2.00000
      3     -25.1374      2.00000
      4     -25.1207      2.00000
      5     -24.0649      2.00000
      6     -24.0617      2.00000
      7     -24.0604      2.00000
      8     -24.0524      2.00000
      9      -9.3467      2.00000
     10      -9.3142      2.00000
     11      -9.2948      2.00000
     12      -9.2761      2.00000
     13      -8.3868      2.00000
     14      -8.3553      2.00000
     15      -8.2881      2.00000
     16      -8.1869      2.00000
     17      -7.6409      2.00000
     18      -7.5811      2.00000
     19      -7.5243      2.00000
     20      -7.4774      2.00000
     21      -7.4008      2.00000
     22      -7.3682      2.00000
     23      -7.3348      2.00000
     24      -7.2763      2.00000
     25      -4.0985      2.00000
     26      -4.0795      2.00000
     27      -4.0700      2.00000
     28      -4.0013      2.00000
     29      -3.9755      2.00000
     30      -3.9680      2.00000
     31      -3.9510      2.00000
     32      -3.9314      2.00000
     33       4.8656      0.00000
     34       4.8838      0.00000
     35       5.0221      0.00000
     36       5.0422      0.00000
     37       5.5960      0.00000
     38       5.6695      0.00000
     39       5.7569      0.00000
     40       5.9401      0.00000

 k-point    11 :       0.4000    0.4000    0.4000
  band No.  band energies     occupation 
      1     -25.1571      2.00000
      2     -25.1366      2.00000
      3     -25.1365      2.00000
      4     -25.1364      2.00000
      5     -24.0626      2.00000
      6     -24.0625      2.00000
      7     -24.0614      2.00000
      8     -24.0574      2.00000
      9      -9.2995      2.00000
     10      -9.2607      2.00000
     11      -9.2607      2.00000
     12      -9.2477      2.00000
     13      -8.4945      2.00000
     14      -8.4945      2.00000
     15      -8.4573      2.00000
     16      -8.3853      2.00000
     17      -7.4877      2.00000
     18      -7.4490      2.00000
     19      -7.4490      2.00000
     20      -7.4381      2.00000
     21      -7.3381      2.00000
     22      -7.3380      2.00000
     23      -7.2875      2.00000
     24      -7.2875      2.00000
     25      -4.0534      2.00000
     26      -4.0534      2.00000
     27      -4.0514      2.00000
     28      -4.0072      2.00000
     29      -4.0071      2.00000
     30      -3.9978      2.00000
     31      -3.9868      2.00000
     32      -3.9868      2.00000
     33       4.8830      0.00000
     34       4.8950      0.00000
     35       4.9800      0.00000
     36       5.0252      0.00000
     37       5.7662      0.00000
     38       5.8399      0.00000
     39       5.8928      0.00000
     40       6.2339      0.00000


--------------------------------------------------------------------------------------------------------


 soft charge-density along one line, spin component           1
         0         1         2         3         4         5         6         7         8         9
 total charge-density along one line

 pseudopotential strength for first ion, spin component:           1
 12.643  21.272   0.000  -0.000   0.000   0.000  -0.000   0.000
 21.272  35.791   0.000  -0.000   0.000   0.000  -0.000   0.000
  0.000   0.000  -3.238   0.003   0.003  -5.801   0.004   0.004
 -0.000  -0.000   0.003  -3.238   0.003   0.004  -5.801   0.004
  0.000   0.000   0.003   0.003  -3.238   0.004   0.004  -5.801
  0.000   0.000  -5.801   0.004   0.004 -10.371   0.006   0.006
 -0.000  -0.000   0.004  -5.801   0.004   0.006 -10.371   0.006
  0.000   0.000   0.004   0.004  -5.801   0.006   0.006 -10.371
 total augmentation occupancy for first ion, spin component:           1
 12.206  -4.984   0.000   0.000   0.000   0.000  -0.000   0.000
 -4.984   2.155   0.000   0.000   0.000   0.000   0.000   0.000
  0.000   0.000   8.312   4.270   4.270  -3.106  -1.883  -1.883
  0.000   0.000   4.270   8.312   4.270  -1.883  -3.106  -1.883
  0.000   0.000   4.270   4.270   8.312  -1.883  -1.883  -3.106
  0.000   0.000  -3.106  -1.883  -1.883   1.198   0.827   0.827
  0.000   0.000  -1.883  -3.106  -1.883   0.827   1.198   0.827
  0.000   0.000  -1.883  -1.883  -3.106   0.827   0.827   1.198


------------------------ aborting loop because EDIFF is reached ----------------------------------------


    FORLOC:  cpu time      0.0035: real time      0.0035
    FORNL :  cpu time      0.0620: real time      0.0623
    FORCOR:  cpu time      0.3707: real time      0.3716
    OFIELD:  cpu time      0.0002: real time      0.0002

 VOLUME and BASIS-vectors are now :
 -----------------------------------------------------------------------------
  energy-cutoff  :     1000.00
  volume of cell :      177.88
      direct lattice vectors                 reciprocal lattice vectors
     5.624000000  0.000000000  0.000000000     0.177809388  0.000000000  0.000000000
     0.000000000  5.624000000  0.000000000     0.000000000  0.177809388  0.000000000
     0.000000000  0.000000000  5.624000000     0.000000000  0.000000000  0.177809388

  length of vectors
     5.624000000  5.624000000  5.624000000     0.177809388  0.177809388  0.177809388


 FORCES acting on ions:
    Electron-Ion                     Ewald-Force                    Non-Local-Force
 -----------------------------------------------------------------------------------------------
   -.148E-04 -.560E-05 0.239E-04   -.396E-04 -.449E-04 -.460E-04   -.755E-21 -.174E-20 -.117E-21
   0.744E-05 0.315E-04 0.357E-04   -.655E-05 -.202E-04 0.511E-05   0.682E-21 0.182E-21 -.135E-20
   0.151E-04 0.447E-04 0.279E-04   -.152E-04 0.645E-05 -.691E-05   0.285E-21 -.162E-20 -.144E-21
   0.257E-04 0.102E-04 0.124E-04   0.118E-04 -.979E-05 -.197E-04   -.208E-20 -.112E-20 -.994E-21
   -.106E+03 -.106E+03 -.106E+03   0.141E+03 0.141E+03 0.141E+03   -.359E+02 -.359E+02 -.359E+02
   0.106E+03 0.106E+03 0.106E+03   -.141E+03 -.141E+03 -.141E+03   0.359E+02 0.359E+02 0.359E+02
   0.106E+03 0.106E+03 -.106E+03   -.141E+03 -.141E+03 0.141E+03   0.359E+02 0.359E+02 -.359E+02
   -.106E+03 -.106E+03 0.106E+03   0.141E+03 0.141E+03 -.141E+03   -.359E+02 -.359E+02 0.359E+02
   0.106E+03 -.106E+03 0.106E+03   -.141E+03 0.141E+03 -.141E+03   0.359E+02 -.359E+02 0.359E+02
   -.106E+03 0.106E+03 -.106E+03   0.141E+03 -.141E+03 0.141E+03   -.359E+02 0.359E+02 -.359E+02
   -.106E+03 0.106E+03 0.106E+03   0.141E+03 -.141E+03 -.141E+03   -.359E+02 0.359E+02 0.359E+02
   0.106E+03 -.106E+03 -.106E+03   -.141E+03 0.141E+03 0.141E+03   0.359E+02 -.359E+02 -.359E+02
 -----------------------------------------------------------------------------------------------
   -.303E-03 -.113E-03 0.740E-04   0.284E-13 0.853E-13 -.568E-13   0.711E-14 -.711E-14 0.711E-14


 POSITION                                       TOTAL-FORCE (eV/Angst)
 -----------------------------------------------------------------------------------
      0.33737      0.33737      0.33737         0.000000     -0.000000      0.000000
      3.14937      0.33737      3.14937         0.000000     -0.000000      0.000000
      0.33737      3.14937      3.14937        -0.000000     -0.000000     -0.000000
      3.14937      3.14937      0.33737        -0.000000     -0.000000     -0.000000
      1.01211      1.01211      1.01211        -0.648562     -0.648562     -0.648562
      5.28663      5.28663      5.28663         0.648562      0.648562      0.648562
      2.47463      5.28663      3.82411         0.648562      0.648562     -0.648562
      3.82411      1.01211      2.47463        -0.648562     -0.648562      0.648562
      5.28663      3.82411      2.47463         0.648562     -0.648562      0.648562
      1.01211      2.47463      3.82411        -0.648562      0.648562     -0.648562
      3.82411      2.47463      5.28663        -0.648562      0.648562      0.648562
      2.47463      3.82411      1.01211         0.648562     -0.648562     -0.648562
 -----------------------------------------------------------------------------------
    total drift:                               -0.000303     -0.000113      0.000074


--------------------------------------------------------------------------------------------------------



  FREE ENERGIE OF THE ION-ELECTRON SYSTEM (eV)
  ---------------------------------------------------
  free  energy   TOTEN  =      -111.10526476 eV

  energy  without entropy=     -111.10526476  energy(sigma->0) =     -111.10526476



--------------------------------------------------------------------------------------------------------


    POTLOK:  cpu time      0.3750: real time      0.3751


--------------------------------------------------------------------------------------------------------


 stress matrix after NEB project (eV)
      0.00000      0.00000      0.00000
      0.00000      0.00000      0.00000
      0.00000      0.00000      0.00000
  FORCES: max atom, RMS     1.123343    0.917205
  FORCE total and by dimension    3.177293    0.648562
  Stress total and by dimension    0.000000    0.000000
     LOOP+:  cpu time     50.4689: real time     50.8275
    4ORBIT:  cpu time      0.0000: real time      0.0000

 total amount of memory used by VASP MPI-rank0    38528. kBytes
=======================================================================

   base      :      30000. kBytes
   nonl-proj :        640. kBytes
   fftplans  :       1192. kBytes
   grid      :       2385. kBytes
   one-center:          3. kBytes
   wavefun   :       4308. kBytes

  
  
 General timing and accounting informations for this job:
 ========================================================
  
                  Total CPU time used (sec):       54.490
                            User time (sec):       48.681
                          System time (sec):        5.810
                         Elapsed time (sec):       54.972
  
                   Maximum memory used (kb):      137264.
                   Average memory used (kb):          N/A
  
                          Minor page faults:       405335
                          Major page faults:          665
                 Voluntary context switches:         3005
