 vasp.6.4.1 05Apr23 (build Jun  6 2023 14:36:51) complex                         
 executed on        HPECrayEX_GCC date 2024.08.20  16:53:13
 running  128 mpi-ranks, with    1 threads/rank, on    1 nodes
 distrk:  each k-point on  128 cores,    1 groups
 distr:  one band on NCORE=  32 cores,    4 groups


--------------------------------------------------------------------------------------------------------


 INCAR:
   ALGO = Conjugate
   NPAR = 4
   ISMEAR = 0
   SIGMA = 0.01
   PREC = Accurate
   EDIFF = 1E-7
   ENCUT = 1000
   ISIF = 0
   GGA = MK
   PARAM1 = 0.1234
   PARAM2 = 1.0000
   LUSE_VDW = .TRUE.
   AGGAC = 0.0000
   LASPH = .TRUE.
   SYMPREC = 1E-7
   LWAVE = .FALSE.
   LCHARGE = .FALSE.

 POTCAR:    PAW_PBE C_h 06Feb2004                 
 POTCAR:    PAW_PBE O_h 06Feb2004                 
 -----------------------------------------------------------------------------
|                                                                             |
|               ----> ADVICE to this user running VASP <----                  |
|                                                                             |
|     You have switched on vdW-DFT.                                           |
|     This routine was written and supplied by Jiri Klimes. We recommend      |
|     that you carefully read and cite the following publications:            |
|       J. Klimes, D.R. Bowler, A. Michelides                                 |
|          J. Phys.: Cond Matt. 22 022201 (2010)                              |
|       J. Klimes, D.R. Bowler, A. Michelides                                 |
|          Phys. Rev. B. 83, 195131 (2011)                                    |
|     and references therein.                                                 |
|                                                                             |
 -----------------------------------------------------------------------------

 POTCAR:    PAW_PBE C_h 06Feb2004                 
   VRHFIN =C: s2p2                                                                                  
   LEXCH  = PE                                                                                      
   EATOM  =   147.1560 eV,   10.8157 Ry                                                             
                                                                                                    
   TITEL  = PAW_PBE C_h 06Feb2004                                                                   
   LULTRA =        F    use ultrasoft PP ?                                                          
   IUNSCR =        1    unscreen: 0-lin 1-nonlin 2-no                                               
   RPACOR =    0.800    partial core radius                                                         
   POMASS =   12.011; ZVAL   =    4.000    mass and valenz                                          
   RCORE  =    1.100    outmost cutoff radius                                                       
   RWIGS  =    1.630; RWIGS  =    0.863    wigner-seitz radius (au A)                               
   ENMAX  =  700.000; ENMIN  =  500.000 eV                                                          
   ICORE  =        2    local potential                                                             
   LCOR   =        T    correct aug charges                                                         
   LPAW   =        T    paw PP                                                                      
   EAUG   =  946.768                                                                                
   DEXC   =    0.000                                                                                
   RMAX   =    1.128    core radius for proj-oper                                                   
   RAUG   =    1.300    factor for augmentation sphere                                              
   RDEP   =    1.162    radius for radial grids                                                     
   RDEPT  =    1.088    core radius for aug-charge                                                  
                                                                                                    
   Atomic configuration                                                                             
    4 entries                                                                                       
     n  l   j            E        occ.                                                              
     1  0  0.50      -273.3789   2.0000                                                             
     2  0  0.50       -13.7508   2.0000                                                             
     2  1  0.50        -5.2854   2.0000                                                             
     3  2  1.50        -5.4423   0.0000                                                             
   Description                                                                                      
     l       E           TYP  RCUT    TYP  RCUT                                                     
     0    -13.7508458     23  1.100                                                                 
     0     -8.2022199     23  1.100                                                                 
     1     -5.2854383     23  1.100                                                                 
     1      1.1560700     23  1.100                                                                 
     2     -5.4423304      7  1.100                                                                 
  local pseudopotential read in
  partial core-charges read in
  partial kinetic energy density read in
  atomic valenz-charges read in
  non local Contribution for L=           0  read in
    real space projection operators read in
  non local Contribution for L=           0  read in
    real space projection operators read in
  non local Contribution for L=           1  read in
    real space projection operators read in
  non local Contribution for L=           1  read in
    real space projection operators read in
    PAW grid and wavefunctions read in

   number of l-projection  operators is LMAX  =           4
   number of lm-projection operators is LMMAX =           8

 POTCAR:    PAW_PBE O_h 06Feb2004                 
   VRHFIN =O: s2p4                                                                                  
   LEXCH  = PE                                                                                      
   EATOM  =   432.3788 eV,   31.7789 Ry                                                             
                                                                                                    
   TITEL  = PAW_PBE O_h 06Feb2004                                                                   
   LULTRA =        F    use ultrasoft PP ?                                                          
   IUNSCR =        1    unscreen: 0-lin 1-nonlin 2-no                                               
   RPACOR =    0.800    partial core radius                                                         
   POMASS =   16.000; ZVAL   =    6.000    mass and valenz                                          
   RCORE  =    1.100    outmost cutoff radius                                                       
   RWIGS  =    1.400; RWIGS  =    0.741    wigner-seitz radius (au A)                               
   ENMAX  =  700.000; ENMIN  =  500.000 eV                                                          
   ICORE  =        2    local potential                                                             
   LCOR   =        T    correct aug charges                                                         
   LPAW   =        T    paw PP                                                                      
   EAUG   =  888.804                                                                                
   DEXC   =    0.000                                                                                
   RMAX   =    1.128    core radius for proj-oper                                                   
   RAUG   =    1.300    factor for augmentation sphere                                              
   RDEP   =    1.125    radius for radial grids                                                     
   RDEPT  =    1.088    core radius for aug-charge                                                  
                                                                                                    
   Atomic configuration                                                                             
    4 entries                                                                                       
     n  l   j            E        occ.                                                              
     1  0  0.50      -514.6923   2.0000                                                             
     2  0  0.50       -23.9615   2.0000                                                             
     2  1  0.50        -9.0305   4.0000                                                             
     3  2  1.50        -9.5241   0.0000                                                             
   Description                                                                                      
     l       E           TYP  RCUT    TYP  RCUT                                                     
     0    -23.9615319     23  1.100                                                                 
     0    -25.3221145     23  1.100                                                                 
     1     -9.0304911     23  1.100                                                                 
     1     -5.4802209     23  1.100                                                                 
     2     -9.5240782      7  1.100                                                                 
  local pseudopotential read in
  partial core-charges read in
  partial kinetic energy density read in
  atomic valenz-charges read in
  non local Contribution for L=           0  read in
    real space projection operators read in
  non local Contribution for L=           0  read in
    real space projection operators read in
  non local Contribution for L=           1  read in
    real space projection operators read in
  non local Contribution for L=           1  read in
    real space projection operators read in
    PAW grid and wavefunctions read in

   number of l-projection  operators is LMAX  =           4
   number of lm-projection operators is LMMAX =           8

 -----------------------------------------------------------------------------
|                                                                             |
|               ----> ADVICE to this user running VASP <----                  |
|                                                                             |
|     You enforced a specific xc type in the INCAR file but a different       |
|     type was found in the POTCAR file.                                      |
|     I HOPE YOU KNOW WHAT YOU ARE DOING!                                     |
|                                                                             |
 -----------------------------------------------------------------------------

  PAW_PBE C_h 06Feb2004                 :
 energy of atom  1       EATOM= -147.1560
 kinetic energy error for atom=    0.0031 (will be added to EATOM!!)
  PAW_PBE O_h 06Feb2004                 :
 energy of atom  2       EATOM= -432.3788
 kinetic energy error for atom=    0.0171 (will be added to EATOM!!)


 POSCAR:  C  O
  positions in cartesian coordinates
  No initial velocities read in
 exchange correlation table for  LEXCH =       43
   RHO(1)=    0.500       N(1)  =     2000
   RHO(2)=  100.500       N(2)  =     4000

 VTST: version 4.1, (05/19/21)

 CHAIN: initializing optimizer
 
 OPT: Using VASP Dynamics algorithm
 CHAIN: Read ICHAIN            0

 POSCAR:  C  O
  positions in cartesian coordinates
  No initial velocities read in



--------------------------------------------------------------------------------------------------------


 ion  position               nearest neighbor table
   1  0.060  0.060  0.060-   5 1.17   6 1.17
   2  0.560  0.060  0.560-   8 1.17   7 1.17
   3  0.060  0.560  0.560-  10 1.17   9 1.17
   4  0.560  0.560  0.060-  12 1.17  11 1.17
   5  0.180  0.180  0.180-   1 1.17
   6  0.940  0.940  0.940-   1 1.17
   7  0.440  0.940  0.680-   2 1.17
   8  0.680  0.180  0.440-   2 1.17
   9  0.940  0.680  0.440-   3 1.17
  10  0.180  0.440  0.680-   3 1.17
  11  0.680  0.440  0.940-   4 1.17
  12  0.440  0.680  0.180-   4 1.17

  LATTYP: Found a simple cubic cell.
 ALAT       =     5.6240000000
  
  Lattice vectors:
  
 A1 = (   5.6240000000,   0.0000000000,   0.0000000000)
 A2 = (   0.0000000000,   5.6240000000,   0.0000000000)
 A3 = (   0.0000000000,   0.0000000000,   5.6240000000)


Analysis of symmetry for initial positions (statically):
=====================================================================
 Subroutine PRICEL returns:
 Original cell was already a primitive cell.
 

 Routine SETGRP: Setting up the symmetry group for a 
 simple cubic supercell.


 Subroutine GETGRP returns: Found 24 space group operations
 (whereof  3 operations were pure point group operations)
 out of a pool of 48 trial point group operations.


The static configuration has the point symmetry C_3 .
 The point group associated with its full space group is T_h .


Analysis of symmetry for dynamics (positions and initial velocities):
=====================================================================
 Subroutine PRICEL returns:
 Original cell was already a primitive cell.
 

 Routine SETGRP: Setting up the symmetry group for a 
 simple cubic supercell.


 Subroutine GETGRP returns: Found 24 space group operations
 (whereof  3 operations were pure point group operations)
 out of a pool of 48 trial point group operations.


The dynamic configuration has the point symmetry C_3 .
 The point group associated with its full space group is T_h .


 Subroutine INISYM returns: Found 24 space group operations
 (whereof  3 operations are pure point group operations),
 and found     1 'primitive' translations


----------------------------------------------------------------------------------------

                                     Primitive cell                                     

  volume of cell :     177.8836

  direct lattice vectors                    reciprocal lattice vectors
     5.624000000  0.000000000  0.000000000     0.177809388  0.000000000  0.000000000
     0.000000000  5.624000000  0.000000000     0.000000000  0.177809388  0.000000000
     0.000000000  0.000000000  5.624000000     0.000000000  0.000000000  0.177809388

  length of vectors
     5.624000000  5.624000000  5.624000000     0.177809388  0.177809388  0.177809388

  position of ions in fractional coordinates (direct lattice)
     0.059987786  0.059987776  0.059987775
     0.559987778  0.059987768  0.559987763
     0.059987778  0.559987765  0.559987768
     0.559987773  0.559987770  0.059987770
     0.179963330  0.179963313  0.179963318
     0.940012222  0.940012223  0.940012218
     0.440012229  0.940012232  0.679963321
     0.679963320  0.179963309  0.440012217
     0.940012202  0.679963342  0.440012187
     0.179963354  0.440012195  0.679963346
     0.679963307  0.440012225  0.940012230
     0.440012246  0.679963308  0.179963311

  ion indices of the primitive-cell ions
   primitive index   ion index
                 1           1
                 2           2
                 3           3
                 4           4
                 5           5
                 6           6
                 7           7
                 8           8
                 9           9
                10          10
                11          11
                12          12

----------------------------------------------------------------------------------------



 KPOINTS: auto                                    

Automatic generation of k-mesh.
 Grid dimensions read from file:
 generate k-points for:    5    5    5

 Generating k-lattice:

  Cartesian coordinates                     Fractional coordinates (reciprocal lattice)
     0.035561878  0.000000000  0.000000000     0.200000000  0.000000000  0.000000000
     0.000000000  0.035561878  0.000000000     0.000000000  0.200000000  0.000000000
     0.000000000  0.000000000  0.035561878     0.000000000  0.000000000  0.200000000

  Length of vectors
     0.035561878  0.035561878  0.035561878

  Shift w.r.t. Gamma in fractional coordinates (k-lattice)
     0.000000000  0.000000000  0.000000000

 
 Subroutine IBZKPT returns following result:
 ===========================================
 
 Found     11 irreducible k-points:
 
 Following reciprocal coordinates:
            Coordinates               Weight
  0.000000  0.000000  0.000000      1.000000
  0.200000  0.000000  0.000000      6.000000
  0.400000  0.000000  0.000000      6.000000
  0.200000  0.200000  0.000000     12.000000
  0.400000  0.200000  0.000000     12.000000
 -0.200000  0.400000  0.000000     12.000000
  0.400000  0.400000  0.000000     12.000000
  0.200000  0.200000  0.200000      8.000000
  0.400000  0.200000  0.200000     24.000000
  0.400000  0.400000  0.200000     24.000000
  0.400000  0.400000  0.400000      8.000000
 
 Following cartesian coordinates:
            Coordinates               Weight
  0.000000  0.000000  0.000000      1.000000
  0.035562  0.000000  0.000000      6.000000
  0.071124  0.000000  0.000000      6.000000
  0.035562  0.035562  0.000000     12.000000
  0.071124  0.035562  0.000000     12.000000
 -0.035562  0.071124  0.000000     12.000000
  0.071124  0.071124  0.000000     12.000000
  0.035562  0.035562  0.035562      8.000000
  0.071124  0.035562  0.035562     24.000000
  0.071124  0.071124  0.035562     24.000000
  0.071124  0.071124  0.071124      8.000000
 


--------------------------------------------------------------------------------------------------------




 Dimension of arrays:
   k-points           NKPTS =     11   k-points in BZ     NKDIM =     11   number of bands    NBANDS=     40
   number of dos      NEDOS =    301   number of ions     NIONS =     12
   non local maximal  LDIM  =      4   non local SUM 2l+1 LMDIM =      8
   total plane-waves  NPLWV = 216000
   max r-space proj   IRMAX =      1   max aug-charges    IRDMAX=   9054
   dimension x,y,z NGX =    60 NGY =   60 NGZ =   60
   dimension x,y,z NGXF=   120 NGYF=  120 NGZF=  120
   support grid    NGXF=   120 NGYF=  120 NGZF=  120
   ions per type =               4   8
   NGX,Y,Z   is equivalent  to a cutoff of  17.74, 17.74, 17.74 a.u.
   NGXF,Y,Z  is equivalent  to a cutoff of  35.47, 35.47, 35.47 a.u.

 SYSTEM =  unknown system                          
 POSCAR =   C  O                                   

 Startparameter for this run:
   NWRITE =      2    write-flag & timer
   PREC   = accura    normal or accurate (medium, high low for compatibility)
   ISTART =      0    job   : 0-new  1-cont  2-samecut
   ICHARG =      2    charge: 1-file 2-atom 10-const
   ISPIN  =      1    spin polarized calculation?
   LNONCOLLINEAR =      F non collinear calculations
   LSORBIT =      F    spin-orbit coupling
   INIWAV =      1    electr: 0-lowe 1-rand  2-diag
   LASPH  =      T    aspherical Exc in radial PAW
 Electronic Relaxation 1
   ENCUT  = 1000.0 eV  73.50 Ry    8.57 a.u.  14.50 14.50 14.50*2*pi/ulx,y,z
   ENINI  = 1000.0     initial cutoff
   ENAUG  =  946.8 eV  augmentation charge cutoff
   NELM   =     60;   NELMIN=  2; NELMDL= -5     # of ELM steps 
   EDIFF  = 0.1E-06   stopping-criterion for ELM
   LREAL  =      F    real-space projection
   NLSPLINE    = F    spline interpolate recip. space projectors
   LCOMPAT=      F    compatible to vasp.4.4
   GGA_COMPAT  = T    GGA compatible to vasp.4.4-vasp.4.6
   LMAXPAW     = -100 max onsite density
   LMAXMIX     =    2 max onsite mixed and CHGCAR
   VOSKOWN=      0    Vosko Wilk Nusair interpolation
   ROPT   =    0.00000   0.00000
 Ionic relaxation
   EDIFFG = 0.1E-05   stopping-criterion for IOM
   NSW    =      0    number of steps for IOM
   NBLOCK =      1;   KBLOCK =      1    inner block; outer block 
   IBRION =     -1    ionic relax: 0-MD 1-quasi-New 2-CG
   NFREE  =      0    steps in history (QN), initial steepest desc. (CG)
   ISIF   =      0    stress and relaxation
   IWAVPR =     10    prediction:  0-non 1-charg 2-wave 3-comb
   ISYM   =      2    0-nonsym 1-usesym 2-fastsym
   LCORR  =      T    Harris-Foulkes like correction to forces

   POTIM  = 0.5000    time-step for ionic-motion
   TEIN   =    0.0    initial temperature
   TEBEG  =    0.0;   TEEND  =   0.0 temperature during run
   SMASS  =  -3.00    Nose mass-parameter (am)
   estimated Nose-frequenzy (Omega)   =  0.10E-29 period in steps = 0.13E+47 mass=  -0.723E-27a.u.
   SCALEE = 1.0000    scale energy and forces
   NPACO  =    256;   APACO  = 10.0  distance and # of slots for P.C.
   PSTRESS=    0.0 pullay stress

  Mass of Ions in am
   POMASS =  12.01 16.00
  Ionic Valenz
   ZVAL   =   4.00  6.00
  Atomic Wigner-Seitz radii
   RWIGS  =  -1.00 -1.00
  virtual crystal weights 
   VCA    =   1.00  1.00
   NELECT =      64.0000    total number of electrons
   NUPDOWN=      -1.0000    fix difference up-down

 DOS related values:
   EMIN   =  10.00;   EMAX   =-10.00  energy-range for DOS
   EFERMI =   0.00;   METHOD = LEGACY      
   ISMEAR =     0;   SIGMA  =   0.01  broadening in eV -4-tet -1-fermi 0-gaus

 Electronic relaxation 2 (details)
   IALGO  =     58    algorithm
   LDIAG  =      T    sub-space diagonalisation (order eigenvalues)
   LSUBROT=      F    optimize rotation matrix (better conditioning)
   TURBO    =      0    0=normal 1=particle mesh
   IRESTART =      0    0=no restart 2=restart with 2 vectors
   NREBOOT  =      0    no. of reboots
   NMIN     =      0    reboot dimension
   EREF     =   0.00    reference energy to select bands
   IMIX   =      4    mixing-type and parameters
     AMIX     =   0.40;   BMIX     =  1.00
     AMIX_MAG =   1.60;   BMIX_MAG =  1.00
     AMIN     =   0.10
     WC   =   100.;   INIMIX=   1;  MIXPRE=   1;  MAXMIX= -45

 Intra band minimization:
   WEIMIN = 0.0000     energy-eigenvalue tresh-hold
   EBREAK =  0.63E-09  absolut break condition
   DEPER  =   0.30     relativ break condition  

   TIME   =   0.40     timestep for ELM

  volume/ion in A,a.u.               =      14.82       100.03
  Fermi-wavevector in a.u.,A,eV,Ry     =   1.164366  2.200333 18.446073  1.355748
  Thomas-Fermi vector in A             =   2.300905

 Write flags
   LWAVE        =      F    write WAVECAR
   LDOWNSAMPLE  =      F    k-point downsampling of WAVECAR
   LCHARG       =      T    write CHGCAR
   LVTOT        =      F    write LOCPOT, total local potential
   LVHAR        =      F    write LOCPOT, Hartree potential only
   LELF         =      F    write electronic localiz. function (ELF)
   LORBIT       =      0    0 simple, 1 ext, 2 COOP (PROOUT), +10 PAW based schemes


 Dipole corrections
   LMONO  =      F    monopole corrections only (constant potential shift)
   LDIPOL =      F    correct potential (dipole corrections)
   IDIPOL =      0    1-x, 2-y, 3-z, 4-all directions 
   EPSILON=  1.0000000 bulk dielectric constant

 Exchange correlation treatment:
   GGA     =    MK    GGA type
   LEXCH   =    43    internal setting for exchange type
   LIBXC   =     F    Libxc                    
   VOSKOWN =     0    Vosko Wilk Nusair interpolation
   LHFCALC =     F    Hartree Fock is set to
   LHFONE  =     F    Hartree Fock one center treatment
   AEXX    =    0.0000 exact exchange contribution

 vdW DFT:
   LUSE_VDW   =     T    switch on vdW DFT
   IVDW_NL    =     1    kernel type
   LSPIN_VDW  =     F    use spin-polarized vdW DFT
   Zab_VDW    =-.8491    correlation parameter
   PARAM1     =0.1234
   PARAM2     =1.0000
   PARAM3     =0.0000
   -- rVV10 --
   BPARAM     = 6.3000
   CPARAM     = 0.0093

 Linear response parameters
   LEPSILON=     F    determine dielectric tensor
   LRPA    =     F    only Hartree local field effects (RPA)
   LNABLA  =     F    use nabla operator in PAW spheres
   LVEL    =     F    velocity operator in full k-point grid
   CSHIFT  =0.1000    complex shift for real part using Kramers Kronig
   OMEGAMAX=  -1.0    maximum frequency
   DEG_THRESHOLD= 0.2000000E-02 threshold for treating states as degnerate
   RTIME   =   -0.100 relaxation time in fs
  (WPLASMAI=    0.000 imaginary part of plasma frequency in eV, 0.658/RTIME)
   DFIELD  = 0.0000000 0.0000000 0.0000000 field for delta impulse in time

  Optional k-point grid parameters
   LKPOINTS_OPT  =     F    use optional k-point grid
   KPOINTS_OPT_MODE=     1    mode for optional k-point grid

 Orbital magnetization related:
   ORBITALMAG=     F  switch on orbital magnetization
   LCHIMAG   =     F  perturbation theory with respect to B field
   DQ        =  0.001000  dq finite difference perturbation B field
   LLRAUG    =     F  two centre corrections for induced B field
   LBONE     =     F  B-component reconstruction in AE one-centre
   LVGVCALC  =     T  calculate vGv susceptibility
   LVGVAPPL  =     F  apply vGv susceptibility instead of pGv for G=0

 Random number generation:
   RANDOM_GENERATOR = DEFAULT
   PCG_SEED         = not used


--------------------------------------------------------------------------------------------------------


 Static calculation
 charge density and potential will be updated during run
 non-spin polarized calculation
 Conjugate gradient for all bands (Freysoldt, et al. PRB 79, 241103 (2009))
 preconditioned conjugated gradient                                        
 perform sub-space diagonalisation
    before iterative eigenvector-optimisation
 modified Broyden-mixing scheme, WC =      100.0
 initial mixing is a Kerker type mixing with AMIX =  0.4000 and BMIX =      1.0000
 Hartree-type preconditioning will be used
 using additional bands            8
 reciprocal scheme for non local part
 use partial core corrections
 no Harris-corrections to forces 
 use gradient corrections 
 use of overlap-Matrix (Vanderbilt PP)
 Gauss-broadening in eV      SIGMA  =   0.01


--------------------------------------------------------------------------------------------------------


  energy-cutoff  :     1000.00
  volume of cell :      177.88
      direct lattice vectors                 reciprocal lattice vectors
     5.624000000  0.000000000  0.000000000     0.177809388  0.000000000  0.000000000
     0.000000000  5.624000000  0.000000000     0.000000000  0.177809388  0.000000000
     0.000000000  0.000000000  5.624000000     0.000000000  0.000000000  0.177809388

  length of vectors
     5.624000000  5.624000000  5.624000000     0.177809388  0.177809388  0.177809388



 k-points in units of 2pi/SCALE and weight: auto                                    
   0.00000000  0.00000000  0.00000000       0.008
   0.03556188  0.00000000  0.00000000       0.048
   0.07112376  0.00000000  0.00000000       0.048
   0.03556188  0.03556188  0.00000000       0.096
   0.07112376  0.03556188  0.00000000       0.096
  -0.03556188  0.07112376  0.00000000       0.096
   0.07112376  0.07112376  0.00000000       0.096
   0.03556188  0.03556188  0.03556188       0.064
   0.07112376  0.03556188  0.03556188       0.192
   0.07112376  0.07112376  0.03556188       0.192
   0.07112376  0.07112376  0.07112376       0.064

 k-points in reciprocal lattice and weights: auto                                    
   0.00000000  0.00000000  0.00000000       0.008
   0.20000000  0.00000000  0.00000000       0.048
   0.40000000  0.00000000  0.00000000       0.048
   0.20000000  0.20000000  0.00000000       0.096
   0.40000000  0.20000000  0.00000000       0.096
  -0.20000000  0.40000000  0.00000000       0.096
   0.40000000  0.40000000  0.00000000       0.096
   0.20000000  0.20000000  0.20000000       0.064
   0.40000000  0.20000000  0.20000000       0.192
   0.40000000  0.40000000  0.20000000       0.192
   0.40000000  0.40000000  0.40000000       0.064

 position of ions in fractional coordinates (direct lattice) 
   0.05998779  0.05998778  0.05998778
   0.55998778  0.05998777  0.55998776
   0.05998778  0.55998777  0.55998777
   0.55998777  0.55998777  0.05998777
   0.17996333  0.17996331  0.17996332
   0.94001222  0.94001222  0.94001222
   0.44001223  0.94001223  0.67996332
   0.67996332  0.17996331  0.44001222
   0.94001220  0.67996334  0.44001219
   0.17996335  0.44001220  0.67996335
   0.67996331  0.44001223  0.94001223
   0.44001225  0.67996331  0.17996331

 position of ions in cartesian coordinates  (Angst):
   0.33737131  0.33737125  0.33737125
   3.14937126  0.33737121  3.14937118
   0.33737126  3.14937119  3.14937121
   3.14937123  3.14937122  0.33737122
   1.01211377  1.01211367  1.01211370
   5.28662874  5.28662874  5.28662871
   2.47462878  5.28662879  3.82411372
   3.82411371  1.01211365  2.47462871
   5.28662862  3.82411384  2.47462854
   1.01211391  2.47462859  3.82411386
   3.82411364  2.47462875  5.28662878
   2.47462887  3.82411364  1.01211366



--------------------------------------------------------------------------------------------------------


 k-point   1 :   0.0000 0.0000 0.0000  plane waves:   12893
 k-point   2 :   0.2000 0.0000 0.0000  plane waves:   12817
 k-point   3 :   0.4000 0.0000 0.0000  plane waves:   12773
 k-point   4 :   0.2000 0.2000 0.0000  plane waves:   12779
 k-point   5 :   0.4000 0.2000 0.0000  plane waves:   12768
 k-point   6 :  -0.2000 0.4000 0.0000  plane waves:   12768
 k-point   7 :   0.4000 0.4000 0.0000  plane waves:   12758
 k-point   8 :   0.2000 0.2000 0.2000  plane waves:   12782
 k-point   9 :   0.4000 0.2000 0.2000  plane waves:   12778
 k-point  10 :   0.4000 0.4000 0.2000  plane waves:   12779
 k-point  11 :   0.4000 0.4000 0.4000  plane waves:   12769

 maximum and minimum number of plane-waves per node :       416      382

 maximum number of plane-waves:     12893
 maximum index in each direction: 
   IXMAX=   14   IYMAX=   14   IZMAX=   14
   IXMIN=  -14   IYMIN=  -14   IZMIN=  -14


 parallel 3D FFT for wavefunctions:
    minimum data exchange during FFTs selected (reduces bandwidth)
 parallel 3D FFT for charge:
    minimum data exchange during FFTs selected (reduces bandwidth)


 total amount of memory used by VASP MPI-rank0    34643. kBytes
=======================================================================

   base      :      30000. kBytes
   nonl-proj :        640. kBytes
   fftplans  :        741. kBytes
   grid      :       1105. kBytes
   one-center:          3. kBytes
   wavefun   :       2154. kBytes

     INWAV:  cpu time      0.0001: real time      0.0003
 Broyden mixing: mesh for mixing (old mesh)
   NGX = 29   NGY = 29   NGZ = 29
  (NGX  =120   NGY  =120   NGZ  =120)
  gives a total of  24389 points

 initial charge density was supplied:
 charge density of overlapping atoms calculated
 number of electron      64.0000000 magnetization 
 keeping initial charge density in first step


--------------------------------------------------------------------------------------------------------


 Maximum index for augmentation-charges          345 (set IRDMAX)


--------------------------------------------------------------------------------------------------------


 First call to EWALD:  gamma=   0.315
 Maximum number of real-space cells 3x 3x 3
 Maximum number of reciprocal cells 3x 3x 3

    FEWALD:  cpu time      0.0019: real time      0.0019


--------------------------------------- Ionic step        1  -------------------------------------------




--------------------------------------- Iteration      1(   1)  ---------------------------------------


vdW kernel read from vdw_kernel.bindat
  0.0000  0.2424  0.5071  0.7962  1.1119  1.4567  1.8333  2.2446  2.6937  3.1842
  3.7199  4.3049  4.9438  5.6415  6.4036  7.2358  8.1446  9.1372 10.2212 11.4050
 12.6979 14.1099 15.6519 17.3360 19.1751 21.1837 23.3773 25.7729 28.3892 31.2465
 34.3669 37.7748 41.4965 45.5611 50.0000

    POTLOK:  cpu time      1.2269: real time      1.2299
    SETDIJ:  cpu time      0.0725: real time      0.0727
    TRIAL :  cpu time      0.3680: real time      0.3800
    CORREC:  cpu time      0.0008: real time      0.0010
    --------------------------------------------
      LOOP:  cpu time      1.6706: real time      1.7217

 eigenvalue-minimisations  :   880
 total energy-change (2. order) : 0.7446319E+03  (-0.4888319E+04)
 number of electron      64.0000000 magnetization 
 augmentation part       64.0000000 magnetization 

 Free energy of the ion-electron system (eV)
  ---------------------------------------------------
  alpha Z        PSCENC =        64.50308324
  Ewald energy   TEWEN  =     -2171.10254707
  -Hartree energ DENC   =     -1496.95817215
  -exchange      EXHF   =         0.00000000
  -V(xc)+E(xc)   XCENC  =       232.95227121
  PAW double counting   =      3240.02258265    -3221.22348014
  entropy T*S    EENTRO =        -0.00059731
  eigenvalues    EBANDS =        34.46929845
  atomic energy  EATOM  =      4061.96947726
  ---------------------------------------------------
  free energy    TOTEN  =       744.63191614 eV

  energy without entropy =      744.63251345  energy(sigma->0) =      744.63221479


--------------------------------------------------------------------------------------------------------




--------------------------------------- Iteration      1(   2)  ---------------------------------------


    TRIAL :  cpu time      0.3959: real time      0.3959
    CORREC:  cpu time      0.0001: real time      0.0001
    --------------------------------------------
      LOOP:  cpu time      0.4081: real time      0.4259

 eigenvalue-minimisations  :  1272
 total energy-change (2. order) :-0.7167840E+03  (-0.6945850E+03)
 number of electron      64.0000000 magnetization 
 augmentation part       64.0000000 magnetization 

 Free energy of the ion-electron system (eV)
  ---------------------------------------------------
  alpha Z        PSCENC =        64.50308324
  Ewald energy   TEWEN  =     -2171.10254707
  -Hartree energ DENC   =     -1496.95817215
  -exchange      EXHF   =         0.00000000
  -V(xc)+E(xc)   XCENC  =       232.95227121
  PAW double counting   =      3240.02258265    -3221.22348014
  entropy T*S    EENTRO =        -0.00000000
  eigenvalues    EBANDS =      -682.31531349
  atomic energy  EATOM  =      4061.96947726
  ---------------------------------------------------
  free energy    TOTEN  =        27.84790151 eV

  energy without entropy =       27.84790151  energy(sigma->0) =       27.84790151


--------------------------------------------------------------------------------------------------------




--------------------------------------- Iteration      1(   3)  ---------------------------------------


    TRIAL :  cpu time      0.3382: real time      0.3382
    CORREC:  cpu time      0.0001: real time      0.0001
    --------------------------------------------
      LOOP:  cpu time      0.3509: real time      0.3673

 eigenvalue-minimisations  :  1056
 total energy-change (2. order) :-0.1049270E+03  (-0.1039187E+03)
 number of electron      64.0000000 magnetization 
 augmentation part       64.0000000 magnetization 

 Free energy of the ion-electron system (eV)
  ---------------------------------------------------
  alpha Z        PSCENC =        64.50308324
  Ewald energy   TEWEN  =     -2171.10254707
  -Hartree energ DENC   =     -1496.95817215
  -exchange      EXHF   =         0.00000000
  -V(xc)+E(xc)   XCENC  =       232.95227121
  PAW double counting   =      3240.02258265    -3221.22348014
  entropy T*S    EENTRO =        -0.00000000
  eigenvalues    EBANDS =      -787.24231177
  atomic energy  EATOM  =      4061.96947726
  ---------------------------------------------------
  free energy    TOTEN  =       -77.07909677 eV

  energy without entropy =      -77.07909677  energy(sigma->0) =      -77.07909677


--------------------------------------------------------------------------------------------------------




--------------------------------------- Iteration      1(   4)  ---------------------------------------


    TRIAL :  cpu time      0.3710: real time      0.3713
    CORREC:  cpu time      0.0001: real time      0.0001
    --------------------------------------------
      LOOP:  cpu time      0.3842: real time      0.4014

 eigenvalue-minimisations  :  1208
 total energy-change (2. order) :-0.3767320E+01  (-0.3745933E+01)
 number of electron      64.0000000 magnetization 
 augmentation part       64.0000000 magnetization 

 Free energy of the ion-electron system (eV)
  ---------------------------------------------------
  alpha Z        PSCENC =        64.50308324
  Ewald energy   TEWEN  =     -2171.10254707
  -Hartree energ DENC   =     -1496.95817215
  -exchange      EXHF   =         0.00000000
  -V(xc)+E(xc)   XCENC  =       232.95227121
  PAW double counting   =      3240.02258265    -3221.22348014
  entropy T*S    EENTRO =        -0.00000000
  eigenvalues    EBANDS =      -791.00963194
  atomic energy  EATOM  =      4061.96947726
  ---------------------------------------------------
  free energy    TOTEN  =       -80.84641694 eV

  energy without entropy =      -80.84641694  energy(sigma->0) =      -80.84641694


--------------------------------------------------------------------------------------------------------




--------------------------------------- Iteration      1(   5)  ---------------------------------------


    TRIAL :  cpu time      0.3482: real time      0.3482
    CORREC:  cpu time      0.0001: real time      0.0001
    CHARGE:  cpu time      0.0691: real time      0.0694
    --------------------------------------------
      LOOP:  cpu time      0.4291: real time      0.4478

 eigenvalue-minimisations  :  1096
 total energy-change (2. order) :-0.1161170E+00  (-0.1158693E+00)
 number of electron      64.0000001 magnetization 
 augmentation part        0.5214905 magnetization 

 Free energy of the ion-electron system (eV)
  ---------------------------------------------------
  alpha Z        PSCENC =        64.50308324
  Ewald energy   TEWEN  =     -2171.10254707
  -Hartree energ DENC   =     -1496.95817215
  -exchange      EXHF   =         0.00000000
  -V(xc)+E(xc)   XCENC  =       232.95227121
  PAW double counting   =      3240.02258265    -3221.22348014
  entropy T*S    EENTRO =        -0.00000000
  eigenvalues    EBANDS =      -791.12574897
  atomic energy  EATOM  =      4061.96947726
  ---------------------------------------------------
  free energy    TOTEN  =       -80.96253397 eV

  energy without entropy =      -80.96253397  energy(sigma->0) =      -80.96253397


--------------------------------------------------------------------------------------------------------




--------------------------------------- Iteration      1(   6)  ---------------------------------------


    POTLOK:  cpu time      0.6333: real time      0.6337
    SETDIJ:  cpu time      0.0676: real time      0.0676
    TRIAL :  cpu time      0.2044: real time      0.2062
    CORREC:  cpu time      0.8625: real time      0.8634
    CHARGE:  cpu time      0.0534: real time      0.0534
    --------------------------------------------
      LOOP:  cpu time      1.8353: real time      1.8514

 eigenvalue-minimisations  :     0
 total energy-change (2. order) : 0.1585342E+02  (-0.8143341E+01)
 number of electron      64.0000001 magnetization 
 augmentation part        0.3804466 magnetization 

 Free energy of the ion-electron system (eV)
  ---------------------------------------------------
  alpha Z        PSCENC =        64.50308324
  Ewald energy   TEWEN  =     -2171.10254707
  -Hartree energ DENC   =     -1775.77799135
  -exchange      EXHF   =         0.00000000
  -V(xc)+E(xc)   XCENC  =       251.16874206
  PAW double counting   =     37791.99565548   -37777.86212910
  entropy T*S    EENTRO =        -0.00000000
  eigenvalues    EBANDS =      -510.00340778
  atomic energy  EATOM  =      4061.96947726
  ---------------------------------------------------
  free energy    TOTEN  =       -65.10911726 eV

  energy without entropy =      -65.10911726  energy(sigma->0) =      -65.10911726


--------------------------------------------------------------------------------------------------------




--------------------------------------- Iteration      1(   7)  ---------------------------------------


    POTLOK:  cpu time      0.6322: real time      0.6325
    SETDIJ:  cpu time      0.0676: real time      0.0676
    TRIAL :  cpu time      0.1822: real time      0.1822
    CORREC:  cpu time      0.8520: real time      0.8523
    CHARGE:  cpu time      0.0533: real time      0.0533
    --------------------------------------------
      LOOP:  cpu time      1.8161: real time      1.8168

 eigenvalue-minimisations  :     0
 total energy-change (2. order) :-0.8185511E+01  (-0.1008473E+01)
 number of electron      64.0000001 magnetization 
 augmentation part        0.2889487 magnetization 

 Free energy of the ion-electron system (eV)
  ---------------------------------------------------
  alpha Z        PSCENC =        64.50308324
  Ewald energy   TEWEN  =     -2171.10254707
  -Hartree energ DENC   =     -1616.01610723
  -exchange      EXHF   =         0.00000000
  -V(xc)+E(xc)   XCENC  =       240.83035788
  PAW double counting   =     44275.54211589   -44259.22330693
  entropy T*S    EENTRO =        -0.00000000
  eigenvalues    EBANDS =      -669.79770147
  atomic energy  EATOM  =      4061.96947726
  ---------------------------------------------------
  free energy    TOTEN  =       -73.29462843 eV

  energy without entropy =      -73.29462843  energy(sigma->0) =      -73.29462843


--------------------------------------------------------------------------------------------------------




--------------------------------------- Iteration      1(   8)  ---------------------------------------


    POTLOK:  cpu time      0.6320: real time      0.6322
    SETDIJ:  cpu time      0.0677: real time      0.0677
    TRIAL :  cpu time      0.1814: real time      0.1814
    CORREC:  cpu time      0.8502: real time      0.8504
    CHARGE:  cpu time      0.0533: real time      0.0533
    --------------------------------------------
      LOOP:  cpu time      1.7975: real time      1.8135

 eigenvalue-minimisations  :     0
 total energy-change (2. order) :-0.1008004E+01  (-0.2675681E+00)
 number of electron      64.0000001 magnetization 
 augmentation part        0.2822155 magnetization 

 Free energy of the ion-electron system (eV)
  ---------------------------------------------------
  alpha Z        PSCENC =        64.50308324
  Ewald energy   TEWEN  =     -2171.10254707
  -Hartree energ DENC   =     -1621.49466627
  -exchange      EXHF   =         0.00000000
  -V(xc)+E(xc)   XCENC  =       240.98087333
  PAW double counting   =     44437.78191404   -44421.03938733
  entropy T*S    EENTRO =        -0.00000000
  eigenvalues    EBANDS =      -665.90138013
  atomic energy  EATOM  =      4061.96947726
  ---------------------------------------------------
  free energy    TOTEN  =       -74.30263292 eV

  energy without entropy =      -74.30263292  energy(sigma->0) =      -74.30263292


--------------------------------------------------------------------------------------------------------




--------------------------------------- Iteration      1(   9)  ---------------------------------------


    POTLOK:  cpu time      0.6317: real time      0.6317
    SETDIJ:  cpu time      0.0676: real time      0.0676
    TRIAL :  cpu time      0.1813: real time      0.1815
    CORREC:  cpu time      0.8500: real time      0.8501
    CHARGE:  cpu time      0.0532: real time      0.0532
    --------------------------------------------
      LOOP:  cpu time      1.7957: real time      1.8141

 eigenvalue-minimisations  :     0
 total energy-change (2. order) :-0.2675614E+00  (-0.7186718E-01)
 number of electron      64.0000001 magnetization 
 augmentation part        0.2848846 magnetization 

 Free energy of the ion-electron system (eV)
  ---------------------------------------------------
  alpha Z        PSCENC =        64.50308324
  Ewald energy   TEWEN  =     -2171.10254707
  -Hartree energ DENC   =     -1624.90708004
  -exchange      EXHF   =         0.00000000
  -V(xc)+E(xc)   XCENC  =       241.15513711
  PAW double counting   =     45379.86215034   -45363.09805152
  entropy T*S    EENTRO =        -0.00000000
  eigenvalues    EBANDS =      -662.95236368
  atomic energy  EATOM  =      4061.96947726
  ---------------------------------------------------
  free energy    TOTEN  =       -74.57019436 eV

  energy without entropy =      -74.57019436  energy(sigma->0) =      -74.57019436


--------------------------------------------------------------------------------------------------------




--------------------------------------- Iteration      1(  10)  ---------------------------------------


    POTLOK:  cpu time      0.6326: real time      0.6326
    SETDIJ:  cpu time      0.0676: real time      0.0676
    TRIAL :  cpu time      0.1814: real time      0.1814
    CORREC:  cpu time      0.8505: real time      0.8508
    CHARGE:  cpu time      0.0535: real time      0.0535
    --------------------------------------------
      LOOP:  cpu time      1.7998: real time      1.8161

 eigenvalue-minimisations  :     0
 total energy-change (2. order) :-0.7177273E-01  (-0.2315408E-01)
 number of electron      64.0000001 magnetization 
 augmentation part        0.2865964 magnetization 

 Free energy of the ion-electron system (eV)
  ---------------------------------------------------
  alpha Z        PSCENC =        64.50308324
  Ewald energy   TEWEN  =     -2171.10254707
  -Hartree energ DENC   =     -1621.19052138
  -exchange      EXHF   =         0.00000000
  -V(xc)+E(xc)   XCENC  =       240.91394482
  PAW double counting   =     45419.24690801   -45402.47659027
  entropy T*S    EENTRO =        -0.00000000
  eigenvalues    EBANDS =      -666.50572171
  atomic energy  EATOM  =      4061.96947726
  ---------------------------------------------------
  free energy    TOTEN  =       -74.64196709 eV

  energy without entropy =      -74.64196709  energy(sigma->0) =      -74.64196709


--------------------------------------------------------------------------------------------------------




--------------------------------------- Iteration      1(  11)  ---------------------------------------


    POTLOK:  cpu time      0.6389: real time      0.6393
    SETDIJ:  cpu time      0.0677: real time      0.0677
    TRIAL :  cpu time      0.2056: real time      0.2056
    CORREC:  cpu time      0.8886: real time      0.8889
    CHARGE:  cpu time      0.0538: real time      0.0538
    --------------------------------------------
      LOOP:  cpu time      1.8811: real time      1.8861

 eigenvalue-minimisations  :     0
 total energy-change (2. order) :-0.2314027E-01  (-0.6684238E-02)
 number of electron      64.0000001 magnetization 
 augmentation part        0.2881492 magnetization 

 Free energy of the ion-electron system (eV)
  ---------------------------------------------------
  alpha Z        PSCENC =        64.50308324
  Ewald energy   TEWEN  =     -2171.10254707
  -Hartree energ DENC   =     -1622.04325654
  -exchange      EXHF   =         0.00000000
  -V(xc)+E(xc)   XCENC  =       240.95167399
  PAW double counting   =     44948.42371766   -44931.67443433
  entropy T*S    EENTRO =        -0.00000000
  eigenvalues    EBANDS =      -665.69282158
  atomic energy  EATOM  =      4061.96947726
  ---------------------------------------------------
  free energy    TOTEN  =       -74.66510736 eV

  energy without entropy =      -74.66510736  energy(sigma->0) =      -74.66510736


--------------------------------------------------------------------------------------------------------




--------------------------------------- Iteration      1(  12)  ---------------------------------------


    POTLOK:  cpu time      0.6321: real time      0.6323
    SETDIJ:  cpu time      0.0676: real time      0.0676
    TRIAL :  cpu time      0.1821: real time      0.1821
    CORREC:  cpu time      0.8511: real time      0.8513
    CHARGE:  cpu time      0.0540: real time      0.0540
    --------------------------------------------
      LOOP:  cpu time      1.8159: real time      1.8167

 eigenvalue-minimisations  :     0
 total energy-change (2. order) :-0.6685914E-02  (-0.2576399E-02)
 number of electron      64.0000001 magnetization 
 augmentation part        0.2880370 magnetization 

 Free energy of the ion-electron system (eV)
  ---------------------------------------------------
  alpha Z        PSCENC =        64.50308324
  Ewald energy   TEWEN  =     -2171.10254707
  -Hartree energ DENC   =     -1621.83296005
  -exchange      EXHF   =         0.00000000
  -V(xc)+E(xc)   XCENC  =       240.93132344
  PAW double counting   =     44958.12867179   -44941.37882372
  entropy T*S    EENTRO =        -0.00000000
  eigenvalues    EBANDS =      -665.89001817
  atomic energy  EATOM  =      4061.96947726
  ---------------------------------------------------
  free energy    TOTEN  =       -74.67179328 eV

  energy without entropy =      -74.67179328  energy(sigma->0) =      -74.67179328


--------------------------------------------------------------------------------------------------------




--------------------------------------- Iteration      1(  13)  ---------------------------------------


    POTLOK:  cpu time      0.6323: real time      0.6325
    SETDIJ:  cpu time      0.0676: real time      0.0676
    TRIAL :  cpu time      0.1810: real time      0.1810
    CORREC:  cpu time      0.8512: real time      0.8515
    CHARGE:  cpu time      0.0535: real time      0.0535
    --------------------------------------------
      LOOP:  cpu time      1.7988: real time      1.8151

 eigenvalue-minimisations  :     0
 total energy-change (2. order) :-0.2576703E-02  (-0.1044095E-02)
 number of electron      64.0000001 magnetization 
 augmentation part        0.2877472 magnetization 

 Free energy of the ion-electron system (eV)
  ---------------------------------------------------
  alpha Z        PSCENC =        64.50308324
  Ewald energy   TEWEN  =     -2171.10254707
  -Hartree energ DENC   =     -1621.77178297
  -exchange      EXHF   =         0.00000000
  -V(xc)+E(xc)   XCENC  =       240.93119641
  PAW double counting   =     45002.56322328   -44985.80886368
  entropy T*S    EENTRO =        -0.00000000
  eigenvalues    EBANDS =      -665.95815646
  atomic energy  EATOM  =      4061.96947726
  ---------------------------------------------------
  free energy    TOTEN  =       -74.67436998 eV

  energy without entropy =      -74.67436998  energy(sigma->0) =      -74.67436998


--------------------------------------------------------------------------------------------------------




--------------------------------------- Iteration      1(  14)  ---------------------------------------


    POTLOK:  cpu time      0.6317: real time      0.6318
    SETDIJ:  cpu time      0.0674: real time      0.0677
    TRIAL :  cpu time      0.1812: real time      0.1812
    CORREC:  cpu time      0.8501: real time      0.8503
    CHARGE:  cpu time      0.0534: real time      0.0535
    --------------------------------------------
      LOOP:  cpu time      1.7971: real time      1.8139

 eigenvalue-minimisations  :     0
 total energy-change (2. order) :-0.1044308E-02  (-0.4539931E-03)
 number of electron      64.0000001 magnetization 
 augmentation part        0.2880195 magnetization 

 Free energy of the ion-electron system (eV)
  ---------------------------------------------------
  alpha Z        PSCENC =        64.50308324
  Ewald energy   TEWEN  =     -2171.10254707
  -Hartree energ DENC   =     -1621.55095353
  -exchange      EXHF   =         0.00000000
  -V(xc)+E(xc)   XCENC  =       240.91827566
  PAW double counting   =     44938.47244093   -44921.71463712
  entropy T*S    EENTRO =        -0.00000000
  eigenvalues    EBANDS =      -666.17055366
  atomic energy  EATOM  =      4061.96947726
  ---------------------------------------------------
  free energy    TOTEN  =       -74.67541429 eV

  energy without entropy =      -74.67541429  energy(sigma->0) =      -74.67541429


--------------------------------------------------------------------------------------------------------




--------------------------------------- Iteration      1(  15)  ---------------------------------------


    POTLOK:  cpu time      0.6323: real time      0.6323
    SETDIJ:  cpu time      0.0680: real time      0.0680
    TRIAL :  cpu time      0.1811: real time      0.1813
    CORREC:  cpu time      0.8505: real time      0.8505
    CHARGE:  cpu time      0.0536: real time      0.0536
    --------------------------------------------
      LOOP:  cpu time      1.8132: real time      1.8138

 eigenvalue-minimisations  :     0
 total energy-change (2. order) :-0.4539612E-03  (-0.1866888E-03)
 number of electron      64.0000001 magnetization 
 augmentation part        0.2879298 magnetization 

 Free energy of the ion-electron system (eV)
  ---------------------------------------------------
  alpha Z        PSCENC =        64.50308324
  Ewald energy   TEWEN  =     -2171.10254707
  -Hartree energ DENC   =     -1621.72269012
  -exchange      EXHF   =         0.00000000
  -V(xc)+E(xc)   XCENC  =       240.92712895
  PAW double counting   =     44851.05735215   -44834.30282296
  entropy T*S    EENTRO =        -0.00000000
  eigenvalues    EBANDS =      -666.00484970
  atomic energy  EATOM  =      4061.96947726
  ---------------------------------------------------
  free energy    TOTEN  =       -74.67586825 eV

  energy without entropy =      -74.67586825  energy(sigma->0) =      -74.67586825


--------------------------------------------------------------------------------------------------------




--------------------------------------- Iteration      1(  16)  ---------------------------------------


    POTLOK:  cpu time      0.6328: real time      0.6331
    SETDIJ:  cpu time      0.0677: real time      0.0677
    TRIAL :  cpu time      0.1813: real time      0.1814
    CORREC:  cpu time      0.8583: real time      0.8585
    CHARGE:  cpu time      0.0536: real time      0.0536
    --------------------------------------------
      LOOP:  cpu time      1.8245: real time      1.8253

 eigenvalue-minimisations  :     0
 total energy-change (2. order) :-0.1867552E-03  (-0.7248684E-04)
 number of electron      64.0000001 magnetization 
 augmentation part        0.2878596 magnetization 

 Free energy of the ion-electron system (eV)
  ---------------------------------------------------
  alpha Z        PSCENC =        64.50308324
  Ewald energy   TEWEN  =     -2171.10254707
  -Hartree energ DENC   =     -1621.60863892
  -exchange      EXHF   =         0.00000000
  -V(xc)+E(xc)   XCENC  =       240.91982765
  PAW double counting   =     44820.88585066   -44804.13113686
  entropy T*S    EENTRO =        -0.00000000
  eigenvalues    EBANDS =      -666.11197097
  atomic energy  EATOM  =      4061.96947726
  ---------------------------------------------------
  free energy    TOTEN  =       -74.67605500 eV

  energy without entropy =      -74.67605500  energy(sigma->0) =      -74.67605500


--------------------------------------------------------------------------------------------------------




--------------------------------------- Iteration      1(  17)  ---------------------------------------


    POTLOK:  cpu time      0.6328: real time      0.6331
    SETDIJ:  cpu time      0.0676: real time      0.0676
    TRIAL :  cpu time      0.1937: real time      0.1937
    CORREC:  cpu time      0.8503: real time      0.8506
    CHARGE:  cpu time      0.0534: real time      0.0534
    --------------------------------------------
      LOOP:  cpu time      1.8142: real time      1.8278

 eigenvalue-minimisations  :     0
 total energy-change (2. order) :-0.7197771E-04  (-0.2440003E-04)
 number of electron      64.0000001 magnetization 
 augmentation part        0.2876648 magnetization 

 Free energy of the ion-electron system (eV)
  ---------------------------------------------------
  alpha Z        PSCENC =        64.50308324
  Ewald energy   TEWEN  =     -2171.10254707
  -Hartree energ DENC   =     -1621.69433685
  -exchange      EXHF   =         0.00000000
  -V(xc)+E(xc)   XCENC  =       240.92555694
  PAW double counting   =     44827.71416847   -44810.96013536
  entropy T*S    EENTRO =        -0.00000000
  eigenvalues    EBANDS =      -666.03139362
  atomic energy  EATOM  =      4061.96947726
  ---------------------------------------------------
  free energy    TOTEN  =       -74.67612698 eV

  energy without entropy =      -74.67612698  energy(sigma->0) =      -74.67612698


--------------------------------------------------------------------------------------------------------




--------------------------------------- Iteration      1(  18)  ---------------------------------------


    POTLOK:  cpu time      0.6315: real time      0.6318
    SETDIJ:  cpu time      0.0677: real time      0.0677
    TRIAL :  cpu time      0.1812: real time      0.1812
    CORREC:  cpu time      0.8498: real time      0.8501
    CHARGE:  cpu time      0.0538: real time      0.0538
    --------------------------------------------
      LOOP:  cpu time      1.8134: real time      1.8142

 eigenvalue-minimisations  :     0
 total energy-change (2. order) :-0.2415902E-04  (-0.7183170E-05)
 number of electron      64.0000001 magnetization 
 augmentation part        0.2876657 magnetization 

 Free energy of the ion-electron system (eV)
  ---------------------------------------------------
  alpha Z        PSCENC =        64.50308324
  Ewald energy   TEWEN  =     -2171.10254707
  -Hartree energ DENC   =     -1621.64428385
  -exchange      EXHF   =         0.00000000
  -V(xc)+E(xc)   XCENC  =       240.92219807
  PAW double counting   =     44848.28106950   -44831.52548372
  entropy T*S    EENTRO =        -0.00000000
  eigenvalues    EBANDS =      -666.07966457
  atomic energy  EATOM  =      4061.96947726
  ---------------------------------------------------
  free energy    TOTEN  =       -74.67615114 eV

  energy without entropy =      -74.67615114  energy(sigma->0) =      -74.67615114


--------------------------------------------------------------------------------------------------------




--------------------------------------- Iteration      1(  19)  ---------------------------------------


    POTLOK:  cpu time      0.6321: real time      0.6324
    SETDIJ:  cpu time      0.0676: real time      0.0676
    TRIAL :  cpu time      0.1810: real time      0.1811
    CORREC:  cpu time      0.8513: real time      0.8516
    CHARGE:  cpu time      0.0535: real time      0.0535
    --------------------------------------------
      LOOP:  cpu time      1.7977: real time      1.8151

 eigenvalue-minimisations  :     0
 total energy-change (2. order) :-0.7041788E-05  (-0.2209884E-05)
 number of electron      64.0000001 magnetization 
 augmentation part        0.2876627 magnetization 

 Free energy of the ion-electron system (eV)
  ---------------------------------------------------
  alpha Z        PSCENC =        64.50308324
  Ewald energy   TEWEN  =     -2171.10254707
  -Hartree energ DENC   =     -1621.69525830
  -exchange      EXHF   =         0.00000000
  -V(xc)+E(xc)   XCENC  =       240.92555979
  PAW double counting   =     44860.36285467   -44843.60756172
  entropy T*S    EENTRO =        -0.00000000
  eigenvalues    EBANDS =      -666.03176606
  atomic energy  EATOM  =      4061.96947726
  ---------------------------------------------------
  free energy    TOTEN  =       -74.67615818 eV

  energy without entropy =      -74.67615818  energy(sigma->0) =      -74.67615818


--------------------------------------------------------------------------------------------------------




--------------------------------------- Iteration      1(  20)  ---------------------------------------


    POTLOK:  cpu time      0.6322: real time      0.6322
    SETDIJ:  cpu time      0.0677: real time      0.0677
    TRIAL :  cpu time      0.1809: real time      0.1811
    CORREC:  cpu time      0.8498: real time      0.8499
    CHARGE:  cpu time      0.0596: real time      0.0599
    --------------------------------------------
      LOOP:  cpu time      1.8179: real time      1.8200

 eigenvalue-minimisations  :     0
 total energy-change (2. order) :-0.2260007E-05  (-0.1055388E-05)
 number of electron      64.0000001 magnetization 
 augmentation part        0.2877058 magnetization 

 Free energy of the ion-electron system (eV)
  ---------------------------------------------------
  alpha Z        PSCENC =        64.50308324
  Ewald energy   TEWEN  =     -2171.10254707
  -Hartree energ DENC   =     -1621.66564809
  -exchange      EXHF   =         0.00000000
  -V(xc)+E(xc)   XCENC  =       240.92368167
  PAW double counting   =     44862.06821651   -44845.31265756
  entropy T*S    EENTRO =        -0.00000000
  eigenvalues    EBANDS =      -666.05976641
  atomic energy  EATOM  =      4061.96947726
  ---------------------------------------------------
  free energy    TOTEN  =       -74.67616044 eV

  energy without entropy =      -74.67616044  energy(sigma->0) =      -74.67616044


--------------------------------------------------------------------------------------------------------




--------------------------------------- Iteration      1(  21)  ---------------------------------------


    POTLOK:  cpu time      0.7011: real time      0.7012
    SETDIJ:  cpu time      0.0676: real time      0.0676
    TRIAL :  cpu time      0.1809: real time      0.1811
    CORREC:  cpu time      0.8517: real time      0.8517
    CHARGE:  cpu time      0.0537: real time      0.0537
    --------------------------------------------
      LOOP:  cpu time      1.8684: real time      1.8842

 eigenvalue-minimisations  :     0
 total energy-change (2. order) :-0.1091947E-05  (-0.5326519E-06)
 number of electron      64.0000001 magnetization 
 augmentation part        0.2877140 magnetization 

 Free energy of the ion-electron system (eV)
  ---------------------------------------------------
  alpha Z        PSCENC =        64.50308324
  Ewald energy   TEWEN  =     -2171.10254707
  -Hartree energ DENC   =     -1621.68080130
  -exchange      EXHF   =         0.00000000
  -V(xc)+E(xc)   XCENC  =       240.92460765
  PAW double counting   =     44859.30696053   -44842.55172787
  entropy T*S    EENTRO =        -0.00000000
  eigenvalues    EBANDS =      -666.04521398
  atomic energy  EATOM  =      4061.96947726
  ---------------------------------------------------
  free energy    TOTEN  =       -74.67616153 eV

  energy without entropy =      -74.67616153  energy(sigma->0) =      -74.67616153


--------------------------------------------------------------------------------------------------------




--------------------------------------- Iteration      1(  22)  ---------------------------------------


    POTLOK:  cpu time      0.6399: real time      0.6402
    SETDIJ:  cpu time      0.0676: real time      0.0676
    TRIAL :  cpu time      0.1809: real time      0.1810
    CORREC:  cpu time      0.8499: real time      0.8502
    CHARGE:  cpu time      0.0538: real time      0.0538
    --------------------------------------------
      LOOP:  cpu time      1.8053: real time      1.8224

 eigenvalue-minimisations  :     0
 total energy-change (2. order) :-0.5637849E-06  (-0.2418002E-06)
 number of electron      64.0000001 magnetization 
 augmentation part        0.2877155 magnetization 

 Free energy of the ion-electron system (eV)
  ---------------------------------------------------
  alpha Z        PSCENC =        64.50308324
  Ewald energy   TEWEN  =     -2171.10254707
  -Hartree energ DENC   =     -1621.67685557
  -exchange      EXHF   =         0.00000000
  -V(xc)+E(xc)   XCENC  =       240.92434557
  PAW double counting   =     44857.79982708   -44841.04459552
  entropy T*S    EENTRO =        -0.00000000
  eigenvalues    EBANDS =      -666.04889709
  atomic energy  EATOM  =      4061.96947726
  ---------------------------------------------------
  free energy    TOTEN  =       -74.67616210 eV

  energy without entropy =      -74.67616210  energy(sigma->0) =      -74.67616210


--------------------------------------------------------------------------------------------------------




--------------------------------------- Iteration      1(  23)  ---------------------------------------


    POTLOK:  cpu time      0.6317: real time      0.6319
    SETDIJ:  cpu time      0.0677: real time      0.0677
    TRIAL :  cpu time      0.1809: real time      0.1810
    CORREC:  cpu time      0.8498: real time      0.8501
    CHARGE:  cpu time      0.0534: real time      0.0534
    --------------------------------------------
      LOOP:  cpu time      1.8130: real time      1.8138

 eigenvalue-minimisations  :     0
 total energy-change (2. order) :-0.2537199E-06  (-0.1023094E-06)
 number of electron      64.0000001 magnetization 
 augmentation part        0.2877221 magnetization 

 Free energy of the ion-electron system (eV)
  ---------------------------------------------------
  alpha Z        PSCENC =        64.50308324
  Ewald energy   TEWEN  =     -2171.10254707
  -Hartree energ DENC   =     -1621.67397748
  -exchange      EXHF   =         0.00000000
  -V(xc)+E(xc)   XCENC  =       240.92418298
  PAW double counting   =     44858.33361305   -44841.57833996
  entropy T*S    EENTRO =        -0.00000000
  eigenvalues    EBANDS =      -666.05165437
  atomic energy  EATOM  =      4061.96947726
  ---------------------------------------------------
  free energy    TOTEN  =       -74.67616235 eV

  energy without entropy =      -74.67616235  energy(sigma->0) =      -74.67616235


--------------------------------------------------------------------------------------------------------




--------------------------------------- Iteration      1(  24)  ---------------------------------------


    POTLOK:  cpu time      0.6319: real time      0.6321
    SETDIJ:  cpu time      0.0677: real time      0.0677
    TRIAL :  cpu time      0.1815: real time      0.1815
    CORREC:  cpu time      0.8498: real time      0.8501
    CHARGE:  cpu time      0.0531: real time      0.0531
    --------------------------------------------
      LOOP:  cpu time      1.7986: real time      1.8132

 eigenvalue-minimisations  :     0
 total energy-change (2. order) :-0.1041699E-06  (-0.2516008E-07)
 number of electron      64.0000001 magnetization 
 augmentation part        0.2877198 magnetization 

 Free energy of the ion-electron system (eV)
  ---------------------------------------------------
  alpha Z        PSCENC =        64.50308324
  Ewald energy   TEWEN  =     -2171.10254707
  -Hartree energ DENC   =     -1621.67796091
  -exchange      EXHF   =         0.00000000
  -V(xc)+E(xc)   XCENC  =       240.92444294
  PAW double counting   =     44859.00632136   -44842.25109088
  entropy T*S    EENTRO =        -0.00000000
  eigenvalues    EBANDS =      -666.04788840
  atomic energy  EATOM  =      4061.96947726
  ---------------------------------------------------
  free energy    TOTEN  =       -74.67616246 eV

  energy without entropy =      -74.67616246  energy(sigma->0) =      -74.67616246


--------------------------------------------------------------------------------------------------------




--------------------------------------- Iteration      1(  25)  ---------------------------------------


    POTLOK:  cpu time      0.6324: real time      0.6327
    SETDIJ:  cpu time      0.0677: real time      0.0677
    TRIAL :  cpu time      0.1808: real time      0.1808
    CORREC:  cpu time      0.8501: real time      0.8504
    EDDIAG:  cpu time      0.1092: real time      0.1097
    CHARGE:  cpu time      0.0531: real time      0.0531
    --------------------------------------------
      LOOP:  cpu time      1.9058: real time      1.9238

 eigenvalue-minimisations  :     0
 total energy-change (2. order) :-0.2505112E-07  (-0.9111708E-08)
 number of electron      64.0000001 magnetization 
 augmentation part        0.2877212 magnetization 

 Free energy of the ion-electron system (eV)
  ---------------------------------------------------
  alpha Z        PSCENC =        64.50308324
  Ewald energy   TEWEN  =     -2171.10254707
  -Hartree energ DENC   =     -1621.67484580
  -exchange      EXHF   =         0.00000000
  -V(xc)+E(xc)   XCENC  =       240.92424018
  PAW double counting   =     44859.13612518   -44842.38085861
  entropy T*S    EENTRO =        -0.00000000
  eigenvalues    EBANDS =      -666.05083686
  atomic energy  EATOM  =      4061.96947726
  ---------------------------------------------------
  free energy    TOTEN  =       -74.67616248 eV

  energy without entropy =      -74.67616248  energy(sigma->0) =      -74.67616248


--------------------------------------------------------------------------------------------------------


  average scaling for gradient   0.6265


 average (electrostatic) potential at core
  the test charge radii are     0.5770  0.5955
  (the norm of the test charge is              1.0000)
       1 -85.7165       2 -85.7165       3 -85.7164       4 -85.7165       5-116.2375
       6-116.2375       7-116.2375       8-116.2375       9-116.2375      10-116.2375
      11-116.2375      12-116.2375



 E-fermi :  -3.2120     XC(G=0):  -8.0055     alpha+bet : -6.0625

 Fermi energy:        -3.2120498825

 k-point     1 :       0.0000    0.0000    0.0000
  band No.  band energies     occupation 
      1     -23.6913      2.00000
      2     -23.4816      2.00000
      3     -23.4816      2.00000
      4     -23.4816      2.00000
      5     -22.5686      2.00000
      6     -22.5686      2.00000
      7     -22.5686      2.00000
      8     -22.5148      2.00000
      9      -8.4678      2.00000
     10      -8.4678      2.00000
     11      -8.4678      2.00000
     12      -8.2933      2.00000
     13      -7.9205      2.00000
     14      -7.9205      2.00000
     15      -7.9205      2.00000
     16      -7.1835      2.00000
     17      -7.1835      2.00000
     18      -7.1236      2.00000
     19      -7.0345      2.00000
     20      -7.0345      2.00000
     21      -7.0345      2.00000
     22      -6.5837      2.00000
     23      -6.5837      2.00000
     24      -6.5837      2.00000
     25      -4.0133      2.00000
     26      -4.0133      2.00000
     27      -4.0133      2.00000
     28      -3.4658      2.00000
     29      -3.4658      2.00000
     30      -3.4658      2.00000
     31      -3.2733      2.00000
     32      -3.2733      2.00000
     33       3.4972      0.00000
     34       4.7486      0.00000
     35       4.7489      0.00000
     36       4.8114      0.00000
     37       5.0091      0.00000
     38       5.0777      0.00000
     39       5.5861      0.00000
     40       5.5994      0.00000

 k-point     2 :       0.2000    0.0000    0.0000
  band No.  band energies     occupation 
      1     -23.6725      2.00000
      2     -23.5031      2.00000
      3     -23.4815      2.00000
      4     -23.4815      2.00000
      5     -22.5675      2.00000
      6     -22.5673      2.00000
      7     -22.5635      2.00000
      8     -22.5200      2.00000
      9      -8.5118      2.00000
     10      -8.5044      2.00000
     11      -8.4934      2.00000
     12      -8.3775      2.00000
     13      -7.8209      2.00000
     14      -7.8104      2.00000
     15      -7.7859      2.00000
     16      -7.2195      2.00000
     17      -7.1744      2.00000
     18      -7.1001      2.00000
     19      -7.0879      2.00000
     20      -7.0649      2.00000
     21      -6.9958      2.00000
     22      -6.6848      2.00000
     23      -6.6377      2.00000
     24      -6.6231      2.00000
     25      -3.9453      2.00000
     26      -3.9416      2.00000
     27      -3.9384      2.00000
     28      -3.4881      2.00000
     29      -3.4865      2.00000
     30      -3.4385      2.00000
     31      -3.3374      2.00000
     32      -3.2843      2.00000
     33       3.7538      0.00000
     34       4.7133      0.00000
     35       4.8164      0.00000
     36       4.8304      0.00000
     37       4.9422      0.00000
     38       5.0335      0.00000
     39       5.4942      0.00000
     40       5.5316      0.00000

 k-point     3 :       0.4000    0.0000    0.0000
  band No.  band energies     occupation 
      1     -23.6222      2.00000
      2     -23.5576      2.00000
      3     -23.4813      2.00000
      4     -23.4812      2.00000
      5     -22.5657      2.00000
      6     -22.5655      2.00000
      7     -22.5502      2.00000
      8     -22.5335      2.00000
      9      -8.5457      2.00000
     10      -8.5433      2.00000
     11      -8.5370      2.00000
     12      -8.4933      2.00000
     13      -7.6203      2.00000
     14      -7.6064      2.00000
     15      -7.5634      2.00000
     16      -7.3807      2.00000
     17      -7.1712      2.00000
     18      -7.1657      2.00000
     19      -7.1278      2.00000
     20      -7.0033      2.00000
     21      -6.9500      2.00000
     22      -6.8260      2.00000
     23      -6.7755      2.00000
     24      -6.7234      2.00000
     25      -3.8077      2.00000
     26      -3.8025      2.00000
     27      -3.7453      2.00000
     28      -3.5502      2.00000
     29      -3.5469      2.00000
     30      -3.5144      2.00000
     31      -3.3774      2.00000
     32      -3.3195      2.00000
     33       4.4782      0.00000
     34       4.6788      0.00000
     35       4.7436      0.00000
     36       4.9402      0.00000
     37       5.0300      0.00000
     38       5.1438      0.00000
     39       5.3011      0.00000
     40       5.4226      0.00000

 k-point     4 :       0.2000    0.2000    0.0000
  band No.  band energies     occupation 
      1     -23.6552      2.00000
      2     -23.5008      2.00000
      3     -23.5008      2.00000
      4     -23.4833      2.00000
      5     -22.5666      2.00000
      6     -22.5630      2.00000
      7     -22.5628      2.00000
      8     -22.5247      2.00000
      9      -8.5453      2.00000
     10      -8.5317      2.00000
     11      -8.5016      2.00000
     12      -8.4004      2.00000
     13      -7.8114      2.00000
     14      -7.7480      2.00000
     15      -7.6629      2.00000
     16      -7.2998      2.00000
     17      -7.1537      2.00000
     18      -7.1006      2.00000
     19      -7.0658      2.00000
     20      -7.0196      2.00000
     21      -6.9997      2.00000
     22      -6.8193      2.00000
     23      -6.6749      2.00000
     24      -6.6167      2.00000
     25      -3.8908      2.00000
     26      -3.8790      2.00000
     27      -3.8771      2.00000
     28      -3.5034      2.00000
     29      -3.4666      2.00000
     30      -3.4652      2.00000
     31      -3.3633      2.00000
     32      -3.3255      2.00000
     33       3.9931      0.00000
     34       4.7125      0.00000
     35       4.7615      0.00000
     36       4.9189      0.00000
     37       4.9410      0.00000
     38       5.0493      0.00000
     39       5.4566      0.00000
     40       5.5043      0.00000

 k-point     5 :       0.4000    0.2000    0.0000
  band No.  band energies     occupation 
      1     -23.6090      2.00000
      2     -23.5501      2.00000
      3     -23.4950      2.00000
      4     -23.4883      2.00000
      5     -22.5641      2.00000
      6     -22.5627      2.00000
      7     -22.5514      2.00000
      8     -22.5368      2.00000
      9      -8.5744      2.00000
     10      -8.5547      2.00000
     11      -8.5241      2.00000
     12      -8.4723      2.00000
     13      -7.6899      2.00000
     14      -7.6123      2.00000
     15      -7.5071      2.00000
     16      -7.4121      2.00000
     17      -7.2459      2.00000
     18      -7.1463      2.00000
     19      -7.0210      2.00000
     20      -6.9942      2.00000
     21      -6.9024      2.00000
     22      -6.8995      2.00000
     23      -6.7730      2.00000
     24      -6.7167      2.00000
     25      -3.7741      2.00000
     26      -3.7640      2.00000
     27      -3.7087      2.00000
     28      -3.5484      2.00000
     29      -3.5381      2.00000
     30      -3.5066      2.00000
     31      -3.4180      2.00000
     32      -3.3697      2.00000
     33       4.6250      0.00000
     34       4.6511      0.00000
     35       4.6643      0.00000
     36       4.9715      0.00000
     37       5.1099      0.00000
     38       5.1542      0.00000
     39       5.3252      0.00000
     40       5.4251      0.00000

 k-point     6 :      -0.2000    0.4000    0.0000
  band No.  band energies     occupation 
      1     -23.6090      2.00000
      2     -23.5501      2.00000
      3     -23.4950      2.00000
      4     -23.4883      2.00000
      5     -22.5642      2.00000
      6     -22.5625      2.00000
      7     -22.5515      2.00000
      8     -22.5369      2.00000
      9      -8.5585      2.00000
     10      -8.5467      2.00000
     11      -8.5304      2.00000
     12      -8.4940      2.00000
     13      -7.6422      2.00000
     14      -7.6253      2.00000
     15      -7.5201      2.00000
     16      -7.4841      2.00000
     17      -7.1682      2.00000
     18      -7.0704      2.00000
     19      -7.0602      2.00000
     20      -7.0155      2.00000
     21      -6.9915      2.00000
     22      -6.8325      2.00000
     23      -6.8131      2.00000
     24      -6.6932      2.00000
     25      -3.7692      2.00000
     26      -3.7603      2.00000
     27      -3.7143      2.00000
     28      -3.5526      2.00000
     29      -3.5386      2.00000
     30      -3.5134      2.00000
     31      -3.4143      2.00000
     32      -3.3651      2.00000
     33       4.6189      0.00000
     34       4.6795      0.00000
     35       4.7383      0.00000
     36       4.8616      0.00000
     37       5.1461      0.00000
     38       5.2267      0.00000
     39       5.3312      0.00000
     40       5.3672      0.00000

 k-point     7 :       0.4000    0.4000    0.0000
  band No.  band energies     occupation 
      1     -23.5742      2.00000
      2     -23.5307      2.00000
      3     -23.5307      2.00000
      4     -23.5070      2.00000
      5     -22.5600      2.00000
      6     -22.5552      2.00000
      7     -22.5550      2.00000
      8     -22.5453      2.00000
      9      -8.5663      2.00000
     10      -8.5484      2.00000
     11      -8.5283      2.00000
     12      -8.5083      2.00000
     13      -7.6416      2.00000
     14      -7.6356      2.00000
     15      -7.5583      2.00000
     16      -7.4952      2.00000
     17      -7.1991      2.00000
     18      -7.1117      2.00000
     19      -7.0569      2.00000
     20      -6.9558      2.00000
     21      -6.8626      2.00000
     22      -6.8486      2.00000
     23      -6.8296      2.00000
     24      -6.7205      2.00000
     25      -3.6826      2.00000
     26      -3.6569      2.00000
     27      -3.6403      2.00000
     28      -3.5630      2.00000
     29      -3.5323      2.00000
     30      -3.5177      2.00000
     31      -3.4997      2.00000
     32      -3.4764      2.00000
     33       4.6346      0.00000
     34       4.6866      0.00000
     35       4.7446      0.00000
     36       4.7655      0.00000
     37       5.2657      0.00000
     38       5.3325      0.00000
     39       5.3773      0.00000
     40       5.5293      0.00000

 k-point     8 :       0.2000    0.2000    0.2000
  band No.  band energies     occupation 
      1     -23.6394      2.00000
      2     -23.5008      2.00000
      3     -23.5002      2.00000
      4     -23.5002      2.00000
      5     -22.5636      2.00000
      6     -22.5636      2.00000
      7     -22.5606      2.00000
      8     -22.5290      2.00000
      9      -8.5901      2.00000
     10      -8.5053      2.00000
     11      -8.5053      2.00000
     12      -8.4113      2.00000
     13      -7.7962      2.00000
     14      -7.7962      2.00000
     15      -7.5907      2.00000
     16      -7.2897      2.00000
     17      -7.1394      2.00000
     18      -7.1394      2.00000
     19      -7.0273      2.00000
     20      -6.9889      2.00000
     21      -6.9889      2.00000
     22      -6.9082      2.00000
     23      -6.6531      2.00000
     24      -6.6531      2.00000
     25      -3.8441      2.00000
     26      -3.8286      2.00000
     27      -3.8286      2.00000
     28      -3.4901      2.00000
     29      -3.4901      2.00000
     30      -3.4828      2.00000
     31      -3.3751      2.00000
     32      -3.3751      2.00000
     33       4.2227      0.00000
     34       4.6689      0.00000
     35       4.6796      0.00000
     36       4.9613      0.00000
     37       4.9685      0.00000
     38       5.0254      0.00000
     39       5.3885      0.00000
     40       5.5415      0.00000

 k-point     9 :       0.4000    0.2000    0.2000
  band No.  band energies     occupation 
      1     -23.5975      2.00000
      2     -23.5444      2.00000
      3     -23.4999      2.00000
      4     -23.4997      2.00000
      5     -22.5625      2.00000
      6     -22.5614      2.00000
      7     -22.5526      2.00000
      8     -22.5399      2.00000
      9      -8.5876      2.00000
     10      -8.5367      2.00000
     11      -8.4978      2.00000
     12      -8.4666      2.00000
     13      -7.7624      2.00000
     14      -7.7264      2.00000
     15      -7.5586      2.00000
     16      -7.4071      2.00000
     17      -7.1611      2.00000
     18      -7.1312      2.00000
     19      -6.9815      2.00000
     20      -6.9516      2.00000
     21      -6.9244      2.00000
     22      -6.8676      2.00000
     23      -6.7523      2.00000
     24      -6.7223      2.00000
     25      -3.7399      2.00000
     26      -3.7325      2.00000
     27      -3.6897      2.00000
     28      -3.5487      2.00000
     29      -3.5441      2.00000
     30      -3.5108      2.00000
     31      -3.4487      2.00000
     32      -3.4073      2.00000
     33       4.6126      0.00000
     34       4.6465      0.00000
     35       4.7754      0.00000
     36       4.9396      0.00000
     37       5.0067      0.00000
     38       5.2118      0.00000
     39       5.3870      0.00000
     40       5.5438      0.00000

 k-point    10 :       0.4000    0.4000    0.2000
  band No.  band energies     occupation 
      1     -23.5673      2.00000
      2     -23.5301      2.00000
      3     -23.5299      2.00000
      4     -23.5129      2.00000
      5     -22.5595      2.00000
      6     -22.5565      2.00000
      7     -22.5551      2.00000
      8     -22.5475      2.00000
      9      -8.5625      2.00000
     10      -8.5145      2.00000
     11      -8.4908      2.00000
     12      -8.4746      2.00000
     13      -7.8040      2.00000
     14      -7.7636      2.00000
     15      -7.6917      2.00000
     16      -7.5736      2.00000
     17      -7.0721      2.00000
     18      -7.0024      2.00000
     19      -6.9549      2.00000
     20      -6.8920      2.00000
     21      -6.8481      2.00000
     22      -6.8293      2.00000
     23      -6.8123      2.00000
     24      -6.7324      2.00000
     25      -3.6660      2.00000
     26      -3.6468      2.00000
     27      -3.6371      2.00000
     28      -3.5676      2.00000
     29      -3.5423      2.00000
     30      -3.5351      2.00000
     31      -3.5177      2.00000
     32      -3.4989      2.00000
     33       4.6210      0.00000
     34       4.6407      0.00000
     35       4.7756      0.00000
     36       4.7929      0.00000
     37       5.2769      0.00000
     38       5.3799      0.00000
     39       5.4368      0.00000
     40       5.6359      0.00000

 k-point    11 :       0.4000    0.4000    0.4000
  band No.  band energies     occupation 
      1     -23.5496      2.00000
      2     -23.5289      2.00000
      3     -23.5287      2.00000
      4     -23.5287      2.00000
      5     -22.5574      2.00000
      6     -22.5574      2.00000
      7     -22.5562      2.00000
      8     -22.5525      2.00000
      9      -8.5060      2.00000
     10      -8.4459      2.00000
     11      -8.4459      2.00000
     12      -8.4374      2.00000
     13      -7.9189      2.00000
     14      -7.9189      2.00000
     15      -7.8754      2.00000
     16      -7.7870      2.00000
     17      -6.8862      2.00000
     18      -6.8622      2.00000
     19      -6.8622      2.00000
     20      -6.8377      2.00000
     21      -6.8150      2.00000
     22      -6.8150      2.00000
     23      -6.7632      2.00000
     24      -6.7632      2.00000
     25      -3.6202      2.00000
     26      -3.6202      2.00000
     27      -3.6196      2.00000
     28      -3.5737      2.00000
     29      -3.5737      2.00000
     30      -3.5655      2.00000
     31      -3.5543      2.00000
     32      -3.5543      2.00000
     33       4.6455      0.00000
     34       4.6520      0.00000
     35       4.7393      0.00000
     36       4.7783      0.00000
     37       5.4758      0.00000
     38       5.5316      0.00000
     39       5.5678      0.00000
     40       5.7612      0.00000


--------------------------------------------------------------------------------------------------------


 soft charge-density along one line, spin component           1
         0         1         2         3         4         5         6         7         8         9
 total charge-density along one line

 pseudopotential strength for first ion, spin component:           1
 12.715  21.396  -0.000  -0.000  -0.000  -0.000  -0.000  -0.000
 21.396  36.004  -0.000  -0.000  -0.000  -0.000  -0.000  -0.000
 -0.000  -0.000  -3.191  -0.000  -0.000  -5.718  -0.001  -0.001
 -0.000  -0.000  -0.000  -3.191  -0.000  -0.001  -5.718  -0.001
 -0.000  -0.000  -0.000  -0.000  -3.191  -0.001  -0.001  -5.718
 -0.000  -0.000  -5.718  -0.001  -0.001 -10.225  -0.002  -0.002
 -0.000  -0.000  -0.001  -5.718  -0.001  -0.002 -10.225  -0.002
 -0.000  -0.000  -0.001  -0.001  -5.718  -0.002  -0.002 -10.225
 total augmentation occupancy for first ion, spin component:           1
 10.174  -4.028   0.000   0.000   0.000   0.000   0.000   0.000
 -4.028   1.735   0.000   0.000   0.000   0.000   0.000   0.000
  0.000   0.000   7.314   3.961   3.961  -2.632  -1.728  -1.728
  0.000   0.000   3.961   7.314   3.961  -1.728  -2.632  -1.728
  0.000   0.000   3.961   3.961   7.314  -1.728  -1.728  -2.632
  0.000   0.000  -2.632  -1.728  -1.728   0.992   0.747   0.747
  0.000   0.000  -1.728  -2.632  -1.728   0.747   0.992   0.747
  0.000   0.000  -1.728  -1.728  -2.632   0.747   0.747   0.992


------------------------ aborting loop because EDIFF is reached ----------------------------------------


    FORLOC:  cpu time      0.0014: real time      0.0014
    FORNL :  cpu time      0.0578: real time      0.0581
    FORCOR:  cpu time      0.7012: real time      0.7015
    OFIELD:  cpu time      0.0024: real time      0.0024

 VOLUME and BASIS-vectors are now :
 -----------------------------------------------------------------------------
  energy-cutoff  :     1000.00
  volume of cell :      177.88
      direct lattice vectors                 reciprocal lattice vectors
     5.624000000  0.000000000  0.000000000     0.177809388  0.000000000  0.000000000
     0.000000000  5.624000000  0.000000000     0.000000000  0.177809388  0.000000000
     0.000000000  0.000000000  5.624000000     0.000000000  0.000000000  0.177809388

  length of vectors
     5.624000000  5.624000000  5.624000000     0.177809388  0.177809388  0.177809388


 FORCES acting on ions:
    Electron-Ion                     Ewald-Force                    Non-Local-Force
 -----------------------------------------------------------------------------------------------
   -.152E-04 -.574E-05 0.238E-04   -.396E-04 -.449E-04 -.460E-04   0.312E-21 -.121E-21 -.325E-21
   0.750E-05 0.318E-04 0.362E-04   -.655E-05 -.202E-04 0.511E-05   0.198E-21 0.320E-21 -.941E-22
   0.152E-04 0.449E-04 0.281E-04   -.152E-04 0.645E-05 -.691E-05   0.246E-21 0.154E-21 0.466E-22
   0.258E-04 0.104E-04 0.127E-04   0.118E-04 -.979E-05 -.197E-04   -.101E-21 0.378E-21 0.325E-22
   -.107E+03 -.107E+03 -.107E+03   0.141E+03 0.141E+03 0.141E+03   -.350E+02 -.350E+02 -.350E+02
   0.107E+03 0.107E+03 0.107E+03   -.141E+03 -.141E+03 -.141E+03   0.350E+02 0.350E+02 0.350E+02
   0.107E+03 0.107E+03 -.107E+03   -.141E+03 -.141E+03 0.141E+03   0.350E+02 0.350E+02 -.350E+02
   -.107E+03 -.107E+03 0.107E+03   0.141E+03 0.141E+03 -.141E+03   -.350E+02 -.350E+02 0.350E+02
   0.107E+03 -.107E+03 0.107E+03   -.141E+03 0.141E+03 -.141E+03   0.350E+02 -.350E+02 0.350E+02
   -.107E+03 0.107E+03 -.107E+03   0.141E+03 -.141E+03 0.141E+03   -.350E+02 0.350E+02 -.350E+02
   -.107E+03 0.107E+03 0.107E+03   0.141E+03 -.141E+03 -.141E+03   -.350E+02 0.350E+02 0.350E+02
   0.107E+03 -.107E+03 -.107E+03   -.141E+03 0.141E+03 0.141E+03   0.350E+02 -.350E+02 -.350E+02
 -----------------------------------------------------------------------------------------------
   0.366E-03 0.555E-03 0.740E-03   0.284E-13 0.853E-13 -.568E-13   0.000E+00 0.711E-14 0.000E+00


 POSITION                                       TOTAL-FORCE (eV/Angst)
 -----------------------------------------------------------------------------------
      0.33737      0.33737      0.33737         0.000000      0.000000      0.000000
      3.14937      0.33737      3.14937         0.000000      0.000000      0.000000
      0.33737      3.14937      3.14937         0.000000      0.000000      0.000000
      3.14937      3.14937      0.33737         0.000000      0.000000      0.000000
      1.01211      1.01211      1.01211         0.047047      0.047047      0.047047
      5.28663      5.28663      5.28663        -0.047047     -0.047047     -0.047047
      2.47463      5.28663      3.82411        -0.047047     -0.047047      0.047047
      3.82411      1.01211      2.47463         0.047047      0.047047     -0.047047
      5.28663      3.82411      2.47463        -0.047047      0.047047     -0.047047
      1.01211      2.47463      3.82411         0.047047     -0.047047      0.047047
      3.82411      2.47463      5.28663         0.047047     -0.047047     -0.047047
      2.47463      3.82411      1.01211        -0.047047      0.047047      0.047047
 -----------------------------------------------------------------------------------
    total drift:                                0.000366      0.000555      0.000740


--------------------------------------------------------------------------------------------------------



  FREE ENERGIE OF THE ION-ELECTRON SYSTEM (eV)
  ---------------------------------------------------
  free  energy   TOTEN  =       -74.67616248 eV

  energy  without entropy=      -74.67616248  energy(sigma->0) =      -74.67616248



--------------------------------------------------------------------------------------------------------


    POTLOK:  cpu time      0.7072: real time      0.7073


--------------------------------------------------------------------------------------------------------


 stress matrix after NEB project (eV)
      0.00000      0.00000      0.00000
      0.00000      0.00000      0.00000
      0.00000      0.00000      0.00000
  FORCES: max atom, RMS     0.081488    0.066535
  FORCE total and by dimension    0.230483    0.047047
  Stress total and by dimension    0.000000    0.000000
     LOOP+:  cpu time     43.7237: real time     44.0723
    4ORBIT:  cpu time      0.0000: real time      0.0000

 total amount of memory used by VASP MPI-rank0    34643. kBytes
=======================================================================

   base      :      30000. kBytes
   nonl-proj :        640. kBytes
   fftplans  :        741. kBytes
   grid      :       1105. kBytes
   one-center:          3. kBytes
   wavefun   :       2154. kBytes

  
  
 General timing and accounting informations for this job:
 ========================================================
  
                  Total CPU time used (sec):       51.101
                            User time (sec):       49.173
                          System time (sec):        1.927
                         Elapsed time (sec):       51.610
  
                   Maximum memory used (kb):      196920.
                   Average memory used (kb):          N/A
  
                          Minor page faults:       124417
                          Major page faults:          556
                 Voluntary context switches:         2788
