 vasp.6.4.1 05Apr23 (build Jun  6 2023 14:36:51) complex                         
 executed on        HPECrayEX_GCC date 2024.08.20  14:02:37
 running  256 mpi-ranks, with    1 threads/rank, on    2 nodes
 distrk:  each k-point on  256 cores,    1 groups
 distr:  one band on NCORE=  64 cores,    4 groups


--------------------------------------------------------------------------------------------------------


 INCAR:
   ALGO = Conjugate
   NPAR = 4
   ISMEAR = 0
   SIGMA = 0.01
   PREC = Accurate
   EDIFF = 1E-7
   ENCUT = 1000
   ISIF = 0
   IVDW = 2
   SYMPREC = 1E-7
   LWAVE = .FALSE.
   LCHARGE = .FALSE.

 POTCAR:    PAW_PBE C_h 06Feb2004                 
 POTCAR:    PAW_PBE O_h 06Feb2004                 
 POTCAR:    PAW_PBE C_h 06Feb2004                 
   VRHFIN =C: s2p2                                                                                  
   LEXCH  = PE                                                                                      
   EATOM  =   147.1560 eV,   10.8157 Ry                                                             
                                                                                                    
   TITEL  = PAW_PBE C_h 06Feb2004                                                                   
   LULTRA =        F    use ultrasoft PP ?                                                          
   IUNSCR =        1    unscreen: 0-lin 1-nonlin 2-no                                               
   RPACOR =    0.800    partial core radius                                                         
   POMASS =   12.011; ZVAL   =    4.000    mass and valenz                                          
   RCORE  =    1.100    outmost cutoff radius                                                       
   RWIGS  =    1.630; RWIGS  =    0.863    wigner-seitz radius (au A)                               
   ENMAX  =  700.000; ENMIN  =  500.000 eV                                                          
   ICORE  =        2    local potential                                                             
   LCOR   =        T    correct aug charges                                                         
   LPAW   =        T    paw PP                                                                      
   EAUG   =  946.768                                                                                
   DEXC   =    0.000                                                                                
   RMAX   =    1.128    core radius for proj-oper                                                   
   RAUG   =    1.300    factor for augmentation sphere                                              
   RDEP   =    1.162    radius for radial grids                                                     
   RDEPT  =    1.088    core radius for aug-charge                                                  
                                                                                                    
   Atomic configuration                                                                             
    4 entries                                                                                       
     n  l   j            E        occ.                                                              
     1  0  0.50      -273.3789   2.0000                                                             
     2  0  0.50       -13.7508   2.0000                                                             
     2  1  0.50        -5.2854   2.0000                                                             
     3  2  1.50        -5.4423   0.0000                                                             
   Description                                                                                      
     l       E           TYP  RCUT    TYP  RCUT                                                     
     0    -13.7508458     23  1.100                                                                 
     0     -8.2022199     23  1.100                                                                 
     1     -5.2854383     23  1.100                                                                 
     1      1.1560700     23  1.100                                                                 
     2     -5.4423304      7  1.100                                                                 
  local pseudopotential read in
  partial core-charges read in
  partial kinetic energy density read in
  atomic valenz-charges read in
  non local Contribution for L=           0  read in
    real space projection operators read in
  non local Contribution for L=           0  read in
    real space projection operators read in
  non local Contribution for L=           1  read in
    real space projection operators read in
  non local Contribution for L=           1  read in
    real space projection operators read in
    PAW grid and wavefunctions read in

   number of l-projection  operators is LMAX  =           4
   number of lm-projection operators is LMMAX =           8

 POTCAR:    PAW_PBE O_h 06Feb2004                 
   VRHFIN =O: s2p4                                                                                  
   LEXCH  = PE                                                                                      
   EATOM  =   432.3788 eV,   31.7789 Ry                                                             
                                                                                                    
   TITEL  = PAW_PBE O_h 06Feb2004                                                                   
   LULTRA =        F    use ultrasoft PP ?                                                          
   IUNSCR =        1    unscreen: 0-lin 1-nonlin 2-no                                               
   RPACOR =    0.800    partial core radius                                                         
   POMASS =   16.000; ZVAL   =    6.000    mass and valenz                                          
   RCORE  =    1.100    outmost cutoff radius                                                       
   RWIGS  =    1.400; RWIGS  =    0.741    wigner-seitz radius (au A)                               
   ENMAX  =  700.000; ENMIN  =  500.000 eV                                                          
   ICORE  =        2    local potential                                                             
   LCOR   =        T    correct aug charges                                                         
   LPAW   =        T    paw PP                                                                      
   EAUG   =  888.804                                                                                
   DEXC   =    0.000                                                                                
   RMAX   =    1.128    core radius for proj-oper                                                   
   RAUG   =    1.300    factor for augmentation sphere                                              
   RDEP   =    1.125    radius for radial grids                                                     
   RDEPT  =    1.088    core radius for aug-charge                                                  
                                                                                                    
   Atomic configuration                                                                             
    4 entries                                                                                       
     n  l   j            E        occ.                                                              
     1  0  0.50      -514.6923   2.0000                                                             
     2  0  0.50       -23.9615   2.0000                                                             
     2  1  0.50        -9.0305   4.0000                                                             
     3  2  1.50        -9.5241   0.0000                                                             
   Description                                                                                      
     l       E           TYP  RCUT    TYP  RCUT                                                     
     0    -23.9615319     23  1.100                                                                 
     0    -25.3221145     23  1.100                                                                 
     1     -9.0304911     23  1.100                                                                 
     1     -5.4802209     23  1.100                                                                 
     2     -9.5240782      7  1.100                                                                 
  local pseudopotential read in
  partial core-charges read in
  partial kinetic energy density read in
  atomic valenz-charges read in
  non local Contribution for L=           0  read in
    real space projection operators read in
  non local Contribution for L=           0  read in
    real space projection operators read in
  non local Contribution for L=           1  read in
    real space projection operators read in
  non local Contribution for L=           1  read in
    real space projection operators read in
    PAW grid and wavefunctions read in

   number of l-projection  operators is LMAX  =           4
   number of lm-projection operators is LMMAX =           8

  PAW_PBE C_h 06Feb2004                 :
 energy of atom  1       EATOM= -147.1560
 kinetic energy error for atom=    0.0031 (will be added to EATOM!!)
  PAW_PBE O_h 06Feb2004                 :
 energy of atom  2       EATOM= -432.3788
 kinetic energy error for atom=    0.0171 (will be added to EATOM!!)


 POSCAR:  C  O
  positions in cartesian coordinates
  No initial velocities read in
 exchange correlation table for  LEXCH =        8
   RHO(1)=    0.500       N(1)  =     2000
   RHO(2)=  100.500       N(2)  =     4000

 VTST: version 4.1, (05/19/21)

 CHAIN: initializing optimizer
 
 OPT: Using VASP Dynamics algorithm
 CHAIN: Read ICHAIN            0

 POSCAR:  C  O
  positions in cartesian coordinates
  No initial velocities read in



--------------------------------------------------------------------------------------------------------


 ion  position               nearest neighbor table
   1  0.060  0.060  0.060-   5 1.17   6 1.17
   2  0.560  0.060  0.560-   8 1.17   7 1.17
   3  0.060  0.560  0.560-  10 1.17   9 1.17
   4  0.560  0.560  0.060-  12 1.17  11 1.17
   5  0.180  0.180  0.180-   1 1.17
   6  0.940  0.940  0.940-   1 1.17
   7  0.440  0.940  0.680-   2 1.17
   8  0.680  0.180  0.440-   2 1.17
   9  0.940  0.680  0.440-   3 1.17
  10  0.180  0.440  0.680-   3 1.17
  11  0.680  0.440  0.940-   4 1.17
  12  0.440  0.680  0.180-   4 1.17

  LATTYP: Found a simple cubic cell.
 ALAT       =     5.6240000000
  
  Lattice vectors:
  
 A1 = (   5.6240000000,   0.0000000000,   0.0000000000)
 A2 = (   0.0000000000,   5.6240000000,   0.0000000000)
 A3 = (   0.0000000000,   0.0000000000,   5.6240000000)


Analysis of symmetry for initial positions (statically):
=====================================================================
 Subroutine PRICEL returns:
 Original cell was already a primitive cell.
 

 Routine SETGRP: Setting up the symmetry group for a 
 simple cubic supercell.


 Subroutine GETGRP returns: Found 24 space group operations
 (whereof  3 operations were pure point group operations)
 out of a pool of 48 trial point group operations.


The static configuration has the point symmetry C_3 .
 The point group associated with its full space group is T_h .


Analysis of symmetry for dynamics (positions and initial velocities):
=====================================================================
 Subroutine PRICEL returns:
 Original cell was already a primitive cell.
 

 Routine SETGRP: Setting up the symmetry group for a 
 simple cubic supercell.


 Subroutine GETGRP returns: Found 24 space group operations
 (whereof  3 operations were pure point group operations)
 out of a pool of 48 trial point group operations.


The dynamic configuration has the point symmetry C_3 .
 The point group associated with its full space group is T_h .


 Subroutine INISYM returns: Found 24 space group operations
 (whereof  3 operations are pure point group operations),
 and found     1 'primitive' translations


----------------------------------------------------------------------------------------

                                     Primitive cell                                     

  volume of cell :     177.8836

  direct lattice vectors                    reciprocal lattice vectors
     5.624000000  0.000000000  0.000000000     0.177809388  0.000000000  0.000000000
     0.000000000  5.624000000  0.000000000     0.000000000  0.177809388  0.000000000
     0.000000000  0.000000000  5.624000000     0.000000000  0.000000000  0.177809388

  length of vectors
     5.624000000  5.624000000  5.624000000     0.177809388  0.177809388  0.177809388

  position of ions in fractional coordinates (direct lattice)
     0.059987786  0.059987776  0.059987775
     0.559987778  0.059987768  0.559987763
     0.059987778  0.559987765  0.559987768
     0.559987773  0.559987770  0.059987770
     0.179963330  0.179963313  0.179963318
     0.940012222  0.940012223  0.940012218
     0.440012229  0.940012232  0.679963321
     0.679963320  0.179963309  0.440012217
     0.940012202  0.679963342  0.440012187
     0.179963354  0.440012195  0.679963346
     0.679963307  0.440012225  0.940012230
     0.440012246  0.679963308  0.179963311

  ion indices of the primitive-cell ions
   primitive index   ion index
                 1           1
                 2           2
                 3           3
                 4           4
                 5           5
                 6           6
                 7           7
                 8           8
                 9           9
                10          10
                11          11
                12          12

----------------------------------------------------------------------------------------



 KPOINTS: auto                                    

Automatic generation of k-mesh.
 Grid dimensions read from file:
 generate k-points for:    5    5    5

 Generating k-lattice:

  Cartesian coordinates                     Fractional coordinates (reciprocal lattice)
     0.035561878  0.000000000  0.000000000     0.200000000  0.000000000  0.000000000
     0.000000000  0.035561878  0.000000000     0.000000000  0.200000000  0.000000000
     0.000000000  0.000000000  0.035561878     0.000000000  0.000000000  0.200000000

  Length of vectors
     0.035561878  0.035561878  0.035561878

  Shift w.r.t. Gamma in fractional coordinates (k-lattice)
     0.000000000  0.000000000  0.000000000

 
 Subroutine IBZKPT returns following result:
 ===========================================
 
 Found     11 irreducible k-points:
 
 Following reciprocal coordinates:
            Coordinates               Weight
  0.000000  0.000000  0.000000      1.000000
  0.200000  0.000000  0.000000      6.000000
  0.400000  0.000000  0.000000      6.000000
  0.200000  0.200000  0.000000     12.000000
  0.400000  0.200000  0.000000     12.000000
 -0.200000  0.400000  0.000000     12.000000
  0.400000  0.400000  0.000000     12.000000
  0.200000  0.200000  0.200000      8.000000
  0.400000  0.200000  0.200000     24.000000
  0.400000  0.400000  0.200000     24.000000
  0.400000  0.400000  0.400000      8.000000
 
 Following cartesian coordinates:
            Coordinates               Weight
  0.000000  0.000000  0.000000      1.000000
  0.035562  0.000000  0.000000      6.000000
  0.071124  0.000000  0.000000      6.000000
  0.035562  0.035562  0.000000     12.000000
  0.071124  0.035562  0.000000     12.000000
 -0.035562  0.071124  0.000000     12.000000
  0.071124  0.071124  0.000000     12.000000
  0.035562  0.035562  0.035562      8.000000
  0.071124  0.035562  0.035562     24.000000
  0.071124  0.071124  0.035562     24.000000
  0.071124  0.071124  0.071124      8.000000
 


--------------------------------------------------------------------------------------------------------




 Dimension of arrays:
   k-points           NKPTS =     11   k-points in BZ     NKDIM =     11   number of bands    NBANDS=     40
   number of dos      NEDOS =    301   number of ions     NIONS =     12
   non local maximal  LDIM  =      4   non local SUM 2l+1 LMDIM =      8
   total plane-waves  NPLWV = 216000
   max r-space proj   IRMAX =      1   max aug-charges    IRDMAX=   9054
   dimension x,y,z NGX =    60 NGY =   60 NGZ =   60
   dimension x,y,z NGXF=   120 NGYF=  120 NGZF=  120
   support grid    NGXF=   120 NGYF=  120 NGZF=  120
   ions per type =               4   8
   NGX,Y,Z   is equivalent  to a cutoff of  17.74, 17.74, 17.74 a.u.
   NGXF,Y,Z  is equivalent  to a cutoff of  35.47, 35.47, 35.47 a.u.

 SYSTEM =  unknown system                          
 POSCAR =   C  O                                   

 Startparameter for this run:
   NWRITE =      2    write-flag & timer
   PREC   = accura    normal or accurate (medium, high low for compatibility)
   ISTART =      0    job   : 0-new  1-cont  2-samecut
   ICHARG =      2    charge: 1-file 2-atom 10-const
   ISPIN  =      1    spin polarized calculation?
   LNONCOLLINEAR =      F non collinear calculations
   LSORBIT =      F    spin-orbit coupling
   INIWAV =      1    electr: 0-lowe 1-rand  2-diag
   LASPH  =      F    aspherical Exc in radial PAW
 Electronic Relaxation 1
   ENCUT  = 1000.0 eV  73.50 Ry    8.57 a.u.  14.50 14.50 14.50*2*pi/ulx,y,z
   ENINI  = 1000.0     initial cutoff
   ENAUG  =  946.8 eV  augmentation charge cutoff
   NELM   =     60;   NELMIN=  2; NELMDL= -5     # of ELM steps 
   EDIFF  = 0.1E-06   stopping-criterion for ELM
   LREAL  =      F    real-space projection
   NLSPLINE    = F    spline interpolate recip. space projectors
   LCOMPAT=      F    compatible to vasp.4.4
   GGA_COMPAT  = T    GGA compatible to vasp.4.4-vasp.4.6
   LMAXPAW     = -100 max onsite density
   LMAXMIX     =    2 max onsite mixed and CHGCAR
   VOSKOWN=      0    Vosko Wilk Nusair interpolation
   ROPT   =    0.00000   0.00000
 Ionic relaxation
   EDIFFG = 0.1E-05   stopping-criterion for IOM
   NSW    =      0    number of steps for IOM
   NBLOCK =      1;   KBLOCK =      1    inner block; outer block 
   IBRION =     -1    ionic relax: 0-MD 1-quasi-New 2-CG
   NFREE  =      0    steps in history (QN), initial steepest desc. (CG)
   ISIF   =      0    stress and relaxation
   IWAVPR =     10    prediction:  0-non 1-charg 2-wave 3-comb
   ISYM   =      2    0-nonsym 1-usesym 2-fastsym
   LCORR  =      T    Harris-Foulkes like correction to forces

   POTIM  = 0.5000    time-step for ionic-motion
   TEIN   =    0.0    initial temperature
   TEBEG  =    0.0;   TEEND  =   0.0 temperature during run
   SMASS  =  -3.00    Nose mass-parameter (am)
   estimated Nose-frequenzy (Omega)   =  0.10E-29 period in steps = 0.13E+47 mass=  -0.723E-27a.u.
   SCALEE = 1.0000    scale energy and forces
   NPACO  =    256;   APACO  = 10.0  distance and # of slots for P.C.
   PSTRESS=    0.0 pullay stress

  Mass of Ions in am
   POMASS =  12.01 16.00
  Ionic Valenz
   ZVAL   =   4.00  6.00
  Atomic Wigner-Seitz radii
   RWIGS  =  -1.00 -1.00
  virtual crystal weights 
   VCA    =   1.00  1.00
   NELECT =      64.0000    total number of electrons
   NUPDOWN=      -1.0000    fix difference up-down

 DOS related values:
   EMIN   =  10.00;   EMAX   =-10.00  energy-range for DOS
   EFERMI =   0.00;   METHOD = LEGACY      
   ISMEAR =     0;   SIGMA  =   0.01  broadening in eV -4-tet -1-fermi 0-gaus

 Electronic relaxation 2 (details)
   IALGO  =     58    algorithm
   LDIAG  =      T    sub-space diagonalisation (order eigenvalues)
   LSUBROT=      F    optimize rotation matrix (better conditioning)
   TURBO    =      0    0=normal 1=particle mesh
   IRESTART =      0    0=no restart 2=restart with 2 vectors
   NREBOOT  =      0    no. of reboots
   NMIN     =      0    reboot dimension
   EREF     =   0.00    reference energy to select bands
   IMIX   =      4    mixing-type and parameters
     AMIX     =   0.40;   BMIX     =  1.00
     AMIX_MAG =   1.60;   BMIX_MAG =  1.00
     AMIN     =   0.10
     WC   =   100.;   INIMIX=   1;  MIXPRE=   1;  MAXMIX= -45

 Intra band minimization:
   WEIMIN = 0.0000     energy-eigenvalue tresh-hold
   EBREAK =  0.63E-09  absolut break condition
   DEPER  =   0.30     relativ break condition  

   TIME   =   0.40     timestep for ELM

  volume/ion in A,a.u.               =      14.82       100.03
  Fermi-wavevector in a.u.,A,eV,Ry     =   1.164366  2.200333 18.446073  1.355748
  Thomas-Fermi vector in A             =   2.300905

 Write flags
   LWAVE        =      F    write WAVECAR
   LDOWNSAMPLE  =      F    k-point downsampling of WAVECAR
   LCHARG       =      T    write CHGCAR
   LVTOT        =      F    write LOCPOT, total local potential
   LVHAR        =      F    write LOCPOT, Hartree potential only
   LELF         =      F    write electronic localiz. function (ELF)
   LORBIT       =      0    0 simple, 1 ext, 2 COOP (PROOUT), +10 PAW based schemes


 Dipole corrections
   LMONO  =      F    monopole corrections only (constant potential shift)
   LDIPOL =      F    correct potential (dipole corrections)
   IDIPOL =      0    1-x, 2-y, 3-z, 4-all directions 
   EPSILON=  1.0000000 bulk dielectric constant

 Exchange correlation treatment:
   GGA     =    --    GGA type
   LEXCH   =     8    internal setting for exchange type
   LIBXC   =     F    Libxc                    
   VOSKOWN =     0    Vosko Wilk Nusair interpolation
   LHFCALC =     F    Hartree Fock is set to
   LHFONE  =     F    Hartree Fock one center treatment
   AEXX    =    0.0000 exact exchange contribution

 Linear response parameters
   LEPSILON=     F    determine dielectric tensor
   LRPA    =     F    only Hartree local field effects (RPA)
   LNABLA  =     F    use nabla operator in PAW spheres
   LVEL    =     F    velocity operator in full k-point grid
   CSHIFT  =0.1000    complex shift for real part using Kramers Kronig
   OMEGAMAX=  -1.0    maximum frequency
   DEG_THRESHOLD= 0.2000000E-02 threshold for treating states as degnerate
   RTIME   =   -0.100 relaxation time in fs
  (WPLASMAI=    0.000 imaginary part of plasma frequency in eV, 0.658/RTIME)
   DFIELD  = 0.0000000 0.0000000 0.0000000 field for delta impulse in time

  Optional k-point grid parameters
   LKPOINTS_OPT  =     F    use optional k-point grid
   KPOINTS_OPT_MODE=     1    mode for optional k-point grid

 Orbital magnetization related:
   ORBITALMAG=     F  switch on orbital magnetization
   LCHIMAG   =     F  perturbation theory with respect to B field
   DQ        =  0.001000  dq finite difference perturbation B field
   LLRAUG    =     F  two centre corrections for induced B field
   LBONE     =     F  B-component reconstruction in AE one-centre
   LVGVCALC  =     T  calculate vGv susceptibility
   LVGVAPPL  =     F  apply vGv susceptibility instead of pGv for G=0

 Random number generation:
   RANDOM_GENERATOR = DEFAULT
   PCG_SEED         = not used


--------------------------------------------------------------------------------------------------------


 Static calculation
 charge density and potential will be updated during run
 non-spin polarized calculation
 Conjugate gradient for all bands (Freysoldt, et al. PRB 79, 241103 (2009))
 preconditioned conjugated gradient                                        
 perform sub-space diagonalisation
    before iterative eigenvector-optimisation
 modified Broyden-mixing scheme, WC =      100.0
 initial mixing is a Kerker type mixing with AMIX =  0.4000 and BMIX =      1.0000
 Hartree-type preconditioning will be used
 using additional bands            8
 reciprocal scheme for non local part
 use partial core corrections
 no Harris-corrections to forces 
 use gradient corrections 
 use of overlap-Matrix (Vanderbilt PP)
 Gauss-broadening in eV      SIGMA  =   0.01


--------------------------------------------------------------------------------------------------------


  energy-cutoff  :     1000.00
  volume of cell :      177.88
      direct lattice vectors                 reciprocal lattice vectors
     5.624000000  0.000000000  0.000000000     0.177809388  0.000000000  0.000000000
     0.000000000  5.624000000  0.000000000     0.000000000  0.177809388  0.000000000
     0.000000000  0.000000000  5.624000000     0.000000000  0.000000000  0.177809388

  length of vectors
     5.624000000  5.624000000  5.624000000     0.177809388  0.177809388  0.177809388



 k-points in units of 2pi/SCALE and weight: auto                                    
   0.00000000  0.00000000  0.00000000       0.008
   0.03556188  0.00000000  0.00000000       0.048
   0.07112376  0.00000000  0.00000000       0.048
   0.03556188  0.03556188  0.00000000       0.096
   0.07112376  0.03556188  0.00000000       0.096
  -0.03556188  0.07112376  0.00000000       0.096
   0.07112376  0.07112376  0.00000000       0.096
   0.03556188  0.03556188  0.03556188       0.064
   0.07112376  0.03556188  0.03556188       0.192
   0.07112376  0.07112376  0.03556188       0.192
   0.07112376  0.07112376  0.07112376       0.064

 k-points in reciprocal lattice and weights: auto                                    
   0.00000000  0.00000000  0.00000000       0.008
   0.20000000  0.00000000  0.00000000       0.048
   0.40000000  0.00000000  0.00000000       0.048
   0.20000000  0.20000000  0.00000000       0.096
   0.40000000  0.20000000  0.00000000       0.096
  -0.20000000  0.40000000  0.00000000       0.096
   0.40000000  0.40000000  0.00000000       0.096
   0.20000000  0.20000000  0.20000000       0.064
   0.40000000  0.20000000  0.20000000       0.192
   0.40000000  0.40000000  0.20000000       0.192
   0.40000000  0.40000000  0.40000000       0.064

 position of ions in fractional coordinates (direct lattice) 
   0.05998779  0.05998778  0.05998778
   0.55998778  0.05998777  0.55998776
   0.05998778  0.55998777  0.55998777
   0.55998777  0.55998777  0.05998777
   0.17996333  0.17996331  0.17996332
   0.94001222  0.94001222  0.94001222
   0.44001223  0.94001223  0.67996332
   0.67996332  0.17996331  0.44001222
   0.94001220  0.67996334  0.44001219
   0.17996335  0.44001220  0.67996335
   0.67996331  0.44001223  0.94001223
   0.44001225  0.67996331  0.17996331

 position of ions in cartesian coordinates  (Angst):
   0.33737131  0.33737125  0.33737125
   3.14937126  0.33737121  3.14937118
   0.33737126  3.14937119  3.14937121
   3.14937123  3.14937122  0.33737122
   1.01211377  1.01211367  1.01211370
   5.28662874  5.28662874  5.28662871
   2.47462878  5.28662879  3.82411372
   3.82411371  1.01211365  2.47462871
   5.28662862  3.82411384  2.47462854
   1.01211391  2.47462859  3.82411386
   3.82411364  2.47462875  5.28662878
   2.47462887  3.82411364  1.01211366



--------------------------------------------------------------------------------------------------------


 k-point   1 :   0.0000 0.0000 0.0000  plane waves:   12893
 k-point   2 :   0.2000 0.0000 0.0000  plane waves:   12817
 k-point   3 :   0.4000 0.0000 0.0000  plane waves:   12773
 k-point   4 :   0.2000 0.2000 0.0000  plane waves:   12779
 k-point   5 :   0.4000 0.2000 0.0000  plane waves:   12768
 k-point   6 :  -0.2000 0.4000 0.0000  plane waves:   12768
 k-point   7 :   0.4000 0.4000 0.0000  plane waves:   12758
 k-point   8 :   0.2000 0.2000 0.2000  plane waves:   12782
 k-point   9 :   0.4000 0.2000 0.2000  plane waves:   12778
 k-point  10 :   0.4000 0.4000 0.2000  plane waves:   12779
 k-point  11 :   0.4000 0.4000 0.4000  plane waves:   12769

 maximum and minimum number of plane-waves per node :       215      185

 maximum number of plane-waves:     12893
 maximum index in each direction: 
   IXMAX=   14   IYMAX=   14   IZMAX=   14
   IXMIN=  -14   IYMIN=  -14   IZMIN=  -14


 parallel 3D FFT for wavefunctions:
    minimum data exchange during FFTs selected (reduces bandwidth)
 parallel 3D FFT for charge:
    minimum data exchange during FFTs selected (reduces bandwidth)


 total amount of memory used by VASP MPI-rank0    33028. kBytes
=======================================================================

   base      :      30000. kBytes
   nonl-proj :        326. kBytes
   fftplans  :        620. kBytes
   grid      :        960. kBytes
   one-center:          3. kBytes
   wavefun   :       1119. kBytes

     INWAV:  cpu time      0.0001: real time      0.0002
 Broyden mixing: mesh for mixing (old mesh)
   NGX = 29   NGY = 29   NGZ = 29
  (NGX  =120   NGY  =120   NGZ  =120)
  gives a total of  24389 points

 initial charge density was supplied:
 charge density of overlapping atoms calculated
 number of electron      64.0000000 magnetization 
 keeping initial charge density in first step


--------------------------------------------------------------------------------------------------------


 Maximum index for augmentation-charges          345 (set IRDMAX)


--------------------------------------------------------------------------------------------------------


 First call to EWALD:  gamma=   0.315
 Maximum number of real-space cells 3x 3x 3
 Maximum number of reciprocal cells 3x 3x 3

    FEWALD:  cpu time      0.0016: real time      0.0016


--------------------------------------- Ionic step        1  -------------------------------------------




--------------------------------------- Iteration      1(   1)  ---------------------------------------


    POTLOK:  cpu time      0.0587: real time      0.0594
    SETDIJ:  cpu time      0.0082: real time      0.0085
    TRIAL :  cpu time      1.5824: real time      1.5851
    CORREC:  cpu time      0.0015: real time      0.0015
    --------------------------------------------
      LOOP:  cpu time      1.6542: real time      1.6580

 eigenvalue-minimisations  :   880
 total energy-change (2. order) : 0.7284930E+03  ( 0.3925954E+07)
 number of electron      64.0000000 magnetization 
 augmentation part       64.0000000 magnetization 

 Free energy of the ion-electron system (eV)
  ---------------------------------------------------
  alpha Z        PSCENC =        64.50308324
  Ewald energy   TEWEN  =     -2171.10254707
  -Hartree energ DENC   =     -1496.95817215
  -exchange      EXHF   =         0.00000000
  -V(xc)+E(xc)   XCENC  =       234.06781945
  PAW double counting   =      3234.45881923    -3223.15099284
  entropy T*S    EENTRO =        -0.00034394
  eigenvalues    EBANDS =        39.16966035
  atomic energy  EATOM  =      4047.50565470
  ---------------------------------------------------
  free energy    TOTEN  =       728.49298098 eV

  energy without entropy =      728.49332493  energy(sigma->0) =      728.49315296


--------------------------------------------------------------------------------------------------------




--------------------------------------- Iteration      1(   2)  ---------------------------------------


    TRIAL :  cpu time      0.4615: real time      0.4619
    CORREC:  cpu time      0.0001: real time      0.0001
    --------------------------------------------
      LOOP:  cpu time      0.4760: real time      0.4899

 eigenvalue-minimisations  :  1256
 total energy-change (2. order) :-0.7188738E+03  ( 0.4590108E+04)
 number of electron      64.0000000 magnetization 
 augmentation part       64.0000000 magnetization 

 Free energy of the ion-electron system (eV)
  ---------------------------------------------------
  alpha Z        PSCENC =        64.50308324
  Ewald energy   TEWEN  =     -2171.10254707
  -Hartree energ DENC   =     -1496.95817215
  -exchange      EXHF   =         0.00000000
  -V(xc)+E(xc)   XCENC  =       234.06781945
  PAW double counting   =      3234.45881923    -3223.15099284
  entropy T*S    EENTRO =        -0.00000000
  eigenvalues    EBANDS =      -679.70445567
  atomic energy  EATOM  =      4047.50565470
  ---------------------------------------------------
  free energy    TOTEN  =         9.61920890 eV

  energy without entropy =        9.61920890  energy(sigma->0) =        9.61920890


--------------------------------------------------------------------------------------------------------




--------------------------------------- Iteration      1(   3)  ---------------------------------------


    TRIAL :  cpu time      0.4062: real time      0.4062
    CORREC:  cpu time      0.0001: real time      0.0001
    --------------------------------------------
      LOOP:  cpu time      0.4175: real time      0.4346

 eigenvalue-minimisations  :  1056
 total energy-change (2. order) :-0.1052281E+03  (-0.7808224E+02)
 number of electron      64.0000000 magnetization 
 augmentation part       64.0000000 magnetization 

 Free energy of the ion-electron system (eV)
  ---------------------------------------------------
  alpha Z        PSCENC =        64.50308324
  Ewald energy   TEWEN  =     -2171.10254707
  -Hartree energ DENC   =     -1496.95817215
  -exchange      EXHF   =         0.00000000
  -V(xc)+E(xc)   XCENC  =       234.06781945
  PAW double counting   =      3234.45881923    -3223.15099284
  entropy T*S    EENTRO =        -0.00000000
  eigenvalues    EBANDS =      -784.93256145
  atomic energy  EATOM  =      4047.50565470
  ---------------------------------------------------
  free energy    TOTEN  =       -95.60889687 eV

  energy without entropy =      -95.60889687  energy(sigma->0) =      -95.60889687


--------------------------------------------------------------------------------------------------------




--------------------------------------- Iteration      1(   4)  ---------------------------------------


    TRIAL :  cpu time      0.4348: real time      0.4349
    CORREC:  cpu time      0.0001: real time      0.0001
    --------------------------------------------
      LOOP:  cpu time      0.4634: real time      0.4635

 eigenvalue-minimisations  :  1192
 total energy-change (2. order) :-0.3824108E+01  (-0.2949667E+01)
 number of electron      64.0000000 magnetization 
 augmentation part       64.0000000 magnetization 

 Free energy of the ion-electron system (eV)
  ---------------------------------------------------
  alpha Z        PSCENC =        64.50308324
  Ewald energy   TEWEN  =     -2171.10254707
  -Hartree energ DENC   =     -1496.95817215
  -exchange      EXHF   =         0.00000000
  -V(xc)+E(xc)   XCENC  =       234.06781945
  PAW double counting   =      3234.45881923    -3223.15099284
  entropy T*S    EENTRO =        -0.00000000
  eigenvalues    EBANDS =      -788.75666959
  atomic energy  EATOM  =      4047.50565470
  ---------------------------------------------------
  free energy    TOTEN  =       -99.43300502 eV

  energy without entropy =      -99.43300502  energy(sigma->0) =      -99.43300502


--------------------------------------------------------------------------------------------------------




--------------------------------------- Iteration      1(   5)  ---------------------------------------


    TRIAL :  cpu time      0.4162: real time      0.4165
    CORREC:  cpu time      0.0001: real time      0.0001
    CHARGE:  cpu time      0.0737: real time      0.0743
    --------------------------------------------
      LOOP:  cpu time      0.5026: real time      0.5198

 eigenvalue-minimisations  :  1120
 total energy-change (2. order) :-0.8382768E-01  ( 0.6477722E+05)
 number of electron    1550.1715089 magnetization 
 augmentation part        0.4941815 magnetization 

 Free energy of the ion-electron system (eV)
  ---------------------------------------------------
  alpha Z        PSCENC =        64.50308324
  Ewald energy   TEWEN  =     -2171.10254707
  -Hartree energ DENC   =     -1496.95817215
  -exchange      EXHF   =         0.00000000
  -V(xc)+E(xc)   XCENC  =       234.06781945
  PAW double counting   =      3234.45881923    -3223.15099284
  entropy T*S    EENTRO =        -0.00000000
  eigenvalues    EBANDS =      -788.84049727
  atomic energy  EATOM  =      4047.50565470
  ---------------------------------------------------
  free energy    TOTEN  =       -99.51683270 eV

  energy without entropy =      -99.51683270  energy(sigma->0) =      -99.51683270


--------------------------------------------------------------------------------------------------------




--------------------------------------- Iteration      1(   6)  ---------------------------------------


    POTLOK:  cpu time      0.0169: real time      0.0169
    SETDIJ:  cpu time      0.0018: real time      0.0018
    TRIAL :  cpu time      0.2536: real time      0.2546
    CORREC:  cpu time      0.1029: real time      0.1030
    CHARGE:  cpu time      0.0584: real time      0.0584
    --------------------------------------------
      LOOP:  cpu time      0.4494: real time      0.4643

 eigenvalue-minimisations  :     0
 total energy-change (2. order) : 0.1010733E+05  ( 0.1240008E+01)
 number of electron      64.7605318 magnetization 
 augmentation part        0.1423856 magnetization 

 Free energy of the ion-electron system (eV)
  ---------------------------------------------------
  alpha Z        PSCENC =        64.50308324
  Ewald energy   TEWEN  =     -2171.10254707
  -Hartree energ DENC   =     -2352.99409838
  -exchange      EXHF   =         0.00000000
  -V(xc)+E(xc)   XCENC  =     11622.75052737
  PAW double counting   =     40376.04503703   -40369.48305254
  entropy T*S    EENTRO =        -0.00000000
  eigenvalues    EBANDS =     -1209.40947641
  atomic energy  EATOM  =      4047.50565470
  ---------------------------------------------------
  free energy    TOTEN  =     10007.81512795 eV

  energy without entropy =    10007.81512795  energy(sigma->0) =    10007.81512795


--------------------------------------------------------------------------------------------------------




--------------------------------------- Iteration      1(   7)  ---------------------------------------


    POTLOK:  cpu time      0.0138: real time      0.0138
    SETDIJ:  cpu time      0.0018: real time      0.0018
    TRIAL :  cpu time      0.2318: real time      0.2320
    CORREC:  cpu time      0.2246: real time      0.2246
    CHARGE:  cpu time      0.0587: real time      0.0587
    --------------------------------------------
      LOOP:  cpu time      0.5592: real time      0.5598

 eigenvalue-minimisations  :     0
 total energy-change (2. order) :-0.9986076E+04  (-0.1087502E+03)
 number of electron      66.5995719 magnetization 
 augmentation part        0.3335856 magnetization 

 Free energy of the ion-electron system (eV)
  ---------------------------------------------------
  alpha Z        PSCENC =        64.50308324
  Ewald energy   TEWEN  =     -2171.10254707
  -Hartree energ DENC   =     -1102.54647541
  -exchange      EXHF   =         0.00000000
  -V(xc)+E(xc)   XCENC  =       214.26141763
  PAW double counting   =     66673.03604201   -66659.17751330
  entropy T*S    EENTRO =        -0.00000000
  eigenvalues    EBANDS =     -1044.74089766
  atomic energy  EATOM  =      4047.50565470
  ---------------------------------------------------
  free energy    TOTEN  =        21.73876415 eV

  energy without entropy =       21.73876415  energy(sigma->0) =       21.73876415


--------------------------------------------------------------------------------------------------------




--------------------------------------- Iteration      1(   8)  ---------------------------------------


    POTLOK:  cpu time      0.0137: real time      0.0137
    SETDIJ:  cpu time      0.0018: real time      0.0018
    TRIAL :  cpu time      0.2307: real time      0.2307
    CORREC:  cpu time      0.2204: real time      0.2204
    CHARGE:  cpu time      0.0592: real time      0.0594
    --------------------------------------------
      LOOP:  cpu time      0.5407: real time      0.5551

 eigenvalue-minimisations  :     0
 total energy-change (2. order) :-0.9675918E+02  (-0.2657145E+02)
 number of electron      66.0464411 magnetization 
 augmentation part        0.3784822 magnetization 

 Free energy of the ion-electron system (eV)
  ---------------------------------------------------
  alpha Z        PSCENC =        64.50308324
  Ewald energy   TEWEN  =     -2171.10254707
  -Hartree energ DENC   =     -1621.09012006
  -exchange      EXHF   =         0.00000000
  -V(xc)+E(xc)   XCENC  =       250.01989479
  PAW double counting   =     41768.75639625   -41760.15322609
  entropy T*S    EENTRO =        -0.00000000
  eigenvalues    EBANDS =      -653.45954762
  atomic energy  EATOM  =      4047.50565470
  ---------------------------------------------------
  free energy    TOTEN  =       -75.02041185 eV

  energy without entropy =      -75.02041185  energy(sigma->0) =      -75.02041185


--------------------------------------------------------------------------------------------------------




--------------------------------------- Iteration      1(   9)  ---------------------------------------


    POTLOK:  cpu time      0.0133: real time      0.0133
    SETDIJ:  cpu time      0.0018: real time      0.0018
    TRIAL :  cpu time      0.2299: real time      0.2300
    CORREC:  cpu time      0.2202: real time      0.2202
    CHARGE:  cpu time      0.0596: real time      0.0596
    --------------------------------------------
      LOOP:  cpu time      0.5378: real time      0.5545

 eigenvalue-minimisations  :     0
 total energy-change (2. order) :-0.2678533E+01  (-0.2653852E+02)
 number of electron      66.1296057 magnetization 
 augmentation part        0.2593685 magnetization 

 Free energy of the ion-electron system (eV)
  ---------------------------------------------------
  alpha Z        PSCENC =        64.50308324
  Ewald energy   TEWEN  =     -2171.10254707
  -Hartree energ DENC   =     -1601.86211371
  -exchange      EXHF   =         0.00000000
  -V(xc)+E(xc)   XCENC  =       245.85463015
  PAW double counting   =     60948.63932673   -60939.69713984
  entropy T*S    EENTRO =        -0.00000000
  eigenvalues    EBANDS =      -671.53983928
  atomic energy  EATOM  =      4047.50565470
  ---------------------------------------------------
  free energy    TOTEN  =       -77.69894507 eV

  energy without entropy =      -77.69894507  energy(sigma->0) =      -77.69894507


--------------------------------------------------------------------------------------------------------




--------------------------------------- Iteration      1(  10)  ---------------------------------------


    POTLOK:  cpu time      0.0136: real time      0.0136
    SETDIJ:  cpu time      0.0017: real time      0.0017
    TRIAL :  cpu time      0.2298: real time      0.2298
    CORREC:  cpu time      0.8725: real time      0.8728
    CHARGE:  cpu time      0.0587: real time      0.0587
    --------------------------------------------
      LOOP:  cpu time      1.2060: real time      1.2066

 eigenvalue-minimisations  :     0
 total energy-change (2. order) :-0.2501929E+01  (           NaN)
 number of electron      66.2856336 magnetization 
 augmentation part        1.0732998 magnetization 

 Free energy of the ion-electron system (eV)
  ---------------------------------------------------
  alpha Z        PSCENC =        64.50308324
  Ewald energy   TEWEN  =     -2171.10254707
  -Hartree energ DENC   =     -1617.74201150
  -exchange      EXHF   =         0.00000000
  -V(xc)+E(xc)   XCENC  =       247.71602217
  PAW double counting   =     48312.52112481   -48303.50475044
  entropy T*S    EENTRO =        -0.00000000
  eigenvalues    EBANDS =      -660.09744977
  atomic energy  EATOM  =      4047.50565470
  ---------------------------------------------------
  free energy    TOTEN  =       -80.20087386 eV

  energy without entropy =      -80.20087386  energy(sigma->0) =      -80.20087386


--------------------------------------------------------------------------------------------------------




--------------------------------------- Iteration      1(  11)  ---------------------------------------


    POTLOK:  cpu time      0.0136: real time      0.0136
    SETDIJ:  cpu time      0.0018: real time      0.0018
    TRIAL :  cpu time      0.2300: real time      0.2303
    CORREC:  cpu time      0.2190: real time      0.2191
    CHARGE:  cpu time      0.0587: real time      0.0587
    --------------------------------------------
      LOOP:  cpu time      0.5376: real time      0.5517

 eigenvalue-minimisations  :     0
 total energy-change (2. order) : 0.2949094E+03  (-0.2362679E+03)
 number of electron      66.5588676 magnetization 
 augmentation part        1.3151833 magnetization 

 Free energy of the ion-electron system (eV)
  ---------------------------------------------------
  alpha Z        PSCENC =        64.50308324
  Ewald energy   TEWEN  =     -2171.10254707
  -Hartree energ DENC   =     -1046.70685676
  -exchange      EXHF   =         0.00000000
  -V(xc)+E(xc)   XCENC  =       214.48579606
  PAW double counting   =    108500.14970508  -108489.58843696
  entropy T*S    EENTRO =        -0.00000000
  eigenvalues    EBANDS =      -904.53788871
  atomic energy  EATOM  =      4047.50565470
  ---------------------------------------------------
  free energy    TOTEN  =       214.70850959 eV

  energy without entropy =      214.70850959  energy(sigma->0) =      214.70850959


--------------------------------------------------------------------------------------------------------




--------------------------------------- Iteration      1(  12)  ---------------------------------------


    POTLOK:  cpu time      0.0135: real time      0.0135
    SETDIJ:  cpu time      0.0018: real time      0.0018
    TRIAL :  cpu time      0.2303: real time      0.2303
    CORREC:  cpu time      0.2220: real time      0.2221
    CHARGE:  cpu time      0.0586: real time      0.0586
    --------------------------------------------
      LOOP:  cpu time      0.5382: real time      1.3715

 eigenvalue-minimisations  :     0
 total energy-change (2. order) :-0.2086323E+03  (-0.7205804E+02)
 number of electron      66.3205607 magnetization 
 augmentation part        0.9083442 magnetization 

 Free energy of the ion-electron system (eV)
  ---------------------------------------------------
  alpha Z        PSCENC =        64.50308324
  Ewald energy   TEWEN  =     -2171.10254707
  -Hartree energ DENC   =     -1610.68887155
  -exchange      EXHF   =         0.00000000
  -V(xc)+E(xc)   XCENC  =       248.68286497
  PAW double counting   =    726383.87121735  -726379.55455151
  entropy T*S    EENTRO =        -0.00000000
  eigenvalues    EBANDS =      -577.14059106
  atomic energy  EATOM  =      4047.50565470
  ---------------------------------------------------
  free energy    TOTEN  =         6.07625908 eV

  energy without entropy =        6.07625908  energy(sigma->0) =        6.07625908


--------------------------------------------------------------------------------------------------------




--------------------------------------- Iteration      1(  13)  ---------------------------------------


    POTLOK:  cpu time      0.0130: real time      0.0130
    SETDIJ:  cpu time      0.0018: real time      0.0018
    TRIAL :  cpu time      0.2298: real time      0.2298
    CORREC:  cpu time      0.2468: real time      0.2471
    CHARGE:  cpu time      0.0585: real time      0.0585
    --------------------------------------------
      LOOP:  cpu time      0.5623: real time      0.5799

 eigenvalue-minimisations  :     0
 total energy-change (2. order) :-0.6436940E+02  (-0.2286263E+02)
 number of electron      66.2865381 magnetization 
 augmentation part        0.5289627 magnetization 

 Free energy of the ion-electron system (eV)
  ---------------------------------------------------
  alpha Z        PSCENC =        64.50308324
  Ewald energy   TEWEN  =     -2171.10254707
  -Hartree energ DENC   =     -1610.18334666
  -exchange      EXHF   =         0.00000000
  -V(xc)+E(xc)   XCENC  =       247.84710076
  PAW double counting   =   1011580.65762179 -1011574.30601741
  entropy T*S    EENTRO =        -0.00000000
  eigenvalues    EBANDS =      -643.21468750
  atomic energy  EATOM  =      4047.50565470
  ---------------------------------------------------
  free energy    TOTEN  =       -58.29313813 eV

  energy without entropy =      -58.29313813  energy(sigma->0) =      -58.29313813


--------------------------------------------------------------------------------------------------------




--------------------------------------- Iteration      1(  14)  ---------------------------------------


    POTLOK:  cpu time      0.0135: real time      0.0135
    SETDIJ:  cpu time      0.0018: real time      0.0018
    TRIAL :  cpu time      0.2297: real time      0.2297
    CORREC:  cpu time      0.2212: real time      0.2212
    CHARGE:  cpu time      0.0637: real time      0.0637
    --------------------------------------------
      LOOP:  cpu time      0.5413: real time      0.5583

 eigenvalue-minimisations  :     0
 total energy-change (2. order) :-0.1808838E+02  (-0.2179533E+02)
 number of electron      66.1468454 magnetization 
 augmentation part        0.1589070 magnetization 

 Free energy of the ion-electron system (eV)
  ---------------------------------------------------
  alpha Z        PSCENC =        64.50308324
  Ewald energy   TEWEN  =     -2171.10254707
  -Hartree energ DENC   =     -1542.71741012
  -exchange      EXHF   =         0.00000000
  -V(xc)+E(xc)   XCENC  =       243.50936104
  PAW double counting   =    598992.63088650  -598984.00132424
  entropy T*S    EENTRO =        -0.00000000
  eigenvalues    EBANDS =      -726.70921801
  atomic energy  EATOM  =      4047.50565470
  ---------------------------------------------------
  free energy    TOTEN  =       -76.38151395 eV

  energy without entropy =      -76.38151395  energy(sigma->0) =      -76.38151395


--------------------------------------------------------------------------------------------------------




--------------------------------------- Iteration      1(  15)  ---------------------------------------


    POTLOK:  cpu time      0.0133: real time      0.0133
    SETDIJ:  cpu time      0.0017: real time      0.0017
    TRIAL :  cpu time      0.2452: real time      0.2454
    CORREC:  cpu time      0.2207: real time      0.2207
    CHARGE:  cpu time      0.0589: real time      0.0589
    --------------------------------------------
      LOOP:  cpu time      0.5768: real time      0.5773

 eigenvalue-minimisations  :     0
 total energy-change (2. order) : 0.1132023E+01  (-0.2394073E+02)
 number of electron      66.2713490 magnetization 
 augmentation part        0.3700205 magnetization 

 Free energy of the ion-electron system (eV)
  ---------------------------------------------------
  alpha Z        PSCENC =        64.50308324
  Ewald energy   TEWEN  =     -2171.10254707
  -Hartree energ DENC   =     -1595.82245522
  -exchange      EXHF   =         0.00000000
  -V(xc)+E(xc)   XCENC  =       246.16792511
  PAW double counting   =     85398.98709138   -85389.30957287
  entropy T*S    EENTRO =        -0.00000000
  eigenvalues    EBANDS =      -676.17867036
  atomic energy  EATOM  =      4047.50565470
  ---------------------------------------------------
  free energy    TOTEN  =       -75.24949108 eV

  energy without entropy =      -75.24949108  energy(sigma->0) =      -75.24949108


--------------------------------------------------------------------------------------------------------




--------------------------------------- Iteration      1(  16)  ---------------------------------------


    POTLOK:  cpu time      0.0137: real time      0.0137
    SETDIJ:  cpu time      0.0018: real time      0.0018
    TRIAL :  cpu time      0.2289: real time      0.2289
    CORREC:  cpu time      0.0928: real time      0.0928
    CHARGE:  cpu time      0.0592: real time      0.0592
    --------------------------------------------
      LOOP:  cpu time      0.4078: real time      0.4250

 eigenvalue-minimisations  :     0
 total energy-change (2. order) :-0.1181760E+02  ( 0.2123407E+02)
 number of electron      64.7346855 magnetization 
 augmentation part        0.3759771 magnetization 

 Free energy of the ion-electron system (eV)
  ---------------------------------------------------
  alpha Z        PSCENC =        64.50308324
  Ewald energy   TEWEN  =     -2171.10254707
  -Hartree energ DENC   =     -1604.78112670
  -exchange      EXHF   =         0.00000000
  -V(xc)+E(xc)   XCENC  =       247.02474642
  PAW double counting   =     99787.23864031   -99778.44279550
  entropy T*S    EENTRO =        -0.00000000
  eigenvalues    EBANDS =      -679.01274827
  atomic energy  EATOM  =      4047.50565470
  ---------------------------------------------------
  free energy    TOTEN  =       -87.06709285 eV

  energy without entropy =      -87.06709285  energy(sigma->0) =      -87.06709285


--------------------------------------------------------------------------------------------------------




--------------------------------------- Iteration      1(  17)  ---------------------------------------


    POTLOK:  cpu time      0.0134: real time      0.0134
    SETDIJ:  cpu time      0.0018: real time      0.0018
    TRIAL :  cpu time      0.2285: real time      0.2289
    CORREC:  cpu time      0.0941: real time      0.0941
    CHARGE:  cpu time      0.0588: real time      0.0588
    --------------------------------------------
      LOOP:  cpu time      0.4253: real time      0.4258

 eigenvalue-minimisations  :     0
 total energy-change (2. order) :-0.4239090E+01  ( 0.1174438E+01)
 number of electron      64.7361741 magnetization 
 augmentation part        0.2969524 magnetization 

 Free energy of the ion-electron system (eV)
  ---------------------------------------------------
  alpha Z        PSCENC =        64.50308324
  Ewald energy   TEWEN  =     -2171.10254707
  -Hartree energ DENC   =     -1616.12135213
  -exchange      EXHF   =         0.00000000
  -V(xc)+E(xc)   XCENC  =       243.61945866
  PAW double counting   =     75358.76047428   -75350.08653983
  entropy T*S    EENTRO =        -0.00000000
  eigenvalues    EBANDS =      -668.38441431
  atomic energy  EATOM  =      4047.50565470
  ---------------------------------------------------
  free energy    TOTEN  =       -91.30618245 eV

  energy without entropy =      -91.30618245  energy(sigma->0) =      -91.30618245


--------------------------------------------------------------------------------------------------------




--------------------------------------- Iteration      1(  18)  ---------------------------------------


    POTLOK:  cpu time      0.0132: real time      0.0132
    SETDIJ:  cpu time      0.0018: real time      0.0018
    TRIAL :  cpu time      0.2288: real time      0.2288
    CORREC:  cpu time      0.0938: real time      0.0938
    CHARGE:  cpu time      0.0591: real time      0.0591
    --------------------------------------------
      LOOP:  cpu time      0.4087: real time      0.4262

 eigenvalue-minimisations  :     0
 total energy-change (2. order) :-0.1226933E+01  ( 0.5735934E-01)
 number of electron      64.7402291 magnetization 
 augmentation part        0.2523061 magnetization 

 Free energy of the ion-electron system (eV)
  ---------------------------------------------------
  alpha Z        PSCENC =        64.50308324
  Ewald energy   TEWEN  =     -2171.10254707
  -Hartree energ DENC   =     -1628.97105631
  -exchange      EXHF   =         0.00000000
  -V(xc)+E(xc)   XCENC  =       244.37333788
  PAW double counting   =     56387.18141010   -56378.25556616
  entropy T*S    EENTRO =        -0.00000000
  eigenvalues    EBANDS =      -657.76743189
  atomic energy  EATOM  =      4047.50565470
  ---------------------------------------------------
  free energy    TOTEN  =       -92.53311551 eV

  energy without entropy =      -92.53311551  energy(sigma->0) =      -92.53311551


--------------------------------------------------------------------------------------------------------




--------------------------------------- Iteration      1(  19)  ---------------------------------------


    POTLOK:  cpu time      0.0129: real time      0.0129
    SETDIJ:  cpu time      0.0018: real time      0.0018
    TRIAL :  cpu time      0.2290: real time      0.2290
    CORREC:  cpu time      0.0936: real time      0.0940
    CHARGE:  cpu time      0.0581: real time      0.0581
    --------------------------------------------
      LOOP:  cpu time      0.4107: real time      0.4254

 eigenvalue-minimisations  :     0
 total energy-change (2. order) :-0.2343129E+00  ( 0.4849233E-02)
 number of electron      64.5861870 magnetization 
 augmentation part        0.2555073 magnetization 

 Free energy of the ion-electron system (eV)
  ---------------------------------------------------
  alpha Z        PSCENC =        64.50308324
  Ewald energy   TEWEN  =     -2171.10254707
  -Hartree energ DENC   =     -1621.43886956
  -exchange      EXHF   =         0.00000000
  -V(xc)+E(xc)   XCENC  =       243.87187419
  PAW double counting   =     49509.84028027   -49500.63363596
  entropy T*S    EENTRO =        -0.00000000
  eigenvalues    EBANDS =      -665.31326818
  atomic energy  EATOM  =      4047.50565470
  ---------------------------------------------------
  free energy    TOTEN  =       -92.76742836 eV

  energy without entropy =      -92.76742836  energy(sigma->0) =      -92.76742836


--------------------------------------------------------------------------------------------------------




--------------------------------------- Iteration      1(  20)  ---------------------------------------


    POTLOK:  cpu time      0.0133: real time      0.0133
    SETDIJ:  cpu time      0.0018: real time      0.0018
    TRIAL :  cpu time      0.2296: real time      0.2296
    CORREC:  cpu time      0.0949: real time      0.0949
    CHARGE:  cpu time      0.0586: real time      0.0586
    --------------------------------------------
      LOOP:  cpu time      0.4106: real time      0.4272

 eigenvalue-minimisations  :     0
 total energy-change (2. order) :-0.1673849E+00  ( 0.1453265E-02)
 number of electron      64.7191994 magnetization 
 augmentation part        0.2668446 magnetization 

 Free energy of the ion-electron system (eV)
  ---------------------------------------------------
  alpha Z        PSCENC =        64.50308324
  Ewald energy   TEWEN  =     -2171.10254707
  -Hartree energ DENC   =     -1620.36798285
  -exchange      EXHF   =         0.00000000
  -V(xc)+E(xc)   XCENC  =       243.43415854
  PAW double counting   =     47129.61271821   -47120.40525939
  entropy T*S    EENTRO =        -0.00000000
  eigenvalues    EBANDS =      -666.11463867
  atomic energy  EATOM  =      4047.50565470
  ---------------------------------------------------
  free energy    TOTEN  =       -92.93481328 eV

  energy without entropy =      -92.93481328  energy(sigma->0) =      -92.93481328


--------------------------------------------------------------------------------------------------------




--------------------------------------- Iteration      1(  21)  ---------------------------------------


    POTLOK:  cpu time      0.0126: real time      0.0126
    SETDIJ:  cpu time      0.0018: real time      0.0018
    TRIAL :  cpu time      0.2299: real time      0.2299
    CORREC:  cpu time      0.0943: real time      0.0943
    CHARGE:  cpu time      0.0588: real time      0.0588
    --------------------------------------------
      LOOP:  cpu time      0.4262: real time      0.4265

 eigenvalue-minimisations  :     0
 total energy-change (2. order) :-0.1641477E-01  ( 0.8094999E-03)
 number of electron      64.3132472 magnetization 
 augmentation part        0.2761958 magnetization 

 Free energy of the ion-electron system (eV)
  ---------------------------------------------------
  alpha Z        PSCENC =        64.50308324
  Ewald energy   TEWEN  =     -2171.10254707
  -Hartree energ DENC   =     -1624.47148513
  -exchange      EXHF   =         0.00000000
  -V(xc)+E(xc)   XCENC  =       244.04649190
  PAW double counting   =     46297.89047246   -46288.76418498
  entropy T*S    EENTRO =        -0.00000000
  eigenvalues    EBANDS =      -662.55871318
  atomic energy  EATOM  =      4047.50565470
  ---------------------------------------------------
  free energy    TOTEN  =       -92.95122805 eV

  energy without entropy =      -92.95122805  energy(sigma->0) =      -92.95122805


--------------------------------------------------------------------------------------------------------




--------------------------------------- Iteration      1(  22)  ---------------------------------------


    POTLOK:  cpu time      0.0131: real time      0.0131
    SETDIJ:  cpu time      0.0017: real time      0.0017
    TRIAL :  cpu time      0.2285: real time      0.2290
    CORREC:  cpu time      0.0931: real time      0.0932
    CHARGE:  cpu time      0.0586: real time      0.0586
    --------------------------------------------
      LOOP:  cpu time      0.4067: real time      0.4252

 eigenvalue-minimisations  :     0
 total energy-change (2. order) :-0.3571546E-01  ( 0.5112398E-02)
 number of electron      64.7002923 magnetization 
 augmentation part        0.2641285 magnetization 

 Free energy of the ion-electron system (eV)
  ---------------------------------------------------
  alpha Z        PSCENC =        64.50308324
  Ewald energy   TEWEN  =     -2171.10254707
  -Hartree energ DENC   =     -1624.78538912
  -exchange      EXHF   =         0.00000000
  -V(xc)+E(xc)   XCENC  =       243.01617149
  PAW double counting   =     45551.54179839   -45542.46570009
  entropy T*S    EENTRO =        -0.00000000
  eigenvalues    EBANDS =      -661.20001506
  atomic energy  EATOM  =      4047.50565470
  ---------------------------------------------------
  free energy    TOTEN  =       -92.98694351 eV

  energy without entropy =      -92.98694351  energy(sigma->0) =      -92.98694351


--------------------------------------------------------------------------------------------------------




--------------------------------------- Iteration      1(  23)  ---------------------------------------


    POTLOK:  cpu time      0.0134: real time      0.0134
    SETDIJ:  cpu time      0.0018: real time      0.0018
    TRIAL :  cpu time      0.2289: real time      0.2289
    CORREC:  cpu time      0.0929: real time      0.0929
    CHARGE:  cpu time      0.0593: real time      0.0593
    --------------------------------------------
      LOOP:  cpu time      0.4125: real time      0.4259

 eigenvalue-minimisations  :     0
 total energy-change (2. order) : 0.1918109E-01  ( 0.9007942E-04)
 number of electron      64.3049949 magnetization 
 augmentation part        0.2612940 magnetization 

 Free energy of the ion-electron system (eV)
  ---------------------------------------------------
  alpha Z        PSCENC =        64.50308324
  Ewald energy   TEWEN  =     -2171.10254707
  -Hartree energ DENC   =     -1623.13871636
  -exchange      EXHF   =         0.00000000
  -V(xc)+E(xc)   XCENC  =       243.88337109
  PAW double counting   =     45785.73599104   -45776.57791074
  entropy T*S    EENTRO =        -0.00000000
  eigenvalues    EBANDS =      -663.77668833
  atomic energy  EATOM  =      4047.50565470
  ---------------------------------------------------
  free energy    TOTEN  =       -92.96776242 eV

  energy without entropy =      -92.96776242  energy(sigma->0) =      -92.96776242


--------------------------------------------------------------------------------------------------------




--------------------------------------- Iteration      1(  24)  ---------------------------------------


    POTLOK:  cpu time      0.0129: real time      0.0129
    SETDIJ:  cpu time      0.0017: real time      0.0017
    TRIAL :  cpu time      0.2293: real time      0.2296
    CORREC:  cpu time      0.0954: real time      0.0954
    CHARGE:  cpu time      0.0580: real time      0.0580
    --------------------------------------------
      LOOP:  cpu time      0.4117: real time      0.4274

 eigenvalue-minimisations  :     0
 total energy-change (2. order) :-0.1383307E+00  ( 0.7450916E-04)
 number of electron      64.7420253 magnetization 
 augmentation part        0.2642524 magnetization 

 Free energy of the ion-electron system (eV)
  ---------------------------------------------------
  alpha Z        PSCENC =        64.50308324
  Ewald energy   TEWEN  =     -2171.10254707
  -Hartree energ DENC   =     -1621.11183053
  -exchange      EXHF   =         0.00000000
  -V(xc)+E(xc)   XCENC  =       242.74038557
  PAW double counting   =     46020.52820726   -46011.35521691
  entropy T*S    EENTRO =        -0.00000000
  eigenvalues    EBANDS =      -664.81382941
  atomic energy  EATOM  =      4047.50565470
  ---------------------------------------------------
  free energy    TOTEN  =       -93.10609315 eV

  energy without entropy =      -93.10609315  energy(sigma->0) =      -93.10609315


--------------------------------------------------------------------------------------------------------




--------------------------------------- Iteration      1(  25)  ---------------------------------------


    POTLOK:  cpu time      0.0132: real time      0.0132
    SETDIJ:  cpu time      0.0017: real time      0.0017
    TRIAL :  cpu time      0.2292: real time      0.2292
    CORREC:  cpu time      0.0926: real time      0.0926
    CHARGE:  cpu time      0.0594: real time      0.0594
    --------------------------------------------
      LOOP:  cpu time      0.4086: real time      0.4254

 eigenvalue-minimisations  :     0
 total energy-change (2. order) : 0.1235293E+00  ( 0.4536222E-04)
 number of electron      64.6971806 magnetization 
 augmentation part        0.2654855 magnetization 

 Free energy of the ion-electron system (eV)
  ---------------------------------------------------
  alpha Z        PSCENC =        64.50308324
  Ewald energy   TEWEN  =     -2171.10254707
  -Hartree energ DENC   =     -1625.33966653
  -exchange      EXHF   =         0.00000000
  -V(xc)+E(xc)   XCENC  =       244.14206455
  PAW double counting   =     46360.29707170   -46351.16538921
  entropy T*S    EENTRO =        -0.00000000
  eigenvalues    EBANDS =      -661.82283526
  atomic energy  EATOM  =      4047.50565470
  ---------------------------------------------------
  free energy    TOTEN  =       -92.98256387 eV

  energy without entropy =      -92.98256387  energy(sigma->0) =      -92.98256387


--------------------------------------------------------------------------------------------------------




--------------------------------------- Iteration      1(  26)  ---------------------------------------


    POTLOK:  cpu time      0.0131: real time      0.0131
    SETDIJ:  cpu time      0.0018: real time      0.0017
    TRIAL :  cpu time      0.2289: real time      0.2289
    CORREC:  cpu time      0.0933: real time      0.0936
    CHARGE:  cpu time      0.0584: real time      0.0584
    --------------------------------------------
      LOOP:  cpu time      0.4245: real time      0.4250

 eigenvalue-minimisations  :     0
 total energy-change (2. order) :-0.1528926E-01  ( 0.3608504E-03)
 number of electron      64.7423282 magnetization 
 augmentation part        0.2675948 magnetization 

 Free energy of the ion-electron system (eV)
  ---------------------------------------------------
  alpha Z        PSCENC =        64.50308324
  Ewald energy   TEWEN  =     -2171.10254707
  -Hartree energ DENC   =     -1623.95622617
  -exchange      EXHF   =         0.00000000
  -V(xc)+E(xc)   XCENC  =       243.94610649
  PAW double counting   =     46919.09344537   -46909.95703124
  entropy T*S    EENTRO =        -0.00000000
  eigenvalues    EBANDS =      -663.03033847
  atomic energy  EATOM  =      4047.50565470
  ---------------------------------------------------
  free energy    TOTEN  =       -92.99785313 eV

  energy without entropy =      -92.99785313  energy(sigma->0) =      -92.99785313


--------------------------------------------------------------------------------------------------------




--------------------------------------- Iteration      1(  27)  ---------------------------------------


    POTLOK:  cpu time      0.0130: real time      0.0130
    SETDIJ:  cpu time      0.0018: real time      0.0018
    TRIAL :  cpu time      0.2289: real time      0.2289
    CORREC:  cpu time      0.0934: real time      0.0934
    CHARGE:  cpu time      0.0589: real time      0.0589
    --------------------------------------------
      LOOP:  cpu time      0.4075: real time      0.4255

 eigenvalue-minimisations  :     0
 total energy-change (2. order) : 0.1760491E+00  ( 0.1920515E-02)
 number of electron      64.7189591 magnetization 
 augmentation part        0.2704738 magnetization 

 Free energy of the ion-electron system (eV)
  ---------------------------------------------------
  alpha Z        PSCENC =        64.50308324
  Ewald energy   TEWEN  =     -2171.10254707
  -Hartree energ DENC   =     -1618.35637450
  -exchange      EXHF   =         0.00000000
  -V(xc)+E(xc)   XCENC  =       243.71170532
  PAW double counting   =     48562.65474063   -48553.48573056
  entropy T*S    EENTRO =        -0.00000000
  eigenvalues    EBANDS =      -668.25233578
  atomic energy  EATOM  =      4047.50565470
  ---------------------------------------------------
  free energy    TOTEN  =       -92.82180400 eV

  energy without entropy =      -92.82180400  energy(sigma->0) =      -92.82180400


--------------------------------------------------------------------------------------------------------




--------------------------------------- Iteration      1(  28)  ---------------------------------------


    POTLOK:  cpu time      0.0132: real time      0.0132
    SETDIJ:  cpu time      0.0017: real time      0.0017
    TRIAL :  cpu time      0.2391: real time      0.2391
    CORREC:  cpu time      0.1169: real time      0.1169
    CHARGE:  cpu time      0.0723: real time      0.0723
    --------------------------------------------
      LOOP:  cpu time      0.4560: real time      0.4730

 eigenvalue-minimisations  :     0
 total energy-change (2. order) :-0.9664044E-01  ( 0.7526887E-03)
 number of electron      64.8334915 magnetization 
 augmentation part        0.2676355 magnetization 

 Free energy of the ion-electron system (eV)
  ---------------------------------------------------
  alpha Z        PSCENC =        64.50308324
  Ewald energy   TEWEN  =     -2171.10254707
  -Hartree energ DENC   =     -1625.16325767
  -exchange      EXHF   =         0.00000000
  -V(xc)+E(xc)   XCENC  =       244.08327635
  PAW double counting   =     47927.69358135   -47918.59205836
  entropy T*S    EENTRO =        -0.00000000
  eigenvalues    EBANDS =      -661.84617700
  atomic energy  EATOM  =      4047.50565470
  ---------------------------------------------------
  free energy    TOTEN  =       -92.91844445 eV

  energy without entropy =      -92.91844445  energy(sigma->0) =      -92.91844445


--------------------------------------------------------------------------------------------------------




--------------------------------------- Iteration      1(  29)  ---------------------------------------


    POTLOK:  cpu time      0.0175: real time      0.0175
    SETDIJ:  cpu time      0.0018: real time      0.0018
    TRIAL :  cpu time      0.2348: real time      0.2348
    CORREC:  cpu time      0.0935: real time      0.0936
    CHARGE:  cpu time      0.0590: real time      0.0590
    --------------------------------------------
      LOOP:  cpu time      0.4353: real time      0.4359

 eigenvalue-minimisations  :     0
 total energy-change (2. order) : 0.4292510E-01  ( 0.3986452E-03)
 number of electron      64.7423932 magnetization 
 augmentation part        0.2629127 magnetization 

 Free energy of the ion-electron system (eV)
  ---------------------------------------------------
  alpha Z        PSCENC =        64.50308324
  Ewald energy   TEWEN  =     -2171.10254707
  -Hartree energ DENC   =     -1622.31823334
  -exchange      EXHF   =         0.00000000
  -V(xc)+E(xc)   XCENC  =       244.21588509
  PAW double counting   =     47321.79841457   -47312.68388557
  entropy T*S    EENTRO =        -0.00000000
  eigenvalues    EBANDS =      -664.79389096
  atomic energy  EATOM  =      4047.50565470
  ---------------------------------------------------
  free energy    TOTEN  =       -92.87551935 eV

  energy without entropy =      -92.87551935  energy(sigma->0) =      -92.87551935


--------------------------------------------------------------------------------------------------------




--------------------------------------- Iteration      1(  30)  ---------------------------------------


    POTLOK:  cpu time      0.0131: real time      0.0131
    SETDIJ:  cpu time      0.0018: real time      0.0018
    TRIAL :  cpu time      0.2295: real time      0.2295
    CORREC:  cpu time      0.0936: real time      0.0936
    CHARGE:  cpu time      0.0592: real time      0.0592
    --------------------------------------------
      LOOP:  cpu time      0.4115: real time      0.4267

 eigenvalue-minimisations  :     0
 total energy-change (2. order) :-0.2313979E-01  ( 0.2858165E-03)
 number of electron      64.7197815 magnetization 
 augmentation part        0.2592182 magnetization 

 Free energy of the ion-electron system (eV)
  ---------------------------------------------------
  alpha Z        PSCENC =        64.50308324
  Ewald energy   TEWEN  =     -2171.10254707
  -Hartree energ DENC   =     -1622.23466164
  -exchange      EXHF   =         0.00000000
  -V(xc)+E(xc)   XCENC  =       243.94067309
  PAW double counting   =     46813.22029855   -46804.05852800
  entropy T*S    EENTRO =        -0.00000000
  eigenvalues    EBANDS =      -664.67263202
  atomic energy  EATOM  =      4047.50565470
  ---------------------------------------------------
  free energy    TOTEN  =       -92.89865914 eV

  energy without entropy =      -92.89865914  energy(sigma->0) =      -92.89865914


--------------------------------------------------------------------------------------------------------




--------------------------------------- Iteration      1(  31)  ---------------------------------------


    POTLOK:  cpu time      0.0131: real time      0.0131
    SETDIJ:  cpu time      0.0018: real time      0.0018
    TRIAL :  cpu time      0.2291: real time      0.2294
    CORREC:  cpu time      0.0938: real time      0.0938
    CHARGE:  cpu time      0.0584: real time      0.0584
    --------------------------------------------
      LOOP:  cpu time      0.4099: real time      0.4259

 eigenvalue-minimisations  :     0
 total energy-change (2. order) : 0.7876099E-01  ( 0.2380024E-02)
 number of electron      64.7407131 magnetization 
 augmentation part        0.2665812 magnetization 

 Free energy of the ion-electron system (eV)
  ---------------------------------------------------
  alpha Z        PSCENC =        64.50308324
  Ewald energy   TEWEN  =     -2171.10254707
  -Hartree energ DENC   =     -1618.79952497
  -exchange      EXHF   =         0.00000000
  -V(xc)+E(xc)   XCENC  =       243.66774478
  PAW double counting   =     46267.25249861   -46258.04565081
  entropy T*S    EENTRO =        -0.00000000
  eigenvalues    EBANDS =      -667.80115663
  atomic energy  EATOM  =      4047.50565470
  ---------------------------------------------------
  free energy    TOTEN  =       -92.81989814 eV

  energy without entropy =      -92.81989814  energy(sigma->0) =      -92.81989814


--------------------------------------------------------------------------------------------------------




--------------------------------------- Iteration      1(  32)  ---------------------------------------


    POTLOK:  cpu time      0.0131: real time      0.0131
    SETDIJ:  cpu time      0.0017: real time      0.0017
    TRIAL :  cpu time      0.2289: real time      0.2289
    CORREC:  cpu time      0.1009: real time      0.1009
    CHARGE:  cpu time      0.0582: real time      0.0582
    --------------------------------------------
      LOOP:  cpu time      0.4158: real time      0.4322

 eigenvalue-minimisations  :     0
 total energy-change (2. order) :-0.5946074E-01  ( 0.2630984E-02)
 number of electron      65.0913912 magnetization 
 augmentation part        0.2697655 magnetization 

 Free energy of the ion-electron system (eV)
  ---------------------------------------------------
  alpha Z        PSCENC =        64.50308324
  Ewald energy   TEWEN  =     -2171.10254707
  -Hartree energ DENC   =     -1624.80583786
  -exchange      EXHF   =         0.00000000
  -V(xc)+E(xc)   XCENC  =       244.11003045
  PAW double counting   =     46336.21589305   -46327.09295266
  entropy T*S    EENTRO =        -0.00000000
  eigenvalues    EBANDS =      -662.21268274
  atomic energy  EATOM  =      4047.50565470
  ---------------------------------------------------
  free energy    TOTEN  =       -92.87935888 eV

  energy without entropy =      -92.87935888  energy(sigma->0) =      -92.87935888


--------------------------------------------------------------------------------------------------------




--------------------------------------- Iteration      1(  33)  ---------------------------------------


    POTLOK:  cpu time      0.0133: real time      0.0133
    SETDIJ:  cpu time      0.0018: real time      0.0018
    TRIAL :  cpu time      0.2293: real time      0.2293
    CORREC:  cpu time      0.0937: real time      0.0941
    CHARGE:  cpu time      0.0580: real time      0.0581
    --------------------------------------------
      LOOP:  cpu time      0.4072: real time      0.4250

 eigenvalue-minimisations  :     0
 total energy-change (2. order) : 0.1975960E+00  ( 0.2097138E-02)
 number of electron      65.0929359 magnetization 
 augmentation part        0.2664807 magnetization 

 Free energy of the ion-electron system (eV)
  ---------------------------------------------------
  alpha Z        PSCENC =        64.50308324
  Ewald energy   TEWEN  =     -2171.10254707
  -Hartree energ DENC   =     -1627.11550878
  -exchange      EXHF   =         0.00000000
  -V(xc)+E(xc)   XCENC  =       245.19766139
  PAW double counting   =     46693.91044927   -46684.81245102
  entropy T*S    EENTRO =        -0.00000000
  eigenvalues    EBANDS =      -660.76810466
  atomic energy  EATOM  =      4047.50565470
  ---------------------------------------------------
  free energy    TOTEN  =       -92.68176293 eV

  energy without entropy =      -92.68176293  energy(sigma->0) =      -92.68176293


--------------------------------------------------------------------------------------------------------




--------------------------------------- Iteration      1(  34)  ---------------------------------------


    POTLOK:  cpu time      0.0129: real time      0.0129
    SETDIJ:  cpu time      0.0018: real time      0.0018
    TRIAL :  cpu time      0.2293: real time      0.2293
    CORREC:  cpu time      0.0931: real time      0.0931
    CHARGE:  cpu time      0.0593: real time      0.0593
    --------------------------------------------
      LOOP:  cpu time      0.4116: real time      0.4258

 eigenvalue-minimisations  :     0
 total energy-change (2. order) : 0.6302772E-01  ( 0.3544382E-02)
 number of electron      65.0523324 magnetization 
 augmentation part        0.2669697 magnetization 

 Free energy of the ion-electron system (eV)
  ---------------------------------------------------
  alpha Z        PSCENC =        64.50308324
[...]
     40       5.5206      0.00000

 k-point     6 :      -0.2000    0.4000    0.0000
  band No.  band energies     occupation 
      1     -23.6053      2.00000
      2     -23.5475      2.00000
      3     -23.4935      2.00000
      4     -23.4869      2.00000
      5     -22.5410      2.00000
      6     -22.5394      2.00000
      7     -22.5284      2.00000
      8     -22.5140      2.00000
      9      -8.4634      2.00000
     10      -8.4532      2.00000
     11      -8.4373      2.00000
     12      -8.3988      2.00000
     13      -7.5318      2.00000
     14      -7.5076      2.00000
     15      -7.4007      2.00000
     16      -7.3755      2.00000
     17      -7.0764      2.00000
     18      -6.9773      2.00000
     19      -6.9589      2.00000
     20      -6.9122      2.00000
     21      -6.8955      2.00000
     22      -6.7396      2.00000
     23      -6.7173      2.00000
     24      -6.5980      2.00000
     25      -3.6274      2.00000
     26      -3.6185      2.00000
     27      -3.5719      2.00000
     28      -3.4122      2.00000
     29      -3.3983      2.00000
     30      -3.3725      2.00000
     31      -3.2749      2.00000
     32      -3.2257      2.00000
     33       4.7241      0.00000
     34       4.7586      0.00000
     35       4.8396      0.00000
     36       4.9318      0.00000
     37       5.2236      0.00000
     38       5.2963      0.00000
     39       5.4198      0.00000
     40       5.4598      0.00000

 k-point     7 :       0.4000    0.4000    0.0000
  band No.  band energies     occupation 
      1     -23.5712      2.00000
      2     -23.5285      2.00000
      3     -23.5284      2.00000
      4     -23.5053      2.00000
      5     -22.5369      2.00000
      6     -22.5321      2.00000
      7     -22.5320      2.00000
      8     -22.5223      2.00000
      9      -8.4714      2.00000
     10      -8.4542      2.00000
     11      -8.4346      2.00000
     12      -8.4138      2.00000
     13      -7.5285      2.00000
     14      -7.5198      2.00000
     15      -7.4470      2.00000
     16      -7.3751      2.00000
     17      -7.1085      2.00000
     18      -7.0143      2.00000
     19      -6.9629      2.00000
     20      -6.8501      2.00000
     21      -6.7735      2.00000
     22      -6.7515      2.00000
     23      -6.7344      2.00000
     24      -6.6244      2.00000
     25      -3.5412      2.00000
     26      -3.5157      2.00000
     27      -3.4990      2.00000
     28      -3.4225      2.00000
     29      -3.3916      2.00000
     30      -3.3775      2.00000
     31      -3.3594      2.00000
     32      -3.3364      2.00000
     33       4.7368      0.00000
     34       4.7684      0.00000
     35       4.8447      0.00000
     36       4.8537      0.00000
     37       5.3606      0.00000
     38       5.4222      0.00000
     39       5.4726      0.00000
     40       5.6134      0.00000

 k-point     8 :       0.2000    0.2000    0.2000
  band No.  band energies     occupation 
      1     -23.6352      2.00000
      2     -23.4991      2.00000
      3     -23.4986      2.00000
      4     -23.4986      2.00000
      5     -22.5403      2.00000
      6     -22.5403      2.00000
      7     -22.5375      2.00000
      8     -22.5062      2.00000
      9      -8.4951      2.00000
     10      -8.4124      2.00000
     11      -8.4124      2.00000
     12      -8.3166      2.00000
     13      -7.6832      2.00000
     14      -7.6832      2.00000
     15      -7.4811      2.00000
     16      -7.1648      2.00000
     17      -7.0481      2.00000
     18      -7.0481      2.00000
     19      -6.9185      2.00000
     20      -6.8934      2.00000
     21      -6.8934      2.00000
     22      -6.8160      2.00000
     23      -6.5579      2.00000
     24      -6.5579      2.00000
     25      -3.7008      2.00000
     26      -3.6856      2.00000
     27      -3.6856      2.00000
     28      -3.3503      2.00000
     29      -3.3503      2.00000
     30      -3.3430      2.00000
     31      -3.2354      2.00000
     32      -3.2354      2.00000
     33       4.3427      0.00000
     34       4.7755      0.00000
     35       4.7757      0.00000
     36       5.0635      0.00000
     37       5.0644      0.00000
     38       5.1249      0.00000
     39       5.4873      0.00000
     40       5.6279      0.00000

 k-point     9 :       0.4000    0.2000    0.2000
  band No.  band energies     occupation 
      1     -23.5940      2.00000
      2     -23.5420      2.00000
      3     -23.4983      2.00000
      4     -23.4981      2.00000
      5     -22.5393      2.00000
      6     -22.5383      2.00000
      7     -22.5295      2.00000
      8     -22.5170      2.00000
      9      -8.4925      2.00000
     10      -8.4428      2.00000
     11      -8.4046      2.00000
     12      -8.3723      2.00000
     13      -7.6504      2.00000
     14      -7.6133      2.00000
     15      -7.4468      2.00000
     16      -7.2843      2.00000
     17      -7.0683      2.00000
     18      -7.0387      2.00000
     19      -6.8836      2.00000
     20      -6.8563      2.00000
     21      -6.8233      2.00000
     22      -6.7702      2.00000
     23      -6.6576      2.00000
     24      -6.6282      2.00000
     25      -3.5981      2.00000
     26      -3.5908      2.00000
     27      -3.5477      2.00000
     28      -3.4083      2.00000
     29      -3.4037      2.00000
     30      -3.3702      2.00000
     31      -3.3091      2.00000
     32      -3.2677      2.00000
     33       4.7213      0.00000
     34       4.7458      0.00000
     35       4.8885      0.00000
     36       5.0347      0.00000
     37       5.0919      0.00000
     38       5.3045      0.00000
     39       5.4728      0.00000
     40       5.5754      0.00000

 k-point    10 :       0.4000    0.4000    0.2000
  band No.  band energies     occupation 
      1     -23.5644      2.00000
      2     -23.5279      2.00000
      3     -23.5277      2.00000
      4     -23.5110      2.00000
      5     -22.5363      2.00000
      6     -22.5334      2.00000
      7     -22.5320      2.00000
      8     -22.5244      2.00000
      9      -8.4675      2.00000
     10      -8.4207      2.00000
     11      -8.3970      2.00000
     12      -8.3807      2.00000
     13      -7.6925      2.00000
     14      -7.6511      2.00000
     15      -7.5813      2.00000
     16      -7.4593      2.00000
     17      -6.9757      2.00000
     18      -6.9012      2.00000
     19      -6.8593      2.00000
     20      -6.7860      2.00000
     21      -6.7467      2.00000
     22      -6.7356      2.00000
     23      -6.7253      2.00000
     24      -6.6373      2.00000
     25      -3.5246      2.00000
     26      -3.5055      2.00000
     27      -3.4958      2.00000
     28      -3.4270      2.00000
     29      -3.4016      2.00000
     30      -3.3947      2.00000
     31      -3.3774      2.00000
     32      -3.3587      2.00000
     33       4.7262      0.00000
     34       4.7417      0.00000
     35       4.8761      0.00000
     36       4.8903      0.00000
     37       5.3741      0.00000
     38       5.4799      0.00000
     39       5.5198      0.00000
     40       5.7076      0.00000

 k-point    11 :       0.4000    0.4000    0.4000
  band No.  band energies     occupation 
      1     -23.5471      2.00000
      2     -23.5268      2.00000
      3     -23.5266      2.00000
      4     -23.5266      2.00000
      5     -22.5342      2.00000
      6     -22.5342      2.00000
      7     -22.5331      2.00000
      8     -22.5294      2.00000
      9      -8.4115      2.00000
     10      -8.3530      2.00000
     11      -8.3530      2.00000
     12      -8.3438      2.00000
     13      -7.8075      2.00000
     14      -7.8075      2.00000
     15      -7.7650      2.00000
     16      -7.6762      2.00000
     17      -6.7764      2.00000
     18      -6.7623      2.00000
     19      -6.7623      2.00000
     20      -6.7270      2.00000
     21      -6.7248      2.00000
     22      -6.7248      2.00000
     23      -6.6726      2.00000
     24      -6.6726      2.00000
     25      -3.4789      2.00000
     26      -3.4789      2.00000
     27      -3.4784      2.00000
     28      -3.4329      2.00000
     29      -3.4329      2.00000
     30      -3.4248      2.00000
     31      -3.4136      2.00000
     32      -3.4136      2.00000
     33       4.7517      0.00000
     34       4.7518      0.00000
     35       4.8434      0.00000
     36       4.8467      0.00000
     37       5.5613      0.00000
     38       5.6098      0.00000
     39       5.6463      0.00000
     40       5.7552      0.00000


--------------------------------------------------------------------------------------------------------


 soft charge-density along one line, spin component           1
         0         1         2         3         4         5         6         7         8         9
 total charge-density along one line

 pseudopotential strength for first ion, spin component:           1
 12.702  21.374  -0.000  -0.000  -0.000  -0.000  -0.000  -0.000
 21.374  35.967  -0.000  -0.000  -0.000  -0.000  -0.000  -0.000
 -0.000  -0.000  -3.165  -0.001  -0.001  -5.674  -0.002  -0.002
 -0.000  -0.000  -0.001  -3.165  -0.001  -0.002  -5.674  -0.002
 -0.000  -0.000  -0.001  -0.001  -3.165  -0.002  -0.002  -5.674
 -0.000  -0.000  -5.674  -0.002  -0.002 -10.147  -0.003  -0.003
 -0.000  -0.000  -0.002  -5.674  -0.002  -0.003 -10.147  -0.003
 -0.000  -0.000  -0.002  -0.002  -5.674  -0.003  -0.003 -10.147
 total augmentation occupancy for first ion, spin component:           1
 10.462  -4.162  -0.000  -0.000   0.000   0.000   0.000   0.000
 -4.162   1.792   0.000   0.000   0.000   0.000   0.000   0.000
  0.000   0.000   7.513   4.028   4.028  -2.725  -1.762  -1.762
  0.000   0.000   4.028   7.513   4.028  -1.762  -2.725  -1.762
 -0.000   0.000   4.028   4.028   7.513  -1.762  -1.762  -2.725
 -0.000   0.000  -2.725  -1.762  -1.762   1.032   0.765   0.765
  0.000   0.000  -1.762  -2.725  -1.762   0.765   1.032   0.765
  0.000   0.000  -1.762  -1.762  -2.725   0.765   0.765   1.032


------------------------ aborting loop EDIFF was not reached (unconverged)  ----------------------------


 -----------------------------------------------------------------------------
|                                                                             |
|           W    W    AA    RRRRR   N    N  II  N    N   GGGG   !!!           |
|           W    W   A  A   R    R  NN   N  II  NN   N  G    G  !!!           |
|           W    W  A    A  R    R  N N  N  II  N N  N  G       !!!           |
|           W WW W  AAAAAA  RRRRR   N  N N  II  N  N N  G  GGG   !            |
|           WW  WW  A    A  R   R   N   NN  II  N   NN  G    G                |
|           W    W  A    A  R    R  N    N  II  N    N   GGGG   !!!           |
|                                                                             |
|     The electronic self-consistency was not achieved in the given           |
|     number of steps (NELM). The forces and other quantities evaluated       |
|     might not be reliable so examine the results carefully. If you find     |
|     spurious results, we suggest increasing NELM, if you were close to      |
|     convergence or switching to a different ALGO or adjusting the           |
|     density mixing parameters otherwise.                                    |
|                                                                             |
 -----------------------------------------------------------------------------

    FORLOC:  cpu time      0.0037: real time      0.0037
    FORNL :  cpu time      0.0374: real time      0.0375
    FORCOR:  cpu time      0.0153: real time      0.0154
    OFIELD:  cpu time      0.0004: real time      0.0004

  Hirshfeld charges:
            ion         q(e)     
   ------------------------------
      1     C        0.26132267
      2     C        0.26132251
      3     C        0.26132131
      4     C        0.26132281
      5     O       -0.13066069
      6     O       -0.13066061
      7     O       -0.13066116
      8     O       -0.13066176
      9     O       -0.13066062
     10     O       -0.13066129
     11     O       -0.13066126
     12     O       -0.13066192

  Atomic reference data used in the T-S method for vdW correction:
            C6at              R0at           ALPHAat      REFSTATE
            (au)              (au)            (au)                
   ---------------------------------------------------------------
   C          46.600          3.590         12.000         0
   O          15.600          3.194          5.400         0

  Tkatchenko/Scheffler method for vdW energy calculation
  ---------------------------------------------------------------------------------------------

  Parameters of vdW forcefield:
            C6ts              R0ts           ALPHAts        RELVOL
            (au)              (au)            (au)                
   ---------------------------------------------------------------
   C          54.123          3.681         12.932          1.07769789
   C          54.123          3.681         12.932          1.07769785
   C          54.123          3.681         12.932          1.07769796
   C          54.123          3.681         12.932          1.07769783
   O          18.825          3.295          5.932          1.09851531
   O          18.825          3.295          5.932          1.09851224
   O          18.825          3.295          5.932          1.09851348
   O          18.825          3.295          5.932          1.09851452
   O          18.825          3.295          5.932          1.09851342
   O          18.825          3.295          5.932          1.09851441
   O          18.825          3.295          5.932          1.09851346
   O          18.825          3.295          5.932          1.09851460

  vdW correction parametrized for the method pbe       

  IVDW =   2
  VDW_RADIUS =    50.000 A
  VDW_IDAMPF =  0
  VDW_S6 =     1.000
  VDW_SR =     0.940
  VDW_D =    20.000
  LVDW_ONECELL = F F F
  LVDW_SAMETYPE T T
  LVDW_EWALD = F

  Number of pair interactions contributing to vdW energy:  229736
  Edisp (eV):   -0.87635
    FORVDW:  cpu time      5.3099: real time      5.3127

 VOLUME and BASIS-vectors are now :
 -----------------------------------------------------------------------------
  energy-cutoff  :     1000.00
  volume of cell :      177.88
      direct lattice vectors                 reciprocal lattice vectors
     5.624000000  0.000000000  0.000000000     0.177809388  0.000000000  0.000000000
     0.000000000  5.624000000  0.000000000     0.000000000  0.177809388  0.000000000
     0.000000000  0.000000000  5.624000000     0.000000000  0.000000000  0.177809388

  length of vectors
     5.624000000  5.624000000  5.624000000     0.177809388  0.177809388  0.177809388


 FORCES acting on ions:
    Electron-Ion                     Ewald-Force                    Non-Local-Force
 -----------------------------------------------------------------------------------------------
   -.152E-04 -.574E-05 0.238E-04   -.396E-04 -.449E-04 -.460E-04   -.268E-20 -.122E-19 -.149E-19
   0.752E-05 0.318E-04 0.361E-04   -.655E-05 -.202E-04 0.511E-05   -.563E-19 -.891E-20 0.243E-21
   0.152E-04 0.449E-04 0.281E-04   -.152E-04 0.645E-05 -.691E-05   -.180E-19 0.121E-19 -.313E-19
   0.259E-04 0.104E-04 0.126E-04   0.118E-04 -.979E-05 -.197E-04   0.122E-19 -.514E-19 -.141E-19
   -.107E+03 -.107E+03 -.107E+03   0.141E+03 0.141E+03 0.141E+03   -.351E+02 -.351E+02 -.351E+02
   0.107E+03 0.107E+03 0.107E+03   -.141E+03 -.141E+03 -.141E+03   0.351E+02 0.351E+02 0.351E+02
   0.107E+03 0.107E+03 -.107E+03   -.141E+03 -.141E+03 0.141E+03   0.351E+02 0.351E+02 -.351E+02
   -.107E+03 -.107E+03 0.107E+03   0.141E+03 0.141E+03 -.141E+03   -.351E+02 -.351E+02 0.351E+02
   0.107E+03 -.107E+03 0.107E+03   -.141E+03 0.141E+03 -.141E+03   0.351E+02 -.351E+02 0.351E+02
   -.107E+03 0.107E+03 -.107E+03   0.141E+03 -.141E+03 0.141E+03   -.351E+02 0.351E+02 -.351E+02
   -.107E+03 0.107E+03 0.107E+03   0.141E+03 -.141E+03 -.141E+03   -.351E+02 0.351E+02 0.351E+02
   0.107E+03 -.107E+03 -.107E+03   -.141E+03 0.141E+03 0.141E+03   0.351E+02 -.351E+02 -.351E+02
 -----------------------------------------------------------------------------------------------
   0.348E-03 0.537E-03 0.723E-03   0.284E-13 0.853E-13 -.568E-13   0.711E-14 0.000E+00 -.711E-14


 POSITION                                       TOTAL-FORCE (eV/Angst)
 -----------------------------------------------------------------------------------
      0.33737      0.33737      0.33737         0.000000      0.000000     -0.000000
      3.14937      0.33737      3.14937         0.000000      0.000000     -0.000000
      0.33737      3.14937      3.14937         0.000000      0.000000     -0.000000
      3.14937      3.14937      0.33737         0.000000      0.000000     -0.000000
      1.01211      1.01211      1.01211        -0.128123     -0.128123     -0.128123
      5.28663      5.28663      5.28663         0.128123      0.128123      0.128123
      2.47463      5.28663      3.82411         0.128123      0.128123     -0.128123
      3.82411      1.01211      2.47463        -0.128123     -0.128123      0.128123
      5.28663      3.82411      2.47463         0.128123     -0.128123      0.128123
      1.01211      2.47463      3.82411        -0.128123      0.128123     -0.128123
      3.82411      2.47463      5.28663        -0.128123      0.128123      0.128123
      2.47463      3.82411      1.01211         0.128123     -0.128123     -0.128123
 -----------------------------------------------------------------------------------
    total drift:                                0.000348      0.000537      0.000723


--------------------------------------------------------------------------------------------------------



  FREE ENERGIE OF THE ION-ELECTRON SYSTEM (eV)
  ---------------------------------------------------
  free  energy   TOTEN  =       -93.84447077 eV

  energy  without entropy=      -93.84447077  energy(sigma->0) =      -93.84447077



--------------------------------------------------------------------------------------------------------


    POTLOK:  cpu time      0.0241: real time      0.0241


--------------------------------------------------------------------------------------------------------


 stress matrix after NEB project (eV)
     -0.65237      0.00000      0.00000
      0.00000     -0.65237      0.00000
      0.00000      0.00000     -0.65237
  FORCES: max atom, RMS     0.221916    0.181194
  FORCE total and by dimension    0.627673    0.128123
  Stress total and by dimension    1.129943    0.652373
     LOOP+:  cpu time     36.4549: real time     38.0247
    4ORBIT:  cpu time      0.0000: real time      0.0000

 total amount of memory used by VASP MPI-rank0    33028. kBytes
=======================================================================

   base      :      30000. kBytes
   nonl-proj :        326. kBytes
   fftplans  :        620. kBytes
   grid      :        960. kBytes
   one-center:          3. kBytes
   wavefun   :       1119. kBytes

  
  
 General timing and accounting informations for this job:
 ========================================================
  
                  Total CPU time used (sec):       55.253
                            User time (sec):       51.521
                          System time (sec):        3.732
                         Elapsed time (sec):       61.057
  
                   Maximum memory used (kb):      188656.
                   Average memory used (kb):          N/A
  
                          Minor page faults:       267785
                          Major page faults:          240
                 Voluntary context switches:         9407
