 vasp.6.4.1 05Apr23 (build Jun  6 2023 14:46:38) gamma-only                      
 executed on        HPECrayEX_GCC date 2024.08.22  00:50:38
 running  512 mpi-ranks, with    1 threads/rank, on    4 nodes
 distrk:  each k-point on  512 cores,    1 groups
 distr:  one band on NCORE= 128 cores,    4 groups


--------------------------------------------------------------------------------------------------------


 INCAR:
   ALGO = Conjugate
   NPAR = 4
   ISMEAR = 0
   SIGMA = 0.01
   PREC = Accurate
   EDIFF = 1E-7
   ENCUT = 1000
   ISIF = 0
   GGA = RE
   LWAVE = .FALSE.
   SYMPREC = 1E-7
   LCHARG = .FALSE.
   LWAVE = .FALSE.
   LCHARG = .FALSE.

 POTCAR:    PAW_PBE C_h 06Feb2004                 
 POTCAR:    PAW_PBE H_h 06Feb2004                 
 POTCAR:    PAW_PBE O_h 06Feb2004                 
 POTCAR:    PAW_PBE C_h 06Feb2004                 
   VRHFIN =C: s2p2                                                                                  
   LEXCH  = PE                                                                                      
   EATOM  =   147.1560 eV,   10.8157 Ry                                                             
                                                                                                    
   TITEL  = PAW_PBE C_h 06Feb2004                                                                   
   LULTRA =        F    use ultrasoft PP ?                                                          
   IUNSCR =        1    unscreen: 0-lin 1-nonlin 2-no                                               
   RPACOR =    0.800    partial core radius                                                         
   POMASS =   12.011; ZVAL   =    4.000    mass and valenz                                          
   RCORE  =    1.100    outmost cutoff radius                                                       
   RWIGS  =    1.630; RWIGS  =    0.863    wigner-seitz radius (au A)                               
   ENMAX  =  700.000; ENMIN  =  500.000 eV                                                          
   ICORE  =        2    local potential                                                             
   LCOR   =        T    correct aug charges                                                         
   LPAW   =        T    paw PP                                                                      
   EAUG   =  946.768                                                                                
   DEXC   =    0.000                                                                                
   RMAX   =    1.128    core radius for proj-oper                                                   
   RAUG   =    1.300    factor for augmentation sphere                                              
   RDEP   =    1.162    radius for radial grids                                                     
   RDEPT  =    1.088    core radius for aug-charge                                                  
                                                                                                    
   Atomic configuration                                                                             
    4 entries                                                                                       
     n  l   j            E        occ.                                                              
     1  0  0.50      -273.3789   2.0000                                                             
     2  0  0.50       -13.7508   2.0000                                                             
     2  1  0.50        -5.2854   2.0000                                                             
     3  2  1.50        -5.4423   0.0000                                                             
   Description                                                                                      
     l       E           TYP  RCUT    TYP  RCUT                                                     
     0    -13.7508458     23  1.100                                                                 
     0     -8.2022199     23  1.100                                                                 
     1     -5.2854383     23  1.100                                                                 
     1      1.1560700     23  1.100                                                                 
     2     -5.4423304      7  1.100                                                                 
  local pseudopotential read in
  partial core-charges read in
  partial kinetic energy density read in
  atomic valenz-charges read in
  non local Contribution for L=           0  read in
    real space projection operators read in
  non local Contribution for L=           0  read in
    real space projection operators read in
  non local Contribution for L=           1  read in
    real space projection operators read in
  non local Contribution for L=           1  read in
    real space projection operators read in
    PAW grid and wavefunctions read in

   number of l-projection  operators is LMAX  =           4
   number of lm-projection operators is LMMAX =           8

 POTCAR:    PAW_PBE H_h 06Feb2004                 
   VRHFIN =H: ultrasoft test                                                                        
   LEXCH  = PE                                                                                      
   EATOM  =    12.4884 eV,    0.9179 Ry                                                             
                                                                                                    
   TITEL  = PAW_PBE H_h 06Feb2004                                                                   
   LULTRA =        F    use ultrasoft PP ?                                                          
   IUNSCR =        0    unscreen: 0-lin 1-nonlin 2-no                                               
   RPACOR =    0.000    partial core radius                                                         
   POMASS =    1.000; ZVAL   =    1.000    mass and valenz                                          
   RCORE  =    0.800    outmost cutoff radius                                                       
   RWIGS  =    0.700; RWIGS  =    0.370    wigner-seitz radius (au A)                               
   ENMAX  =  700.000; ENMIN  =  350.000 eV                                                          
   RCLOC  =    0.701    cutoff for local pot                                                        
   LCOR   =        T    correct aug charges                                                         
   LPAW   =        T    paw PP                                                                      
   EAUG   = 1000.000                                                                                
   RMAX   =    0.819    core radius for proj-oper                                                   
   RAUG   =    1.000    factor for augmentation sphere                                              
   RDEP   =    0.817    radius for radial grids                                                     
   RDEPT  =    0.817    core radius for aug-charge                                                  
                                                                                                    
   Atomic configuration                                                                             
    2 entries                                                                                       
     n  l   j            E        occ.                                                              
     1  0  0.50        -6.4927   1.0000                                                             
     2  1  0.50        -3.4015   0.0000                                                             
   Description                                                                                      
     l       E           TYP  RCUT    TYP  RCUT                                                     
     0     -6.4927493     23  0.800                                                                 
     0      6.8029130     23  0.800                                                                 
     1     -6.8029130     23  0.800                                                                 
  local pseudopotential read in
  atomic valenz-charges read in
  non local Contribution for L=           0  read in
    real space projection operators read in
  non local Contribution for L=           0  read in
    real space projection operators read in
  non local Contribution for L=           1  read in
    real space projection operators read in
    PAW grid and wavefunctions read in

   number of l-projection  operators is LMAX  =           3
   number of lm-projection operators is LMMAX =           5

 POTCAR:    PAW_PBE O_h 06Feb2004                 
   VRHFIN =O: s2p4                                                                                  
   LEXCH  = PE                                                                                      
   EATOM  =   432.3788 eV,   31.7789 Ry                                                             
                                                                                                    
   TITEL  = PAW_PBE O_h 06Feb2004                                                                   
   LULTRA =        F    use ultrasoft PP ?                                                          
   IUNSCR =        1    unscreen: 0-lin 1-nonlin 2-no                                               
   RPACOR =    0.800    partial core radius                                                         
   POMASS =   16.000; ZVAL   =    6.000    mass and valenz                                          
   RCORE  =    1.100    outmost cutoff radius                                                       
   RWIGS  =    1.400; RWIGS  =    0.741    wigner-seitz radius (au A)                               
   ENMAX  =  700.000; ENMIN  =  500.000 eV                                                          
   ICORE  =        2    local potential                                                             
   LCOR   =        T    correct aug charges                                                         
   LPAW   =        T    paw PP                                                                      
   EAUG   =  888.804                                                                                
   DEXC   =    0.000                                                                                
   RMAX   =    1.128    core radius for proj-oper                                                   
   RAUG   =    1.300    factor for augmentation sphere                                              
   RDEP   =    1.125    radius for radial grids                                                     
   RDEPT  =    1.088    core radius for aug-charge                                                  
                                                                                                    
   Atomic configuration                                                                             
    4 entries                                                                                       
     n  l   j            E        occ.                                                              
     1  0  0.50      -514.6923   2.0000                                                             
     2  0  0.50       -23.9615   2.0000                                                             
     2  1  0.50        -9.0305   4.0000                                                             
     3  2  1.50        -9.5241   0.0000                                                             
   Description                                                                                      
     l       E           TYP  RCUT    TYP  RCUT                                                     
     0    -23.9615319     23  1.100                                                                 
     0    -25.3221145     23  1.100                                                                 
     1     -9.0304911     23  1.100                                                                 
     1     -5.4802209     23  1.100                                                                 
     2     -9.5240782      7  1.100                                                                 
  local pseudopotential read in
  partial core-charges read in
  partial kinetic energy density read in
  atomic valenz-charges read in
  non local Contribution for L=           0  read in
    real space projection operators read in
  non local Contribution for L=           0  read in
    real space projection operators read in
  non local Contribution for L=           1  read in
    real space projection operators read in
  non local Contribution for L=           1  read in
    real space projection operators read in
    PAW grid and wavefunctions read in

   number of l-projection  operators is LMAX  =           4
   number of lm-projection operators is LMMAX =           8

 -----------------------------------------------------------------------------
|                                                                             |
|               ----> ADVICE to this user running VASP <----                  |
|                                                                             |
|     You enforced a specific xc type in the INCAR file but a different       |
|     type was found in the POTCAR file.                                      |
|     I HOPE YOU KNOW WHAT YOU ARE DOING!                                     |
|                                                                             |
 -----------------------------------------------------------------------------

  PAW_PBE C_h 06Feb2004                 :
 energy of atom  1       EATOM= -147.1560
 kinetic energy error for atom=    0.0031 (will be added to EATOM!!)
  PAW_PBE H_h 06Feb2004                 :
 energy of atom  2       EATOM=  -12.4884
 kinetic energy error for atom=    0.0006 (will be added to EATOM!!)
  PAW_PBE O_h 06Feb2004                 :
 energy of atom  3       EATOM= -432.3788
 kinetic energy error for atom=    0.0171 (will be added to EATOM!!)


 POSCAR:  C  H  O
  positions in cartesian coordinates
  No initial velocities read in
 exchange correlation table for  LEXCH =       40
   RHO(1)=    0.500       N(1)  =     2000
   RHO(2)=  100.500       N(2)  =     4000

 VTST: version 4.1, (05/19/21)

 CHAIN: initializing optimizer
 
 OPT: Using VASP Dynamics algorithm
 CHAIN: Read ICHAIN            0

 POSCAR:  C  H  O
  positions in cartesian coordinates
  No initial velocities read in



--------------------------------------------------------------------------------------------------------


 ion  position               nearest neighbor table
   1  0.518  0.480  0.473-   5 1.21   7 1.33   2 1.54
   2  0.482  0.520  0.527-   6 1.21   8 1.33   1 1.54
   3  0.464  0.411  0.504-   7 0.99
   4  0.536  0.589  0.496-   8 0.98
   5  0.561  0.505  0.437-   1 1.21
   6  0.439  0.495  0.563-   2 1.21
   7  0.498  0.416  0.469-   3 0.99   1 1.33
   8  0.502  0.584  0.531-   4 0.98   2 1.33

  LATTYP: Found a simple cubic cell.
 ALAT       =    20.0000000000
  
  Lattice vectors:
  
 A1 = (  20.0000000000,   0.0000000000,   0.0000000000)
 A2 = (   0.0000000000,  20.0000000000,   0.0000000000)
 A3 = (   0.0000000000,   0.0000000000,  20.0000000000)


Analysis of symmetry for initial positions (statically):
=====================================================================
 Subroutine PRICEL returns:
 Original cell was already a primitive cell.
 

 Routine SETGRP: Setting up the symmetry group for a 
 simple cubic supercell.


 Subroutine GETGRP returns: Found  1 space group operations
 (whereof  1 operations were pure point group operations)
 out of a pool of 48 trial point group operations.


The static configuration has the point symmetry C_1 .


Analysis of symmetry for dynamics (positions and initial velocities):
=====================================================================
 Subroutine PRICEL returns:
 Original cell was already a primitive cell.
 

 Routine SETGRP: Setting up the symmetry group for a 
 simple cubic supercell.


 Subroutine GETGRP returns: Found  1 space group operations
 (whereof  1 operations were pure point group operations)
 out of a pool of 48 trial point group operations.


The dynamic configuration has the point symmetry C_1 .


 Subroutine INISYM returns: Found  1 space group operations
 (whereof  1 operations are pure point group operations),
 and found     1 'primitive' translations


----------------------------------------------------------------------------------------

                                     Primitive cell                                     

  volume of cell :    8000.0000

  direct lattice vectors                    reciprocal lattice vectors
    20.000000000  0.000000000  0.000000000     0.050000000  0.000000000  0.000000000
     0.000000000 20.000000000  0.000000000     0.000000000  0.050000000  0.000000000
     0.000000000  0.000000000 20.000000000     0.000000000  0.000000000  0.050000000

  length of vectors
    20.000000000 20.000000000 20.000000000     0.050000000  0.050000000  0.050000000

  position of ions in fractional coordinates (direct lattice)
     0.518293500  0.479784500  0.472655750
     0.481704000  0.520187000  0.527336750
     0.463708000  0.410705500  0.503854750
     0.536252500  0.589294500  0.496108750
     0.560598500  0.504984500  0.437449750
     0.439401500  0.495016000  0.562550250
     0.498234500  0.416295000  0.469172750
     0.501723000  0.583682500  0.530771250

  ion indices of the primitive-cell ions
   primitive index   ion index
                 1           1
                 2           2
                 3           3
                 4           4
                 5           5
                 6           6
                 7           7
                 8           8

----------------------------------------------------------------------------------------



 KPOINTS: auto                                    

Automatic generation of k-mesh.
 Grid dimensions read from file:
 generate k-points for:    1    1    1

 Generating k-lattice:

  Cartesian coordinates                     Fractional coordinates (reciprocal lattice)
     0.050000000  0.000000000  0.000000000     1.000000000  0.000000000  0.000000000
     0.000000000  0.050000000  0.000000000     0.000000000  1.000000000  0.000000000
     0.000000000  0.000000000  0.050000000     0.000000000  0.000000000  1.000000000

  Length of vectors
     0.050000000  0.050000000  0.050000000

  Shift w.r.t. Gamma in fractional coordinates (k-lattice)
     0.000000000  0.000000000  0.000000000

 
 Subroutine IBZKPT returns following result:
 ===========================================
 
 Found      1 irreducible k-points:
 
 Following reciprocal coordinates:
            Coordinates               Weight
  0.000000  0.000000  0.000000      1.000000
 
 Following cartesian coordinates:
            Coordinates               Weight
  0.000000  0.000000  0.000000      1.000000
 


--------------------------------------------------------------------------------------------------------




 Dimension of arrays:
   k-points           NKPTS =      1   k-points in BZ     NKDIM =      1   number of bands    NBANDS=     24
   number of dos      NEDOS =    301   number of ions     NIONS =      8
   non local maximal  LDIM  =      4   non local SUM 2l+1 LMDIM =      8
   total plane-waves  NPLWV = ******
   max r-space proj   IRMAX =      1   max aug-charges    IRDMAX=   8641
   dimension x,y,z NGX =   210 NGY =  210 NGZ =  210
   dimension x,y,z NGXF=   420 NGYF=  420 NGZF=  420
   support grid    NGXF=   420 NGYF=  420 NGZF=  420
   ions per type =               2   2   4
   NGX,Y,Z   is equivalent  to a cutoff of  17.46, 17.46, 17.46 a.u.
   NGXF,Y,Z  is equivalent  to a cutoff of  34.91, 34.91, 34.91 a.u.

 SYSTEM =  unknown system                          
 POSCAR =   C  H  O                                

 Startparameter for this run:
   NWRITE =      2    write-flag & timer
   PREC   = accura    normal or accurate (medium, high low for compatibility)
   ISTART =      0    job   : 0-new  1-cont  2-samecut
   ICHARG =      2    charge: 1-file 2-atom 10-const
   ISPIN  =      1    spin polarized calculation?
   LNONCOLLINEAR =      F non collinear calculations
   LSORBIT =      F    spin-orbit coupling
   INIWAV =      1    electr: 0-lowe 1-rand  2-diag
   LASPH  =      F    aspherical Exc in radial PAW
 Electronic Relaxation 1
   ENCUT  = 1000.0 eV  73.50 Ry    8.57 a.u.  51.57 51.57 51.57*2*pi/ulx,y,z
   ENINI  = 1000.0     initial cutoff
   ENAUG  = 1000.0 eV  augmentation charge cutoff
   NELM   =     60;   NELMIN=  2; NELMDL= -5     # of ELM steps 
   EDIFF  = 0.1E-06   stopping-criterion for ELM
   LREAL  =      F    real-space projection
   NLSPLINE    = F    spline interpolate recip. space projectors
   LCOMPAT=      F    compatible to vasp.4.4
   GGA_COMPAT  = T    GGA compatible to vasp.4.4-vasp.4.6
   LMAXPAW     = -100 max onsite density
   LMAXMIX     =    2 max onsite mixed and CHGCAR
   VOSKOWN=      0    Vosko Wilk Nusair interpolation
   ROPT   =    0.00000   0.00000   0.00000
 Ionic relaxation
   EDIFFG = 0.1E-05   stopping-criterion for IOM
   NSW    =      0    number of steps for IOM
   NBLOCK =      1;   KBLOCK =      1    inner block; outer block 
   IBRION =     -1    ionic relax: 0-MD 1-quasi-New 2-CG
   NFREE  =      0    steps in history (QN), initial steepest desc. (CG)
   ISIF   =      0    stress and relaxation
   IWAVPR =     10    prediction:  0-non 1-charg 2-wave 3-comb
   ISYM   =      2    0-nonsym 1-usesym 2-fastsym
   LCORR  =      T    Harris-Foulkes like correction to forces

   POTIM  = 0.5000    time-step for ionic-motion
   TEIN   =    0.0    initial temperature
   TEBEG  =    0.0;   TEEND  =   0.0 temperature during run
   SMASS  =  -3.00    Nose mass-parameter (am)
   estimated Nose-frequenzy (Omega)   =  0.10E-29 period in steps = 0.13E+47 mass=  -0.914E-26a.u.
   SCALEE = 1.0000    scale energy and forces
   NPACO  =    256;   APACO  = 10.0  distance and # of slots for P.C.
   PSTRESS=    0.0 pullay stress

  Mass of Ions in am
   POMASS =  12.01  1.00 16.00
  Ionic Valenz
   ZVAL   =   4.00  1.00  6.00
  Atomic Wigner-Seitz radii
   RWIGS  =  -1.00 -1.00 -1.00
  virtual crystal weights 
   VCA    =   1.00  1.00  1.00
   NELECT =      34.0000    total number of electrons
   NUPDOWN=      -1.0000    fix difference up-down

 DOS related values:
   EMIN   =  10.00;   EMAX   =-10.00  energy-range for DOS
   EFERMI =   0.00;   METHOD = LEGACY      
   ISMEAR =     0;   SIGMA  =   0.01  broadening in eV -4-tet -1-fermi 0-gaus

 Electronic relaxation 2 (details)
   IALGO  =     58    algorithm
   LDIAG  =      T    sub-space diagonalisation (order eigenvalues)
   LSUBROT=      F    optimize rotation matrix (better conditioning)
   TURBO    =      0    0=normal 1=particle mesh
   IRESTART =      0    0=no restart 2=restart with 2 vectors
   NREBOOT  =      0    no. of reboots
   NMIN     =      0    reboot dimension
   EREF     =   0.00    reference energy to select bands
   IMIX   =      4    mixing-type and parameters
     AMIX     =   0.40;   BMIX     =  1.00
     AMIX_MAG =   1.60;   BMIX_MAG =  1.00
     AMIN     =   0.10
     WC   =   100.;   INIMIX=   1;  MIXPRE=   1;  MAXMIX= -45

 Intra band minimization:
   WEIMIN = 0.0000     energy-eigenvalue tresh-hold
   EBREAK =  0.10E-08  absolut break condition
   DEPER  =   0.30     relativ break condition  

   TIME   =   0.40     timestep for ELM

  volume/ion in A,a.u.               =    1000.00      6748.33
  Fermi-wavevector in a.u.,A,eV,Ry     =   0.265178  0.501114  0.956755  0.070319
  Thomas-Fermi vector in A             =   1.098052

 Write flags
   LWAVE        =      F    write WAVECAR
   LDOWNSAMPLE  =      F    k-point downsampling of WAVECAR
   LCHARG       =      F    write CHGCAR
   LVTOT        =      F    write LOCPOT, total local potential
   LVHAR        =      F    write LOCPOT, Hartree potential only
   LELF         =      F    write electronic localiz. function (ELF)
   LORBIT       =      0    0 simple, 1 ext, 2 COOP (PROOUT), +10 PAW based schemes


 Dipole corrections
   LMONO  =      F    monopole corrections only (constant potential shift)
   LDIPOL =      F    correct potential (dipole corrections)
   IDIPOL =      0    1-x, 2-y, 3-z, 4-all directions 
   EPSILON=  1.0000000 bulk dielectric constant

 Exchange correlation treatment:
   GGA     =    RE    GGA type
   LEXCH   =    40    internal setting for exchange type
   LIBXC   =     F    Libxc                    
   VOSKOWN =     0    Vosko Wilk Nusair interpolation
   LHFCALC =     F    Hartree Fock is set to
   LHFONE  =     F    Hartree Fock one center treatment
   AEXX    =    0.0000 exact exchange contribution

 Linear response parameters
   LEPSILON=     F    determine dielectric tensor
   LRPA    =     F    only Hartree local field effects (RPA)
   LNABLA  =     F    use nabla operator in PAW spheres
   LVEL    =     F    velocity operator in full k-point grid
   CSHIFT  =0.1000    complex shift for real part using Kramers Kronig
   OMEGAMAX=  -1.0    maximum frequency
   DEG_THRESHOLD= 0.2000000E-02 threshold for treating states as degnerate
   RTIME   =   -0.100 relaxation time in fs
  (WPLASMAI=    0.000 imaginary part of plasma frequency in eV, 0.658/RTIME)
   DFIELD  = 0.0000000 0.0000000 0.0000000 field for delta impulse in time

  Optional k-point grid parameters
   LKPOINTS_OPT  =     F    use optional k-point grid
   KPOINTS_OPT_MODE=     1    mode for optional k-point grid

 Orbital magnetization related:
   ORBITALMAG=     F  switch on orbital magnetization
   LCHIMAG   =     F  perturbation theory with respect to B field
   DQ        =  0.001000  dq finite difference perturbation B field
   LLRAUG    =     F  two centre corrections for induced B field
   LBONE     =     F  B-component reconstruction in AE one-centre
   LVGVCALC  =     T  calculate vGv susceptibility
   LVGVAPPL  =     F  apply vGv susceptibility instead of pGv for G=0

 Random number generation:
   RANDOM_GENERATOR = DEFAULT
   PCG_SEED         = not used


--------------------------------------------------------------------------------------------------------


 Static calculation
 charge density and potential will be updated during run
 non-spin polarized calculation
 Conjugate gradient for all bands (Freysoldt, et al. PRB 79, 241103 (2009))
 preconditioned conjugated gradient                                        
 perform sub-space diagonalisation
    before iterative eigenvector-optimisation
 modified Broyden-mixing scheme, WC =      100.0
 initial mixing is a Kerker type mixing with AMIX =  0.4000 and BMIX =      1.0000
 Hartree-type preconditioning will be used
 using additional bands            7
 reciprocal scheme for non local part
 use partial core corrections
 no Harris-corrections to forces 
 use gradient corrections 
 use of overlap-Matrix (Vanderbilt PP)
 Gauss-broadening in eV      SIGMA  =   0.01


--------------------------------------------------------------------------------------------------------


  energy-cutoff  :     1000.00
  volume of cell :     8000.00
      direct lattice vectors                 reciprocal lattice vectors
    20.000000000  0.000000000  0.000000000     0.050000000  0.000000000  0.000000000
     0.000000000 20.000000000  0.000000000     0.000000000  0.050000000  0.000000000
     0.000000000  0.000000000 20.000000000     0.000000000  0.000000000  0.050000000

  length of vectors
    20.000000000 20.000000000 20.000000000     0.050000000  0.050000000  0.050000000



 k-points in units of 2pi/SCALE and weight: auto                                    
   0.00000000  0.00000000  0.00000000       1.000

 k-points in reciprocal lattice and weights: auto                                    
   0.00000000  0.00000000  0.00000000       1.000

 position of ions in fractional coordinates (direct lattice) 
   0.51829350  0.47978450  0.47265575
   0.48170400  0.52018700  0.52733675
   0.46370800  0.41070550  0.50385475
   0.53625250  0.58929450  0.49610875
   0.56059850  0.50498450  0.43744975
   0.43940150  0.49501600  0.56255025
   0.49823450  0.41629500  0.46917275
   0.50172300  0.58368250  0.53077125

 position of ions in cartesian coordinates  (Angst):
  10.36587000  9.59569000  9.45311500
   9.63408000 10.40374000 10.54673500
   9.27416000  8.21411000 10.07709500
  10.72505000 11.78589000  9.92217500
  11.21197000 10.09969000  8.74899500
   8.78803000  9.90032000 11.25100500
   9.96469000  8.32590000  9.38345500
  10.03446000 11.67365000 10.61542500



--------------------------------------------------------------------------------------------------------


 use parallel FFT for orbitals z direction half grid
 k-point   1 :   0.0000 0.0000 0.0000  plane waves:  287166

 maximum and minimum number of plane-waves per node :      2251     2230

 maximum number of plane-waves:    287166
 maximum index in each direction: 
   IXMAX=   51   IYMAX=   51   IZMAX=   51
   IXMIN=  -51   IYMIN=  -51   IZMIN=    0


 parallel 3D FFT for wavefunctions:
    minimum data exchange during FFTs selected (reduces bandwidth)
 parallel 3D FFT for charge:
    minimum data exchange during FFTs selected (reduces bandwidth)


 total amount of memory used by VASP MPI-rank0    54069. kBytes
=======================================================================

   base      :      30000. kBytes
   nonl-proj :        720. kBytes
   fftplans  :       7836. kBytes
   grid      :      14864. kBytes
   one-center:          1. kBytes
   wavefun   :        648. kBytes

     INWAV:  cpu time      0.0000: real time      0.0000
 Broyden mixing: mesh for mixing (old mesh)
   NGX =103   NGY =103   NGZ =103
  (NGX  =420   NGY  =420   NGZ  =420)
  gives a total of ****** points

 initial charge density was supplied:
 charge density of overlapping atoms calculated
 number of electron      34.0000000 magnetization 
 keeping initial charge density in first step


--------------------------------------------------------------------------------------------------------


 Maximum index for augmentation-charges            0 (set IRDMAX)


--------------------------------------------------------------------------------------------------------


 First call to EWALD:  gamma=   0.089
 Maximum number of real-space cells 3x 3x 3
 Maximum number of reciprocal cells 3x 3x 3

    FEWALD:  cpu time      0.0035: real time      0.0036


--------------------------------------- Ionic step        1  -------------------------------------------




--------------------------------------- Iteration      1(   1)  ---------------------------------------


    POTLOK:  cpu time      0.2334: real time      0.2346
    SETDIJ:  cpu time      0.0076: real time      0.0080
    TRIAL :  cpu time      0.2458: real time      0.2477
    CORREC:  cpu time      0.0014: real time      0.0016
    --------------------------------------------
      LOOP:  cpu time      0.4917: real time      0.4955

 eigenvalue-minimisations  :    64
 total energy-change (2. order) : 0.4084614E+03  (-0.9347499E+03)
 number of electron      34.0000000 magnetization 
 augmentation part       34.0000000 magnetization 

 Free energy of the ion-electron system (eV)
  ---------------------------------------------------
  alpha Z        PSCENC =         0.40154822
  Ewald energy   TEWEN  =      2257.36198512
  -Hartree energ DENC   =     -3871.20669808
  -exchange      EXHF   =         0.00000000
  -V(xc)+E(xc)   XCENC  =       121.81225273
  PAW double counting   =      1620.41975823    -1612.24369891
  entropy T*S    EENTRO =        -0.00000000
  eigenvalues    EBANDS =      -155.52032011
  atomic energy  EATOM  =      2047.43659229
  ---------------------------------------------------
  free energy    TOTEN  =       408.46141950 eV

  energy without entropy =      408.46141950  energy(sigma->0) =      408.46141950


--------------------------------------------------------------------------------------------------------




--------------------------------------- Iteration      1(   2)  ---------------------------------------


    TRIAL :  cpu time      0.1940: real time      0.1940
    CORREC:  cpu time      0.0001: real time      0.0001
    --------------------------------------------
      LOOP:  cpu time      0.2213: real time      0.2218

 eigenvalue-minimisations  :    64
 total energy-change (2. order) :-0.1687382E+03  (-0.1675471E+03)
 number of electron      34.0000000 magnetization 
 augmentation part       34.0000000 magnetization 

 Free energy of the ion-electron system (eV)
  ---------------------------------------------------
  alpha Z        PSCENC =         0.40154822
  Ewald energy   TEWEN  =      2257.36198512
  -Hartree energ DENC   =     -3871.20669808
  -exchange      EXHF   =         0.00000000
  -V(xc)+E(xc)   XCENC  =       121.81225273
  PAW double counting   =      1620.41975823    -1612.24369891
  entropy T*S    EENTRO =        -0.00000000
  eigenvalues    EBANDS =      -324.25856600
  atomic energy  EATOM  =      2047.43659229
  ---------------------------------------------------
  free energy    TOTEN  =       239.72317360 eV

  energy without entropy =      239.72317360  energy(sigma->0) =      239.72317360


--------------------------------------------------------------------------------------------------------




--------------------------------------- Iteration      1(   3)  ---------------------------------------


    TRIAL :  cpu time      0.2449: real time      0.2452
    CORREC:  cpu time      0.0001: real time      0.0001
    --------------------------------------------
      LOOP:  cpu time      0.2600: real time      0.2752

 eigenvalue-minimisations  :    88
 total energy-change (2. order) :-0.1794443E+03  (-0.1768172E+03)
 number of electron      34.0000000 magnetization 
 augmentation part       34.0000000 magnetization 

 Free energy of the ion-electron system (eV)
  ---------------------------------------------------
  alpha Z        PSCENC =         0.40154822
  Ewald energy   TEWEN  =      2257.36198512
  -Hartree energ DENC   =     -3871.20669808
  -exchange      EXHF   =         0.00000000
  -V(xc)+E(xc)   XCENC  =       121.81225273
  PAW double counting   =      1620.41975823    -1612.24369891
  entropy T*S    EENTRO =        -0.00000000
  eigenvalues    EBANDS =      -503.70286479
  atomic energy  EATOM  =      2047.43659229
  ---------------------------------------------------
  free energy    TOTEN  =        60.27887481 eV

  energy without entropy =       60.27887481  energy(sigma->0) =       60.27887481


--------------------------------------------------------------------------------------------------------




--------------------------------------- Iteration      1(   4)  ---------------------------------------


    TRIAL :  cpu time      0.2069: real time      0.2070
    CORREC:  cpu time      0.0001: real time      0.0001
    --------------------------------------------
      LOOP:  cpu time      0.2368: real time      0.2371

 eigenvalue-minimisations  :    72
 total energy-change (2. order) :-0.9131071E+02  (-0.8921390E+02)
 number of electron      34.0000000 magnetization 
 augmentation part       34.0000000 magnetization 

 Free energy of the ion-electron system (eV)
  ---------------------------------------------------
  alpha Z        PSCENC =         0.40154822
  Ewald energy   TEWEN  =      2257.36198512
  -Hartree energ DENC   =     -3871.20669808
  -exchange      EXHF   =         0.00000000
  -V(xc)+E(xc)   XCENC  =       121.81225273
  PAW double counting   =      1620.41975823    -1612.24369891
  entropy T*S    EENTRO =        -0.00000000
  eigenvalues    EBANDS =      -595.01357828
  atomic energy  EATOM  =      2047.43659229
  ---------------------------------------------------
  free energy    TOTEN  =       -31.03183868 eV

  energy without entropy =      -31.03183868  energy(sigma->0) =      -31.03183868


--------------------------------------------------------------------------------------------------------




--------------------------------------- Iteration      1(   5)  ---------------------------------------


    TRIAL :  cpu time      0.1585: real time      0.1585
    CORREC:  cpu time      0.0001: real time      0.0001
    CHARGE:  cpu time      0.0604: real time      0.0620
    --------------------------------------------
      LOOP:  cpu time      0.2348: real time      0.2540

 eigenvalue-minimisations  :    48
 total energy-change (2. order) :-0.2271796E+02  (-0.2271073E+02)
 number of electron      34.0000000 magnetization 
 augmentation part        0.2226683 magnetization 

 Free energy of the ion-electron system (eV)
  ---------------------------------------------------
  alpha Z        PSCENC =         0.40154822
  Ewald energy   TEWEN  =      2257.36198512
  -Hartree energ DENC   =     -3871.20669808
  -exchange      EXHF   =         0.00000000
  -V(xc)+E(xc)   XCENC  =       121.81225273
  PAW double counting   =      1620.41975823    -1612.24369891
  entropy T*S    EENTRO =        -0.00000000
  eigenvalues    EBANDS =      -617.73154284
  atomic energy  EATOM  =      2047.43659229
  ---------------------------------------------------
  free energy    TOTEN  =       -53.74980324 eV

  energy without entropy =      -53.74980324  energy(sigma->0) =      -53.74980324


--------------------------------------------------------------------------------------------------------




--------------------------------------- Iteration      1(   6)  ---------------------------------------


    POTLOK:  cpu time      0.2243: real time      0.2244
    SETDIJ:  cpu time      0.0016: real time      0.0016
    TRIAL :  cpu time      0.1036: real time      0.1049
    CORREC:  cpu time      0.2922: real time      0.2928
    CHARGE:  cpu time      0.0320: real time      0.0321
    --------------------------------------------
      LOOP:  cpu time      0.6697: real time      0.6857

 eigenvalue-minimisations  :     0
 total energy-change (2. order) : 0.6847110E+01  (-0.3399689E+01)
 number of electron      34.0000000 magnetization 
 augmentation part        0.1788361 magnetization 

 Free energy of the ion-electron system (eV)
  ---------------------------------------------------
  alpha Z        PSCENC =         0.40154822
  Ewald energy   TEWEN  =      2257.36198512
  -Hartree energ DENC   =     -4046.66069892
  -exchange      EXHF   =         0.00000000
  -V(xc)+E(xc)   XCENC  =       131.04482483
  PAW double counting   =     21717.53432877   -21711.09414456
  entropy T*S    EENTRO =        -0.00000000
  eigenvalues    EBANDS =      -442.92712924
  atomic energy  EATOM  =      2047.43659229
  ---------------------------------------------------
  free energy    TOTEN  =       -46.90269350 eV

  energy without entropy =      -46.90269350  energy(sigma->0) =      -46.90269350


--------------------------------------------------------------------------------------------------------




--------------------------------------- Iteration      1(   7)  ---------------------------------------


    POTLOK:  cpu time      0.2215: real time      0.2215
    SETDIJ:  cpu time      0.0015: real time      0.0015
    TRIAL :  cpu time      0.0843: real time      0.0843
    CORREC:  cpu time      0.2833: real time      0.2835
    CHARGE:  cpu time      0.0324: real time      0.0325
    --------------------------------------------
      LOOP:  cpu time      0.6542: real time      0.6548

 eigenvalue-minimisations  :     0
 total energy-change (2. order) :-0.3438042E+01  (-0.7518039E+00)
 number of electron      34.0000000 magnetization 
 augmentation part        0.1455868 magnetization 

 Free energy of the ion-electron system (eV)
  ---------------------------------------------------
  alpha Z        PSCENC =         0.40154822
  Ewald energy   TEWEN  =      2257.36198512
  -Hartree energ DENC   =     -3953.67467275
  -exchange      EXHF   =         0.00000000
  -V(xc)+E(xc)   XCENC  =       126.41768929
  PAW double counting   =     24044.69710468   -24037.52105594
  entropy T*S    EENTRO =        -0.00000000
  eigenvalues    EBANDS =      -535.45992679
  atomic energy  EATOM  =      2047.43659229
  ---------------------------------------------------
  free energy    TOTEN  =       -50.34073588 eV

  energy without entropy =      -50.34073588  energy(sigma->0) =      -50.34073588


--------------------------------------------------------------------------------------------------------




--------------------------------------- Iteration      1(   8)  ---------------------------------------


    POTLOK:  cpu time      0.2261: real time      0.2262
    SETDIJ:  cpu time      0.0018: real time      0.0018
    TRIAL :  cpu time      0.0860: real time      0.0860
    CORREC:  cpu time      0.2837: real time      0.2840
    CHARGE:  cpu time      0.0321: real time      0.0321
    --------------------------------------------
      LOOP:  cpu time      0.6443: real time      0.6610

 eigenvalue-minimisations  :     0
 total energy-change (2. order) :-0.7529120E+00  (-0.2717364E+00)
 number of electron      34.0000000 magnetization 
 augmentation part        0.1527278 magnetization 

 Free energy of the ion-electron system (eV)
  ---------------------------------------------------
  alpha Z        PSCENC =         0.40154822
  Ewald energy   TEWEN  =      2257.36198512
  -Hartree energ DENC   =     -3963.92352923
  -exchange      EXHF   =         0.00000000
  -V(xc)+E(xc)   XCENC  =       126.53667474
  PAW double counting   =     22996.00389872   -22988.67384517
  entropy T*S    EENTRO =        -0.00000000
  eigenvalues    EBANDS =      -526.23697254
  atomic energy  EATOM  =      2047.43659229
  ---------------------------------------------------
  free energy    TOTEN  =       -51.09364785 eV

  energy without entropy =      -51.09364785  energy(sigma->0) =      -51.09364785


--------------------------------------------------------------------------------------------------------




--------------------------------------- Iteration      1(   9)  ---------------------------------------


    POTLOK:  cpu time      0.2208: real time      0.2208
    SETDIJ:  cpu time      0.0015: real time      0.0015
    TRIAL :  cpu time      0.0841: real time      0.0842
    CORREC:  cpu time      0.2829: real time      0.2833
    CHARGE:  cpu time      0.0320: real time      0.0322
    --------------------------------------------
      LOOP:  cpu time      0.6344: real time      0.6517

 eigenvalue-minimisations  :     0
 total energy-change (2. order) :-0.2720288E+00  (-0.1142531E+00)
 number of electron      34.0000000 magnetization 
 augmentation part        0.1590660 magnetization 

 Free energy of the ion-electron system (eV)
  ---------------------------------------------------
  alpha Z        PSCENC =         0.40154822
  Ewald energy   TEWEN  =      2257.36198512
  -Hartree energ DENC   =     -3973.68293774
  -exchange      EXHF   =         0.00000000
  -V(xc)+E(xc)   XCENC  =       126.86838701
  PAW double counting   =     22359.13359466   -22351.86183552
  entropy T*S    EENTRO =        -0.00000000
  eigenvalues    EBANDS =      -517.02301073
  atomic energy  EATOM  =      2047.43659229
  ---------------------------------------------------
  free energy    TOTEN  =       -51.36567667 eV

  energy without entropy =      -51.36567667  energy(sigma->0) =      -51.36567667


--------------------------------------------------------------------------------------------------------




--------------------------------------- Iteration      1(  10)  ---------------------------------------


    POTLOK:  cpu time      0.2196: real time      0.2197
    SETDIJ:  cpu time      0.0016: real time      0.0016
    TRIAL :  cpu time      0.0838: real time      0.0839
    CORREC:  cpu time      0.2828: real time      0.2830
    CHARGE:  cpu time      0.0320: real time      0.0322
    --------------------------------------------
      LOOP:  cpu time      0.6488: real time      0.6494

 eigenvalue-minimisations  :     0
 total energy-change (2. order) :-0.1140812E+00  (-0.4607643E-01)
 number of electron      34.0000000 magnetization 
 augmentation part        0.1593005 magnetization 

 Free energy of the ion-electron system (eV)
  ---------------------------------------------------
  alpha Z        PSCENC =         0.40154822
  Ewald energy   TEWEN  =      2257.36198512
  -Hartree energ DENC   =     -3969.89616404
  -exchange      EXHF   =         0.00000000
  -V(xc)+E(xc)   XCENC  =       126.74610115
  PAW double counting   =     21939.97639595   -21932.72877427
  entropy T*S    EENTRO =        -0.00000000
  eigenvalues    EBANDS =      -520.77744225
  atomic energy  EATOM  =      2047.43659229
  ---------------------------------------------------
  free energy    TOTEN  =       -51.47975782 eV

  energy without entropy =      -51.47975782  energy(sigma->0) =      -51.47975782


--------------------------------------------------------------------------------------------------------




--------------------------------------- Iteration      1(  11)  ---------------------------------------


    POTLOK:  cpu time      0.2197: real time      0.2201
    SETDIJ:  cpu time      0.0017: real time      0.0017
    TRIAL :  cpu time      0.0840: real time      0.0841
    CORREC:  cpu time      0.2822: real time      0.2824
    CHARGE:  cpu time      0.0320: real time      0.0322
    --------------------------------------------
      LOOP:  cpu time      0.6348: real time      0.6509

 eigenvalue-minimisations  :     0
 total energy-change (2. order) :-0.4591096E-01  (-0.2698597E-01)
 number of electron      34.0000000 magnetization 
 augmentation part        0.1600937 magnetization 

 Free energy of the ion-electron system (eV)
  ---------------------------------------------------
  alpha Z        PSCENC =         0.40154822
  Ewald energy   TEWEN  =      2257.36198512
  -Hartree energ DENC   =     -3967.48964972
  -exchange      EXHF   =         0.00000000
  -V(xc)+E(xc)   XCENC  =       126.66813952
  PAW double counting   =     21641.38707771   -21634.13970335
  entropy T*S    EENTRO =        -0.00000000
  eigenvalues    EBANDS =      -523.15165858
  atomic energy  EATOM  =      2047.43659229
  ---------------------------------------------------
  free energy    TOTEN  =       -51.52566878 eV

  energy without entropy =      -51.52566878  energy(sigma->0) =      -51.52566878


--------------------------------------------------------------------------------------------------------




--------------------------------------- Iteration      1(  12)  ---------------------------------------


    POTLOK:  cpu time      0.2221: real time      0.2222
    SETDIJ:  cpu time      0.0027: real time      0.0027
    TRIAL :  cpu time      0.0866: real time      0.0866
    CORREC:  cpu time      0.2877: real time      0.2883
    CHARGE:  cpu time      0.0320: real time      0.0320
    --------------------------------------------
      LOOP:  cpu time      0.6447: real time      0.6616

 eigenvalue-minimisations  :     0
 total energy-change (2. order) :-0.2668030E-01  (-0.1390172E-01)
 number of electron      34.0000000 magnetization 
 augmentation part        0.1597831 magnetization 

 Free energy of the ion-electron system (eV)
  ---------------------------------------------------
  alpha Z        PSCENC =         0.40154822
  Ewald energy   TEWEN  =      2257.36198512
  -Hartree energ DENC   =     -3968.14507143
  -exchange      EXHF   =         0.00000000
  -V(xc)+E(xc)   XCENC  =       126.68035804
  PAW double counting   =     21631.85758642   -21624.61385574
  entropy T*S    EENTRO =        -0.00000000
  eigenvalues    EBANDS =      -522.53149201
  atomic energy  EATOM  =      2047.43659229
  ---------------------------------------------------
  free energy    TOTEN  =       -51.55234908 eV

  energy without entropy =      -51.55234908  energy(sigma->0) =      -51.55234908


--------------------------------------------------------------------------------------------------------




--------------------------------------- Iteration      1(  13)  ---------------------------------------


    POTLOK:  cpu time      0.2191: real time      0.2191
    SETDIJ:  cpu time      0.0025: real time      0.0025
    TRIAL :  cpu time      0.0837: real time      0.0837
    CORREC:  cpu time      0.2841: real time      0.2842
    CHARGE:  cpu time      0.0321: real time      0.0322
    --------------------------------------------
      LOOP:  cpu time      0.6375: real time      0.6515

 eigenvalue-minimisations  :     0
 total energy-change (2. order) :-0.1365786E-01  (-0.5359783E-02)
 number of electron      34.0000000 magnetization 
 augmentation part        0.1590250 magnetization 

 Free energy of the ion-electron system (eV)
  ---------------------------------------------------
  alpha Z        PSCENC =         0.40154822
  Ewald energy   TEWEN  =      2257.36198512
  -Hartree energ DENC   =     -3967.73216963
  -exchange      EXHF   =         0.00000000
  -V(xc)+E(xc)   XCENC  =       126.65157864
  PAW double counting   =     21785.51740761   -21778.26623539
  entropy T*S    EENTRO =        -0.00000000
  eigenvalues    EBANDS =      -522.93671382
  atomic energy  EATOM  =      2047.43659229
  ---------------------------------------------------
  free energy    TOTEN  =       -51.56600694 eV

  energy without entropy =      -51.56600694  energy(sigma->0) =      -51.56600694


--------------------------------------------------------------------------------------------------------




--------------------------------------- Iteration      1(  14)  ---------------------------------------


    POTLOK:  cpu time      0.2192: real time      0.2197
    SETDIJ:  cpu time      0.0017: real time      0.0017
    TRIAL :  cpu time      0.0838: real time      0.0838
    CORREC:  cpu time      0.2816: real time      0.2817
    CHARGE:  cpu time      0.0317: real time      0.0318
    --------------------------------------------
      LOOP:  cpu time      0.6313: real time      0.6478

 eigenvalue-minimisations  :     0
 total energy-change (2. order) :-0.5282050E-02  (-0.2541396E-02)
 number of electron      34.0000000 magnetization 
 augmentation part        0.1590228 magnetization 

 Free energy of the ion-electron system (eV)
  ---------------------------------------------------
  alpha Z        PSCENC =         0.40154822
  Ewald energy   TEWEN  =      2257.36198512
  -Hartree energ DENC   =     -3967.49688737
  -exchange      EXHF   =         0.00000000
  -V(xc)+E(xc)   XCENC  =       126.64384276
  PAW double counting   =     21831.06581230   -21823.80964299
  entropy T*S    EENTRO =        -0.00000000
  eigenvalues    EBANDS =      -523.17453932
  atomic energy  EATOM  =      2047.43659229
  ---------------------------------------------------
  free energy    TOTEN  =       -51.57128899 eV

  energy without entropy =      -51.57128899  energy(sigma->0) =      -51.57128899


--------------------------------------------------------------------------------------------------------




--------------------------------------- Iteration      1(  15)  ---------------------------------------


    POTLOK:  cpu time      0.2206: real time      0.2206
    SETDIJ:  cpu time      0.0018: real time      0.0018
    TRIAL :  cpu time      0.0837: real time      0.0837
    CORREC:  cpu time      0.2806: real time      0.2812
    CHARGE:  cpu time      0.0320: real time      0.0321
    --------------------------------------------
      LOOP:  cpu time      0.6484: real time      0.6493

 eigenvalue-minimisations  :     0
 total energy-change (2. order) :-0.2522265E-02  (-0.1416989E-02)
 number of electron      34.0000000 magnetization 
 augmentation part        0.1592685 magnetization 

 Free energy of the ion-electron system (eV)
  ---------------------------------------------------
  alpha Z        PSCENC =         0.40154822
  Ewald energy   TEWEN  =      2257.36198512
  -Hartree energ DENC   =     -3967.84193702
  -exchange      EXHF   =         0.00000000
  -V(xc)+E(xc)   XCENC  =       126.65735932
  PAW double counting   =     21812.52484276   -21805.26977957
  entropy T*S    EENTRO =        -0.00000000
  eigenvalues    EBANDS =      -522.84442238
  atomic energy  EATOM  =      2047.43659229
  ---------------------------------------------------
  free energy    TOTEN  =       -51.57381125 eV

  energy without entropy =      -51.57381125  energy(sigma->0) =      -51.57381125


--------------------------------------------------------------------------------------------------------




--------------------------------------- Iteration      1(  16)  ---------------------------------------


    POTLOK:  cpu time      0.2202: real time      0.2203
    SETDIJ:  cpu time      0.0016: real time      0.0016
    TRIAL :  cpu time      0.0841: real time      0.0841
    CORREC:  cpu time      0.2788: real time      0.2790
    CHARGE:  cpu time      0.0318: real time      0.0319
    --------------------------------------------
      LOOP:  cpu time      0.6303: real time      0.6480

 eigenvalue-minimisations  :     0
 total energy-change (2. order) :-0.1438763E-02  (-0.7449386E-03)
 number of electron      34.0000000 magnetization 
 augmentation part        0.1594265 magnetization 

 Free energy of the ion-electron system (eV)
  ---------------------------------------------------
  alpha Z        PSCENC =         0.40154822
  Ewald energy   TEWEN  =      2257.36198512
  -Hartree energ DENC   =     -3967.91763763
  -exchange      EXHF   =         0.00000000
  -V(xc)+E(xc)   XCENC  =       126.65792237
  PAW double counting   =     21782.63821080   -21775.38424129
  entropy T*S    EENTRO =        -0.00000000
  eigenvalues    EBANDS =      -522.76962990
  atomic energy  EATOM  =      2047.43659229
  ---------------------------------------------------
  free energy    TOTEN  =       -51.57525002 eV

  energy without entropy =      -51.57525002  energy(sigma->0) =      -51.57525002


--------------------------------------------------------------------------------------------------------




--------------------------------------- Iteration      1(  17)  ---------------------------------------


    POTLOK:  cpu time      0.2187: real time      0.2192
    SETDIJ:  cpu time      0.0015: real time      0.0015
    TRIAL :  cpu time      0.0842: real time      0.0842
    CORREC:  cpu time      0.2774: real time      0.2775
    CHARGE:  cpu time      0.0316: real time      0.0317
    --------------------------------------------
      LOOP:  cpu time      0.6263: real time      0.6434

 eigenvalue-minimisations  :     0
 total energy-change (2. order) :-0.7484425E-03  (-0.3094896E-03)
 number of electron      34.0000000 magnetization 
 augmentation part        0.1594388 magnetization 

 Free energy of the ion-electron system (eV)
  ---------------------------------------------------
  alpha Z        PSCENC =         0.40154822
  Ewald energy   TEWEN  =      2257.36198512
  -Hartree energ DENC   =     -3968.00017003
  -exchange      EXHF   =         0.00000000
  -V(xc)+E(xc)   XCENC  =       126.66241270
  PAW double counting   =     21750.98154996   -21743.72881729
  entropy T*S    EENTRO =        -0.00000000
  eigenvalues    EBANDS =      -522.69109944
  atomic energy  EATOM  =      2047.43659229
  ---------------------------------------------------
  free energy    TOTEN  =       -51.57599846 eV

  energy without entropy =      -51.57599846  energy(sigma->0) =      -51.57599846


--------------------------------------------------------------------------------------------------------




--------------------------------------- Iteration      1(  18)  ---------------------------------------


    POTLOK:  cpu time      0.2148: real time      0.2148
    SETDIJ:  cpu time      0.0016: real time      0.0016
    TRIAL :  cpu time      0.0841: real time      0.0841
    CORREC:  cpu time      0.2750: real time      0.2758
    CHARGE:  cpu time      0.0321: real time      0.0322
    --------------------------------------------
      LOOP:  cpu time      0.6374: real time      0.6385

 eigenvalue-minimisations  :     0
 total energy-change (2. order) :-0.3093800E-03  (-0.1233113E-03)
 number of electron      34.0000000 magnetization 
 augmentation part        0.1593686 magnetization 

 Free energy of the ion-electron system (eV)
  ---------------------------------------------------
  alpha Z        PSCENC =         0.40154822
  Ewald energy   TEWEN  =      2257.36198512
  -Hartree energ DENC   =     -3968.10016435
  -exchange      EXHF   =         0.00000000
  -V(xc)+E(xc)   XCENC  =       126.66798613
  PAW double counting   =     21736.10650079   -21728.85438870
  entropy T*S    EENTRO =        -0.00000000
  eigenvalues    EBANDS =      -522.59636735
  atomic energy  EATOM  =      2047.43659229
  ---------------------------------------------------
  free energy    TOTEN  =       -51.57630784 eV

  energy without entropy =      -51.57630784  energy(sigma->0) =      -51.57630784


--------------------------------------------------------------------------------------------------------




--------------------------------------- Iteration      1(  19)  ---------------------------------------


    POTLOK:  cpu time      0.2140: real time      0.2140
    SETDIJ:  cpu time      0.0016: real time      0.0016
    TRIAL :  cpu time      0.0847: real time      0.0847
    CORREC:  cpu time      0.2741: real time      0.2743
    CHARGE:  cpu time      0.0320: real time      0.0322
    --------------------------------------------
      LOOP:  cpu time      0.6200: real time      0.6366

 eigenvalue-minimisations  :     0
 total energy-change (2. order) :-0.1234449E-03  (-0.5838290E-04)
 number of electron      34.0000000 magnetization 
 augmentation part        0.1593471 magnetization 

 Free energy of the ion-electron system (eV)
  ---------------------------------------------------
  alpha Z        PSCENC =         0.40154822
  Ewald energy   TEWEN  =      2257.36198512
  -Hartree energ DENC   =     -3968.06316720
  -exchange      EXHF   =         0.00000000
  -V(xc)+E(xc)   XCENC  =       126.66639187
  PAW double counting   =     21739.62235708   -21732.36971241
  entropy T*S    EENTRO =        -0.00000000
  eigenvalues    EBANDS =      -522.63242625
  atomic energy  EATOM  =      2047.43659229
  ---------------------------------------------------
  free energy    TOTEN  =       -51.57643129 eV

  energy without entropy =      -51.57643129  energy(sigma->0) =      -51.57643129


--------------------------------------------------------------------------------------------------------




--------------------------------------- Iteration      1(  20)  ---------------------------------------


    POTLOK:  cpu time      0.2153: real time      0.2156
    SETDIJ:  cpu time      0.0017: real time      0.0017
    TRIAL :  cpu time      0.0845: real time      0.0845
    CORREC:  cpu time      0.2736: real time      0.2740
    CHARGE:  cpu time      0.0317: real time      0.0319
    --------------------------------------------
      LOOP:  cpu time      0.6207: real time      0.6397

 eigenvalue-minimisations  :     0
 total energy-change (2. order) :-0.5845330E-04  (-0.2748571E-04)
 number of electron      34.0000000 magnetization 
 augmentation part        0.1593439 magnetization 

 Free energy of the ion-electron system (eV)
  ---------------------------------------------------
  alpha Z        PSCENC =         0.40154822
  Ewald energy   TEWEN  =      2257.36198512
  -Hartree energ DENC   =     -3968.06544676
  -exchange      EXHF   =         0.00000000
  -V(xc)+E(xc)   XCENC  =       126.66636329
  PAW double counting   =     21747.64319265   -21740.39039730
  entropy T*S    EENTRO =        -0.00000000
  eigenvalues    EBANDS =      -522.63032726
  atomic energy  EATOM  =      2047.43659229
  ---------------------------------------------------
  free energy    TOTEN  =       -51.57648974 eV

  energy without entropy =      -51.57648974  energy(sigma->0) =      -51.57648974


--------------------------------------------------------------------------------------------------------




--------------------------------------- Iteration      1(  21)  ---------------------------------------


    POTLOK:  cpu time      0.2124: real time      0.2124
    SETDIJ:  cpu time      0.0015: real time      0.0015
    TRIAL :  cpu time      0.0846: real time      0.0846
    CORREC:  cpu time      0.2742: real time      0.2747
    CHARGE:  cpu time      0.0322: real time      0.0324
    --------------------------------------------
      LOOP:  cpu time      0.6344: real time      0.6354

 eigenvalue-minimisations  :     0
 total energy-change (2. order) :-0.2748350E-04  (-0.1103363E-04)
 number of electron      34.0000000 magnetization 
 augmentation part        0.1593362 magnetization 

 Free energy of the ion-electron system (eV)
  ---------------------------------------------------
  alpha Z        PSCENC =         0.40154822
  Ewald energy   TEWEN  =      2257.36198512
  -Hartree energ DENC   =     -3968.06792883
  -exchange      EXHF   =         0.00000000
  -V(xc)+E(xc)   XCENC  =       126.66653262
  PAW double counting   =     21753.21310299   -21745.96033848
  entropy T*S    EENTRO =        -0.00000000
  eigenvalues    EBANDS =      -522.62801116
  atomic energy  EATOM  =      2047.43659229
  ---------------------------------------------------
  free energy    TOTEN  =       -51.57651722 eV

  energy without entropy =      -51.57651722  energy(sigma->0) =      -51.57651722


--------------------------------------------------------------------------------------------------------




--------------------------------------- Iteration      1(  22)  ---------------------------------------


    POTLOK:  cpu time      0.2102: real time      0.2103
    SETDIJ:  cpu time      0.0025: real time      0.0025
    TRIAL :  cpu time      0.0839: real time      0.0839
    CORREC:  cpu time      0.2730: real time      0.2731
    CHARGE:  cpu time      0.0323: real time      0.0323
    --------------------------------------------
      LOOP:  cpu time      0.6172: real time      0.6315

 eigenvalue-minimisations  :     0
 total energy-change (2. order) :-0.1104550E-04  (-0.4590744E-05)
 number of electron      34.0000000 magnetization 
 augmentation part        0.1593465 magnetization 

 Free energy of the ion-electron system (eV)
  ---------------------------------------------------
  alpha Z        PSCENC =         0.40154822
  Ewald energy   TEWEN  =      2257.36198512
  -Hartree energ DENC   =     -3968.04181599
  -exchange      EXHF   =         0.00000000
  -V(xc)+E(xc)   XCENC  =       126.66544327
  PAW double counting   =     21755.48859428   -21748.23574076
  entropy T*S    EENTRO =        -0.00000000
  eigenvalues    EBANDS =      -522.65313470
  atomic energy  EATOM  =      2047.43659229
  ---------------------------------------------------
  free energy    TOTEN  =       -51.57652827 eV

  energy without entropy =      -51.57652827  energy(sigma->0) =      -51.57652827


--------------------------------------------------------------------------------------------------------




--------------------------------------- Iteration      1(  23)  ---------------------------------------


    POTLOK:  cpu time      0.2101: real time      0.2102
    SETDIJ:  cpu time      0.0025: real time      0.0025
    TRIAL :  cpu time      0.0837: real time      0.0841
    CORREC:  cpu time      0.2751: real time      0.2752
    CHARGE:  cpu time      0.0324: real time      0.0325
    --------------------------------------------
      LOOP:  cpu time      0.6384: real time      0.6392

 eigenvalue-minimisations  :     0
 total energy-change (2. order) :-0.4608504E-05  (-0.2144677E-05)
 number of electron      34.0000000 magnetization 
 augmentation part        0.1593538 magnetization 

 Free energy of the ion-electron system (eV)
  ---------------------------------------------------
  alpha Z        PSCENC =         0.40154822
  Ewald energy   TEWEN  =      2257.36198512
  -Hartree energ DENC   =     -3968.03917257
  -exchange      EXHF   =         0.00000000
  -V(xc)+E(xc)   XCENC  =       126.66534869
  PAW double counting   =     21755.47192595   -21748.21913507
  entropy T*S    EENTRO =        -0.00000000
  eigenvalues    EBANDS =      -522.65562552
  atomic energy  EATOM  =      2047.43659229
  ---------------------------------------------------
  free energy    TOTEN  =       -51.57653288 eV

  energy without entropy =      -51.57653288  energy(sigma->0) =      -51.57653288


--------------------------------------------------------------------------------------------------------




--------------------------------------- Iteration      1(  24)  ---------------------------------------


    POTLOK:  cpu time      0.2114: real time      0.2114
    SETDIJ:  cpu time      0.0016: real time      0.0016
    TRIAL :  cpu time      0.0838: real time      0.0839
    CORREC:  cpu time      0.2733: real time      0.2734
    CHARGE:  cpu time      0.0322: real time      0.0324
    --------------------------------------------
      LOOP:  cpu time      0.6178: real time      0.6325

 eigenvalue-minimisations  :     0
 total energy-change (2. order) :-0.2160155E-05  (-0.1044085E-05)
 number of electron      34.0000000 magnetization 
 augmentation part        0.1593544 magnetization 

 Free energy of the ion-electron system (eV)
  ---------------------------------------------------
  alpha Z        PSCENC =         0.40154822
  Ewald energy   TEWEN  =      2257.36198512
  -Hartree energ DENC   =     -3968.03847318
  -exchange      EXHF   =         0.00000000
  -V(xc)+E(xc)   XCENC  =       126.66534404
  PAW double counting   =     21754.45003117   -21747.19728491
  entropy T*S    EENTRO =        -0.00000000
  eigenvalues    EBANDS =      -522.65627780
  atomic energy  EATOM  =      2047.43659229
  ---------------------------------------------------
  free energy    TOTEN  =       -51.57653504 eV

  energy without entropy =      -51.57653504  energy(sigma->0) =      -51.57653504


--------------------------------------------------------------------------------------------------------




--------------------------------------- Iteration      1(  25)  ---------------------------------------


    POTLOK:  cpu time      0.2129: real time      0.2133
    SETDIJ:  cpu time      0.0015: real time      0.0015
    TRIAL :  cpu time      0.0839: real time      0.0840
    CORREC:  cpu time      0.2731: real time      0.2733
    CHARGE:  cpu time      0.0327: real time      0.0328
    --------------------------------------------
      LOOP:  cpu time      0.6208: real time      0.6346

 eigenvalue-minimisations  :     0
 total energy-change (2. order) :-0.1054246E-05  (-0.5116923E-06)
 number of electron      34.0000000 magnetization 
 augmentation part        0.1593572 magnetization 

 Free energy of the ion-electron system (eV)
  ---------------------------------------------------
  alpha Z        PSCENC =         0.40154822
  Ewald energy   TEWEN  =      2257.36198512
  -Hartree energ DENC   =     -3968.03452126
  -exchange      EXHF   =         0.00000000
  -V(xc)+E(xc)   XCENC  =       126.66518602
  PAW double counting   =     21753.20676309   -21745.95401174
  entropy T*S    EENTRO =        -0.00000000
  eigenvalues    EBANDS =      -522.66007784
  atomic energy  EATOM  =      2047.43659229
  ---------------------------------------------------
  free energy    TOTEN  =       -51.57653609 eV

  energy without entropy =      -51.57653609  energy(sigma->0) =      -51.57653609


--------------------------------------------------------------------------------------------------------




--------------------------------------- Iteration      1(  26)  ---------------------------------------


    POTLOK:  cpu time      0.2109: real time      0.2109
    SETDIJ:  cpu time      0.0015: real time      0.0015
    TRIAL :  cpu time      0.0841: real time      0.0841
    CORREC:  cpu time      0.2737: real time      0.2744
    CHARGE:  cpu time      0.0322: real time      0.0323
    --------------------------------------------
      LOOP:  cpu time      0.6320: real time      0.6331

 eigenvalue-minimisations  :     0
 total energy-change (2. order) :-0.5138572E-06  (-0.2433870E-06)
 number of electron      34.0000000 magnetization 
 augmentation part        0.1593567 magnetization 

 Free energy of the ion-electron system (eV)
  ---------------------------------------------------
  alpha Z        PSCENC =         0.40154822
  Ewald energy   TEWEN  =      2257.36198512
  -Hartree energ DENC   =     -3968.03764516
  -exchange      EXHF   =         0.00000000
  -V(xc)+E(xc)   XCENC  =       126.66532036
  PAW double counting   =     21752.21302704   -21744.96030413
  entropy T*S    EENTRO =        -0.00000000
  eigenvalues    EBANDS =      -522.65706035
  atomic energy  EATOM  =      2047.43659229
  ---------------------------------------------------
  free energy    TOTEN  =       -51.57653660 eV

  energy without entropy =      -51.57653660  energy(sigma->0) =      -51.57653660


--------------------------------------------------------------------------------------------------------




--------------------------------------- Iteration      1(  27)  ---------------------------------------


    POTLOK:  cpu time      0.2111: real time      0.2112
    SETDIJ:  cpu time      0.0015: real time      0.0015
    TRIAL :  cpu time      0.0846: real time      0.0846
    CORREC:  cpu time      0.2726: real time      0.2728
    CHARGE:  cpu time      0.0319: real time      0.0320
    --------------------------------------------
      LOOP:  cpu time      0.6155: real time      0.6314

 eigenvalue-minimisations  :     0
 total energy-change (2. order) :-0.2422312E-06  (-0.1243111E-06)
 number of electron      34.0000000 magnetization 
 augmentation part        0.1593544 magnetization 

 Free energy of the ion-electron system (eV)
  ---------------------------------------------------
  alpha Z        PSCENC =         0.40154822
  Ewald energy   TEWEN  =      2257.36198512
  -Hartree energ DENC   =     -3968.03866437
  -exchange      EXHF   =         0.00000000
  -V(xc)+E(xc)   XCENC  =       126.66536126
  PAW double counting   =     21751.83248312   -21744.57976335
  entropy T*S    EENTRO =        -0.00000000
  eigenvalues    EBANDS =      -522.65607914
  atomic energy  EATOM  =      2047.43659229
  ---------------------------------------------------
  free energy    TOTEN  =       -51.57653685 eV

  energy without entropy =      -51.57653685  energy(sigma->0) =      -51.57653685


--------------------------------------------------------------------------------------------------------




--------------------------------------- Iteration      1(  28)  ---------------------------------------


    POTLOK:  cpu time      0.2099: real time      0.2104
    SETDIJ:  cpu time      0.0026: real time      0.0026
    TRIAL :  cpu time      0.0843: real time      0.0843
    CORREC:  cpu time      0.2739: real time      0.2740
    CHARGE:  cpu time      0.0316: real time      0.0316
    --------------------------------------------
      LOOP:  cpu time      0.6151: real time      0.6321

 eigenvalue-minimisations  :     0
 total energy-change (2. order) :-0.1192529E-06  (-0.6481147E-07)
 number of electron      34.0000000 magnetization 
 augmentation part        0.1593526 magnetization 

 Free energy of the ion-electron system (eV)
  ---------------------------------------------------
  alpha Z        PSCENC =         0.40154822
  Ewald energy   TEWEN  =      2257.36198512
  -Hartree energ DENC   =     -3968.03875588
  -exchange      EXHF   =         0.00000000
  -V(xc)+E(xc)   XCENC  =       126.66536628
  PAW double counting   =     21751.98542235   -21744.73269073
  entropy T*S    EENTRO =        -0.00000000
  eigenvalues    EBANDS =      -522.65600464
  atomic energy  EATOM  =      2047.43659229
  ---------------------------------------------------
  free energy    TOTEN  =       -51.57653697 eV

  energy without entropy =      -51.57653697  energy(sigma->0) =      -51.57653697


--------------------------------------------------------------------------------------------------------




--------------------------------------- Iteration      1(  29)  ---------------------------------------


    POTLOK:  cpu time      0.2106: real time      0.2106
    SETDIJ:  cpu time      0.0025: real time      0.0025
    TRIAL :  cpu time      0.0840: real time      0.0840
    CORREC:  cpu time      0.2751: real time      0.2755
    EDDIAG:  cpu time      0.0481: real time      0.0486
    CHARGE:  cpu time      0.0327: real time      0.0328
    --------------------------------------------
      LOOP:  cpu time      0.6834: real time      0.6847

 eigenvalue-minimisations  :     0
 total energy-change (2. order) :-0.5454785E-07  (-0.2675253E-07)
 number of electron      34.0000000 magnetization 
 augmentation part        0.1593511 magnetization 

 Free energy of the ion-electron system (eV)
  ---------------------------------------------------
  alpha Z        PSCENC =         0.40154822
  Ewald energy   TEWEN  =      2257.36198512
  -Hartree energ DENC   =     -3968.03991922
  -exchange      EXHF   =         0.00000000
  -V(xc)+E(xc)   XCENC  =       126.66541941
  PAW double counting   =     21752.45704151   -21745.20430275
  entropy T*S    EENTRO =        -0.00000000
  eigenvalues    EBANDS =      -522.65490161
  atomic energy  EATOM  =      2047.43659229
  ---------------------------------------------------
  free energy    TOTEN  =       -51.57653702 eV

  energy without entropy =      -51.57653702  energy(sigma->0) =      -51.57653702


--------------------------------------------------------------------------------------------------------


  average scaling for gradient   0.8468


 average (electrostatic) potential at core
  the test charge radii are     0.5770  0.4325  0.5955
  (the norm of the test charge is              1.0000)
       1 -90.5144       2 -90.5139       3 -49.2296       4 -49.2309       5-120.4488
       6-120.4488       7-121.8563       8-121.8554



 E-fermi :  -6.8660     XC(G=0):  -0.1825     alpha+bet : -0.0741

 Fermi energy:        -6.8659534359

 k-point     1 :       0.0000    0.0000    0.0000
  band No.  band energies     occupation 
      1     -29.1031      2.00000
      2     -28.3121      2.00000
      3     -26.9770      2.00000
      4     -26.4003      2.00000
      5     -17.4186      2.00000
      6     -15.8979      2.00000
      7     -15.7391      2.00000
      8     -12.5379      2.00000
      9     -12.1880      2.00000
     10     -11.5901      2.00000
     11     -11.4734      2.00000
     12     -11.0363      2.00000
     13      -9.6580      2.00000
     14      -8.8380      2.00000
     15      -8.6850      2.00000
     16      -8.5344      2.00000
     17      -6.9384      2.00000
     18      -3.3877      0.00000
     19      -0.9634      0.00000
     20      -0.2521      0.00000
     21       0.1028      0.00000
     22       0.1924      0.00000
     23       0.2421      0.00000
     24       0.3926      0.00000


--------------------------------------------------------------------------------------------------------


 soft charge-density along one line, spin component           1
         0         1         2         3         4         5         6         7         8         9
 total charge-density along one line

 pseudopotential strength for first ion, spin component:           1
 12.895  21.706  -0.011  -0.005   0.000  -0.019  -0.008   0.001
 21.706  36.533  -0.018  -0.008   0.001  -0.032  -0.014   0.001
 -0.011  -0.018  -3.172   0.001  -0.000  -5.691   0.001  -0.001
 -0.005  -0.008   0.001  -3.172  -0.001   0.001  -5.690  -0.001
  0.000   0.001  -0.000  -0.001  -3.172  -0.001  -0.001  -5.691
 -0.019  -0.032  -5.691   0.001  -0.001 -10.188   0.003  -0.002
 -0.008  -0.014   0.001  -5.690  -0.001   0.003 -10.186  -0.002
  0.001   0.001  -0.001  -0.001  -5.691  -0.002  -0.002 -10.188
 total augmentation occupancy for first ion, spin component:           1
  9.282  -3.591   0.047  -1.646   1.560  -0.002   0.762  -0.716
 -3.591   1.504   0.054   0.826  -0.755  -0.017  -0.368   0.339
  0.047   0.054   7.832  -0.460   2.097  -2.882   0.235  -0.936
 -1.646   0.826  -0.460   6.060  -2.765   0.234  -2.067   1.151
  1.560  -0.755   2.097  -2.765   6.663  -0.935   1.151  -2.358
 -0.002  -0.017  -2.882   0.234  -0.935   1.091  -0.113   0.409
  0.762  -0.368   0.235  -2.067   1.151  -0.113   0.736  -0.483
 -0.716   0.339  -0.936   1.151  -2.358   0.409  -0.483   0.870


------------------------ aborting loop because EDIFF is reached ----------------------------------------


    FORLOC:  cpu time      0.0130: real time      0.0130
    FORNL :  cpu time      0.0135: real time      0.0137
    FORCOR:  cpu time      0.1872: real time      0.1873
    OFIELD:  cpu time      0.0017: real time      0.0017

 VOLUME and BASIS-vectors are now :
 -----------------------------------------------------------------------------
  energy-cutoff  :     1000.00
  volume of cell :     8000.00
      direct lattice vectors                 reciprocal lattice vectors
    20.000000000  0.000000000  0.000000000     0.050000000  0.000000000  0.000000000
     0.000000000 20.000000000  0.000000000     0.000000000  0.050000000  0.000000000
     0.000000000  0.000000000 20.000000000     0.000000000  0.000000000  0.050000000

  length of vectors
    20.000000000 20.000000000 20.000000000     0.050000000  0.050000000  0.050000000


 FORCES acting on ions:
    Electron-Ion                     Ewald-Force                    Non-Local-Force
 -----------------------------------------------------------------------------------------------
   0.641E+01 0.276E+02 0.365E+01   -.588E+01 -.210E+02 -.165E+01   -.807E+00 -.684E+01 -.182E+01
   -.660E+01 -.274E+02 -.371E+01   0.607E+01 0.209E+02 0.172E+01   0.811E+00 0.684E+01 0.181E+01
   0.714E+02 0.603E+02 -.527E+02   -.771E+02 -.615E+02 0.583E+02   0.573E+01 0.119E+01 -.565E+01
   -.714E+02 -.604E+02 0.527E+02   0.771E+02 0.615E+02 -.583E+02   -.573E+01 -.120E+01 0.565E+01
   -.290E+03 -.101E+03 0.270E+03   0.329E+03 0.122E+03 -.302E+03   -.382E+02 -.210E+02 0.325E+02
   0.290E+03 0.101E+03 -.270E+03   -.329E+03 -.122E+03 0.302E+03   0.382E+02 0.209E+02 -.325E+02
   0.306E+02 0.351E+03 0.105E+03   -.155E+02 -.389E+03 -.136E+03   -.153E+02 0.379E+02 0.312E+02
   -.305E+02 -.352E+03 -.105E+03   0.153E+02 0.390E+03 0.136E+03   0.153E+02 -.379E+02 -.311E+02
 -----------------------------------------------------------------------------------------------
   -.502E-01 0.301E-01 -.119E-01   -.107E-13 0.568E-13 0.000E+00   0.501E-01 -.301E-01 0.119E-01


 POSITION                                       TOTAL-FORCE (eV/Angst)
 -----------------------------------------------------------------------------------
     10.36587      9.59569      9.45312        -0.100767     -0.054819      0.078119
      9.63408     10.40374     10.54674         0.107223      0.058566     -0.088297
      9.27416      8.21411     10.07710         0.009923      0.034469     -0.000795
     10.72505     11.78589      9.92217        -0.005529     -0.036294     -0.004570
     11.21197     10.09969      8.74899         0.297737      0.127477     -0.266486
      8.78803      9.90032     11.25101        -0.307186     -0.138491      0.274388
      9.96469      8.32590      9.38345        -0.040196     -0.284965     -0.061608
     10.03446     11.67365     10.61543         0.038795      0.294057      0.069248
 -----------------------------------------------------------------------------------
    total drift:                               -0.000103      0.000003     -0.000028


--------------------------------------------------------------------------------------------------------



  FREE ENERGIE OF THE ION-ELECTRON SYSTEM (eV)
  ---------------------------------------------------
  free  energy   TOTEN  =       -51.57653702 eV

  energy  without entropy=      -51.57653702  energy(sigma->0) =      -51.57653702



--------------------------------------------------------------------------------------------------------


    POTLOK:  cpu time      0.2214: real time      0.2217


--------------------------------------------------------------------------------------------------------


 stress matrix after NEB project (eV)
      0.00000      0.00000      0.00000
      0.00000      0.00000      0.00000
      0.00000      0.00000      0.00000
  FORCES: max atom, RMS     0.434548    0.271287
  FORCE total and by dimension    0.767314    0.307186
  Stress total and by dimension    0.000000    0.000000
     LOOP+:  cpu time     17.1829: real time     17.4949
    4ORBIT:  cpu time      0.0000: real time      0.0000

 total amount of memory used by VASP MPI-rank0    54069. kBytes
=======================================================================

   base      :      30000. kBytes
   nonl-proj :        720. kBytes
   fftplans  :       7836. kBytes
   grid      :      14864. kBytes
   one-center:          1. kBytes
   wavefun   :        648. kBytes

  
  
 General timing and accounting informations for this job:
 ========================================================
  
                  Total CPU time used (sec):       64.494
                            User time (sec):       62.588
                          System time (sec):        1.905
                         Elapsed time (sec):       83.406
  
                   Maximum memory used (kb):      229336.
                   Average memory used (kb):          N/A
  
                          Minor page faults:       132061
                          Major page faults:          306
                 Voluntary context switches:        12002
