 vasp.6.4.1 05Apr23 (build Jun  6 2023 14:46:38) gamma-only                      
 executed on        HPECrayEX_GCC date 2024.08.22  01:35:18
 running  512 mpi-ranks, with    1 threads/rank, on    4 nodes
 distrk:  each k-point on  256 cores,    2 groups
 distr:  one band on NCORE=  32 cores,    8 groups


--------------------------------------------------------------------------------------------------------


 INCAR:
   ALGO = Conjugate
   KPAR = 2
   NCORE = 32
   ISMEAR = 0
   SIGMA = 0.01
   PREC = Accurate
   EDIFF = 1E-7
   ENCUT = 1000
   ISIF = 0
   METAGGA = RSCAN
   LASPH = .TRUE.
   SYMPREC = 1E-7
   LWAVE = .FALSE.
   LCHARG = .FALSE.
   LWAVE = .FALSE.
   LCHARG = .FALSE.

 POTCAR:    PAW_PBE C_h 06Feb2004                 
 POTCAR:    PAW_PBE H_h 06Feb2004                 
 POTCAR:    PAW_PBE O_h 06Feb2004                 
 POTCAR:    PAW_PBE C_h 06Feb2004                 
   VRHFIN =C: s2p2                                                                                  
   LEXCH  = PE                                                                                      
   EATOM  =   147.1560 eV,   10.8157 Ry                                                             
                                                                                                    
   TITEL  = PAW_PBE C_h 06Feb2004                                                                   
   LULTRA =        F    use ultrasoft PP ?                                                          
   IUNSCR =        1    unscreen: 0-lin 1-nonlin 2-no                                               
   RPACOR =    0.800    partial core radius                                                         
   POMASS =   12.011; ZVAL   =    4.000    mass and valenz                                          
   RCORE  =    1.100    outmost cutoff radius                                                       
   RWIGS  =    1.630; RWIGS  =    0.863    wigner-seitz radius (au A)                               
   ENMAX  =  700.000; ENMIN  =  500.000 eV                                                          
   ICORE  =        2    local potential                                                             
   LCOR   =        T    correct aug charges                                                         
   LPAW   =        T    paw PP                                                                      
   EAUG   =  946.768                                                                                
   DEXC   =    0.000                                                                                
   RMAX   =    1.128    core radius for proj-oper                                                   
   RAUG   =    1.300    factor for augmentation sphere                                              
   RDEP   =    1.162    radius for radial grids                                                     
   RDEPT  =    1.088    core radius for aug-charge                                                  
                                                                                                    
   Atomic configuration                                                                             
    4 entries                                                                                       
     n  l   j            E        occ.                                                              
     1  0  0.50      -273.3789   2.0000                                                             
     2  0  0.50       -13.7508   2.0000                                                             
     2  1  0.50        -5.2854   2.0000                                                             
     3  2  1.50        -5.4423   0.0000                                                             
   Description                                                                                      
     l       E           TYP  RCUT    TYP  RCUT                                                     
     0    -13.7508458     23  1.100                                                                 
     0     -8.2022199     23  1.100                                                                 
     1     -5.2854383     23  1.100                                                                 
     1      1.1560700     23  1.100                                                                 
     2     -5.4423304      7  1.100                                                                 
  local pseudopotential read in
  partial core-charges read in
  partial kinetic energy density read in
  atomic valenz-charges read in
  non local Contribution for L=           0  read in
    real space projection operators read in
  non local Contribution for L=           0  read in
    real space projection operators read in
  non local Contribution for L=           1  read in
    real space projection operators read in
  non local Contribution for L=           1  read in
    real space projection operators read in
    PAW grid and wavefunctions read in

   number of l-projection  operators is LMAX  =           4
   number of lm-projection operators is LMMAX =           8

 POTCAR:    PAW_PBE H_h 06Feb2004                 
   VRHFIN =H: ultrasoft test                                                                        
   LEXCH  = PE                                                                                      
   EATOM  =    12.4884 eV,    0.9179 Ry                                                             
                                                                                                    
   TITEL  = PAW_PBE H_h 06Feb2004                                                                   
   LULTRA =        F    use ultrasoft PP ?                                                          
   IUNSCR =        0    unscreen: 0-lin 1-nonlin 2-no                                               
   RPACOR =    0.000    partial core radius                                                         
   POMASS =    1.000; ZVAL   =    1.000    mass and valenz                                          
   RCORE  =    0.800    outmost cutoff radius                                                       
   RWIGS  =    0.700; RWIGS  =    0.370    wigner-seitz radius (au A)                               
   ENMAX  =  700.000; ENMIN  =  350.000 eV                                                          
   RCLOC  =    0.701    cutoff for local pot                                                        
   LCOR   =        T    correct aug charges                                                         
   LPAW   =        T    paw PP                                                                      
   EAUG   = 1000.000                                                                                
   RMAX   =    0.819    core radius for proj-oper                                                   
   RAUG   =    1.000    factor for augmentation sphere                                              
   RDEP   =    0.817    radius for radial grids                                                     
   RDEPT  =    0.817    core radius for aug-charge                                                  
                                                                                                    
   Atomic configuration                                                                             
    2 entries                                                                                       
     n  l   j            E        occ.                                                              
     1  0  0.50        -6.4927   1.0000                                                             
     2  1  0.50        -3.4015   0.0000                                                             
   Description                                                                                      
     l       E           TYP  RCUT    TYP  RCUT                                                     
     0     -6.4927493     23  0.800                                                                 
     0      6.8029130     23  0.800                                                                 
     1     -6.8029130     23  0.800                                                                 
  local pseudopotential read in
  atomic valenz-charges read in
  non local Contribution for L=           0  read in
    real space projection operators read in
  non local Contribution for L=           0  read in
    real space projection operators read in
  non local Contribution for L=           1  read in
    real space projection operators read in
    PAW grid and wavefunctions read in

   number of l-projection  operators is LMAX  =           3
   number of lm-projection operators is LMMAX =           5

 POTCAR:    PAW_PBE O_h 06Feb2004                 
   VRHFIN =O: s2p4                                                                                  
   LEXCH  = PE                                                                                      
   EATOM  =   432.3788 eV,   31.7789 Ry                                                             
                                                                                                    
   TITEL  = PAW_PBE O_h 06Feb2004                                                                   
   LULTRA =        F    use ultrasoft PP ?                                                          
   IUNSCR =        1    unscreen: 0-lin 1-nonlin 2-no                                               
   RPACOR =    0.800    partial core radius                                                         
   POMASS =   16.000; ZVAL   =    6.000    mass and valenz                                          
   RCORE  =    1.100    outmost cutoff radius                                                       
   RWIGS  =    1.400; RWIGS  =    0.741    wigner-seitz radius (au A)                               
   ENMAX  =  700.000; ENMIN  =  500.000 eV                                                          
   ICORE  =        2    local potential                                                             
   LCOR   =        T    correct aug charges                                                         
   LPAW   =        T    paw PP                                                                      
   EAUG   =  888.804                                                                                
   DEXC   =    0.000                                                                                
   RMAX   =    1.128    core radius for proj-oper                                                   
   RAUG   =    1.300    factor for augmentation sphere                                              
   RDEP   =    1.125    radius for radial grids                                                     
   RDEPT  =    1.088    core radius for aug-charge                                                  
                                                                                                    
   Atomic configuration                                                                             
    4 entries                                                                                       
     n  l   j            E        occ.                                                              
     1  0  0.50      -514.6923   2.0000                                                             
     2  0  0.50       -23.9615   2.0000                                                             
     2  1  0.50        -9.0305   4.0000                                                             
     3  2  1.50        -9.5241   0.0000                                                             
   Description                                                                                      
     l       E           TYP  RCUT    TYP  RCUT                                                     
     0    -23.9615319     23  1.100                                                                 
     0    -25.3221145     23  1.100                                                                 
     1     -9.0304911     23  1.100                                                                 
     1     -5.4802209     23  1.100                                                                 
     2     -9.5240782      7  1.100                                                                 
  local pseudopotential read in
  partial core-charges read in
  partial kinetic energy density read in
  atomic valenz-charges read in
  non local Contribution for L=           0  read in
    real space projection operators read in
  non local Contribution for L=           0  read in
    real space projection operators read in
  non local Contribution for L=           1  read in
    real space projection operators read in
  non local Contribution for L=           1  read in
    real space projection operators read in
    PAW grid and wavefunctions read in

   number of l-projection  operators is LMAX  =           4
   number of lm-projection operators is LMMAX =           8

  PAW_PBE C_h 06Feb2004                 :
 energy of atom  1       EATOM= -147.1560
 kinetic energy error for atom=    0.0031 (will be added to EATOM!!)
  PAW_PBE H_h 06Feb2004                 :
 energy of atom  2       EATOM=  -12.4884
 kinetic energy error for atom=    0.0006 (will be added to EATOM!!)
  PAW_PBE O_h 06Feb2004                 :
 energy of atom  3       EATOM= -432.3788
 kinetic energy error for atom=    0.0171 (will be added to EATOM!!)


 POSCAR:  C  H  O
  positions in cartesian coordinates
  No initial velocities read in

 METAGGA = RSCAN                                       LMAXTAU =  6    LMIXTAU =  F

 exchange correlation table for  LEXCH =        8
   RHO(1)=    0.500       N(1)  =     2000
   RHO(2)=  100.500       N(2)  =     4000

 VTST: version 4.1, (05/19/21)

 CHAIN: initializing optimizer
 
 OPT: Using VASP Dynamics algorithm
 CHAIN: Read ICHAIN            0

 POSCAR:  C  H  O
  positions in cartesian coordinates
  No initial velocities read in



--------------------------------------------------------------------------------------------------------


 ion  position               nearest neighbor table
   1  0.518  0.480  0.473-   5 1.21   7 1.33   2 1.54
   2  0.482  0.520  0.527-   6 1.21   8 1.33   1 1.54
   3  0.464  0.411  0.504-   7 0.99
   4  0.536  0.589  0.496-   8 0.98
   5  0.561  0.505  0.437-   1 1.21
   6  0.439  0.495  0.563-   2 1.21
   7  0.498  0.416  0.469-   3 0.99   1 1.33
   8  0.502  0.584  0.531-   4 0.98   2 1.33

  LATTYP: Found a simple cubic cell.
 ALAT       =    20.0000000000
  
  Lattice vectors:
  
 A1 = (  20.0000000000,   0.0000000000,   0.0000000000)
 A2 = (   0.0000000000,  20.0000000000,   0.0000000000)
 A3 = (   0.0000000000,   0.0000000000,  20.0000000000)


Analysis of symmetry for initial positions (statically):
=====================================================================
 Subroutine PRICEL returns:
 Original cell was already a primitive cell.
 

 Routine SETGRP: Setting up the symmetry group for a 
 simple cubic supercell.


 Subroutine GETGRP returns: Found  1 space group operations
 (whereof  1 operations were pure point group operations)
 out of a pool of 48 trial point group operations.


The static configuration has the point symmetry C_1 .


Analysis of symmetry for dynamics (positions and initial velocities):
=====================================================================
 Subroutine PRICEL returns:
 Original cell was already a primitive cell.
 

 Routine SETGRP: Setting up the symmetry group for a 
 simple cubic supercell.


 Subroutine GETGRP returns: Found  1 space group operations
 (whereof  1 operations were pure point group operations)
 out of a pool of 48 trial point group operations.


The dynamic configuration has the point symmetry C_1 .


 Subroutine INISYM returns: Found  1 space group operations
 (whereof  1 operations are pure point group operations),
 and found     1 'primitive' translations


----------------------------------------------------------------------------------------

                                     Primitive cell                                     

  volume of cell :    8000.0000

  direct lattice vectors                    reciprocal lattice vectors
    20.000000000  0.000000000  0.000000000     0.050000000  0.000000000  0.000000000
     0.000000000 20.000000000  0.000000000     0.000000000  0.050000000  0.000000000
     0.000000000  0.000000000 20.000000000     0.000000000  0.000000000  0.050000000

  length of vectors
    20.000000000 20.000000000 20.000000000     0.050000000  0.050000000  0.050000000

  position of ions in fractional coordinates (direct lattice)
     0.518293500  0.479784500  0.472655750
     0.481704000  0.520187000  0.527336750
     0.463708000  0.410705500  0.503854750
     0.536252500  0.589294500  0.496108750
     0.560598500  0.504984500  0.437449750
     0.439401500  0.495016000  0.562550250
     0.498234500  0.416295000  0.469172750
     0.501723000  0.583682500  0.530771250

  ion indices of the primitive-cell ions
   primitive index   ion index
                 1           1
                 2           2
                 3           3
                 4           4
                 5           5
                 6           6
                 7           7
                 8           8

----------------------------------------------------------------------------------------



 KPOINTS: auto                                    

Automatic generation of k-mesh.
 Grid dimensions read from file:
 generate k-points for:    1    1    1

 Generating k-lattice:

  Cartesian coordinates                     Fractional coordinates (reciprocal lattice)
     0.050000000  0.000000000  0.000000000     1.000000000  0.000000000  0.000000000
     0.000000000  0.050000000  0.000000000     0.000000000  1.000000000  0.000000000
     0.000000000  0.000000000  0.050000000     0.000000000  0.000000000  1.000000000

  Length of vectors
     0.050000000  0.050000000  0.050000000

  Shift w.r.t. Gamma in fractional coordinates (k-lattice)
     0.000000000  0.000000000  0.000000000

 
 Subroutine IBZKPT returns following result:
 ===========================================
 
 Found      1 irreducible k-points:
 
 Following reciprocal coordinates:
            Coordinates               Weight
  0.000000  0.000000  0.000000      1.000000
 
 Following cartesian coordinates:
            Coordinates               Weight
  0.000000  0.000000  0.000000      1.000000
 


--------------------------------------------------------------------------------------------------------




 Dimension of arrays:
   k-points           NKPTS =      1   k-points in BZ     NKDIM =      1   number of bands    NBANDS=     24
   number of dos      NEDOS =    301   number of ions     NIONS =      8
   non local maximal  LDIM  =      4   non local SUM 2l+1 LMDIM =      8
   total plane-waves  NPLWV = ******
   max r-space proj   IRMAX =      1   max aug-charges    IRDMAX=   8641
   dimension x,y,z NGX =   210 NGY =  210 NGZ =  210
   dimension x,y,z NGXF=   420 NGYF=  420 NGZF=  420
   support grid    NGXF=   420 NGYF=  420 NGZF=  420
   ions per type =               2   2   4
   NGX,Y,Z   is equivalent  to a cutoff of  17.46, 17.46, 17.46 a.u.
   NGXF,Y,Z  is equivalent  to a cutoff of  34.91, 34.91, 34.91 a.u.

 SYSTEM =  unknown system                          
 POSCAR =   C  H  O                                

 Startparameter for this run:
   NWRITE =      2    write-flag & timer
   PREC   = accura    normal or accurate (medium, high low for compatibility)
   ISTART =      0    job   : 0-new  1-cont  2-samecut
   ICHARG =      2    charge: 1-file 2-atom 10-const
   ISPIN  =      1    spin polarized calculation?
   LNONCOLLINEAR =      F non collinear calculations
   LSORBIT =      F    spin-orbit coupling
   INIWAV =      1    electr: 0-lowe 1-rand  2-diag
   LASPH  =      T    aspherical Exc in radial PAW
 Electronic Relaxation 1
   ENCUT  = 1000.0 eV  73.50 Ry    8.57 a.u.  51.57 51.57 51.57*2*pi/ulx,y,z
   ENINI  = 1000.0     initial cutoff
   ENAUG  = 1000.0 eV  augmentation charge cutoff
   NELM   =     60;   NELMIN=  2; NELMDL= -5     # of ELM steps 
   EDIFF  = 0.1E-06   stopping-criterion for ELM
   LREAL  =      F    real-space projection
   NLSPLINE    = F    spline interpolate recip. space projectors
   LCOMPAT=      F    compatible to vasp.4.4
   GGA_COMPAT  = T    GGA compatible to vasp.4.4-vasp.4.6
   LMAXPAW     = -100 max onsite density
   LMAXMIX     =    2 max onsite mixed and CHGCAR
   VOSKOWN=      0    Vosko Wilk Nusair interpolation
   ROPT   =    0.00000   0.00000   0.00000
 Ionic relaxation
   EDIFFG = 0.1E-05   stopping-criterion for IOM
   NSW    =      0    number of steps for IOM
   NBLOCK =      1;   KBLOCK =      1    inner block; outer block 
   IBRION =     -1    ionic relax: 0-MD 1-quasi-New 2-CG
   NFREE  =      0    steps in history (QN), initial steepest desc. (CG)
   ISIF   =      0    stress and relaxation
   IWAVPR =     10    prediction:  0-non 1-charg 2-wave 3-comb
   ISYM   =      2    0-nonsym 1-usesym 2-fastsym
   LCORR  =      T    Harris-Foulkes like correction to forces

   POTIM  = 0.5000    time-step for ionic-motion
   TEIN   =    0.0    initial temperature
   TEBEG  =    0.0;   TEEND  =   0.0 temperature during run
   SMASS  =  -3.00    Nose mass-parameter (am)
   estimated Nose-frequenzy (Omega)   =  0.10E-29 period in steps = 0.13E+47 mass=  -0.914E-26a.u.
   SCALEE = 1.0000    scale energy and forces
   NPACO  =    256;   APACO  = 10.0  distance and # of slots for P.C.
   PSTRESS=    0.0 pullay stress

  Mass of Ions in am
   POMASS =  12.01  1.00 16.00
  Ionic Valenz
   ZVAL   =   4.00  1.00  6.00
  Atomic Wigner-Seitz radii
   RWIGS  =  -1.00 -1.00 -1.00
  virtual crystal weights 
   VCA    =   1.00  1.00  1.00
   NELECT =      34.0000    total number of electrons
   NUPDOWN=      -1.0000    fix difference up-down

 DOS related values:
   EMIN   =  10.00;   EMAX   =-10.00  energy-range for DOS
   EFERMI =   0.00;   METHOD = LEGACY      
   ISMEAR =     0;   SIGMA  =   0.01  broadening in eV -4-tet -1-fermi 0-gaus

 Electronic relaxation 2 (details)
   IALGO  =     58    algorithm
   LDIAG  =      T    sub-space diagonalisation (order eigenvalues)
   LSUBROT=      F    optimize rotation matrix (better conditioning)
   TURBO    =      0    0=normal 1=particle mesh
   IRESTART =      0    0=no restart 2=restart with 2 vectors
   NREBOOT  =      0    no. of reboots
   NMIN     =      0    reboot dimension
   EREF     =   0.00    reference energy to select bands
   IMIX   =      4    mixing-type and parameters
     AMIX     =   0.40;   BMIX     =  1.00
     AMIX_MAG =   1.60;   BMIX_MAG =  1.00
     AMIN     =   0.10
     WC   =   100.;   INIMIX=   1;  MIXPRE=   1;  MAXMIX= -45

 Intra band minimization:
   WEIMIN = 0.0000     energy-eigenvalue tresh-hold
   EBREAK =  0.10E-08  absolut break condition
   DEPER  =   0.30     relativ break condition  

   TIME   =   0.40     timestep for ELM

  volume/ion in A,a.u.               =    1000.00      6748.33
  Fermi-wavevector in a.u.,A,eV,Ry     =   0.265178  0.501114  0.956755  0.070319
  Thomas-Fermi vector in A             =   1.098052

 Write flags
   LWAVE        =      F    write WAVECAR
   LDOWNSAMPLE  =      F    k-point downsampling of WAVECAR
   LCHARG       =      F    write CHGCAR
   LVTOT        =      F    write LOCPOT, total local potential
   LVHAR        =      F    write LOCPOT, Hartree potential only
   LELF         =      F    write electronic localiz. function (ELF)
   LORBIT       =      0    0 simple, 1 ext, 2 COOP (PROOUT), +10 PAW based schemes


 Dipole corrections
   LMONO  =      F    monopole corrections only (constant potential shift)
   LDIPOL =      F    correct potential (dipole corrections)
   IDIPOL =      0    1-x, 2-y, 3-z, 4-all directions 
   EPSILON=  1.0000000 bulk dielectric constant

 Exchange correlation treatment:
   GGA     =    --    GGA type
   LEXCH   =     8    internal setting for exchange type
   LIBXC   =     F    Libxc                    
   VOSKOWN =     0    Vosko Wilk Nusair interpolation
   LHFCALC =     F    Hartree Fock is set to
   LHFONE  =     F    Hartree Fock one center treatment
   AEXX    =    0.0000 exact exchange contribution

 Linear response parameters
   LEPSILON=     F    determine dielectric tensor
   LRPA    =     F    only Hartree local field effects (RPA)
   LNABLA  =     F    use nabla operator in PAW spheres
   LVEL    =     F    velocity operator in full k-point grid
   CSHIFT  =0.1000    complex shift for real part using Kramers Kronig
   OMEGAMAX=  -1.0    maximum frequency
   DEG_THRESHOLD= 0.2000000E-02 threshold for treating states as degnerate
   RTIME   =   -0.100 relaxation time in fs
  (WPLASMAI=    0.000 imaginary part of plasma frequency in eV, 0.658/RTIME)
   DFIELD  = 0.0000000 0.0000000 0.0000000 field for delta impulse in time

  Optional k-point grid parameters
   LKPOINTS_OPT  =     F    use optional k-point grid
   KPOINTS_OPT_MODE=     1    mode for optional k-point grid

 Orbital magnetization related:
   ORBITALMAG=     F  switch on orbital magnetization
   LCHIMAG   =     F  perturbation theory with respect to B field
   DQ        =  0.001000  dq finite difference perturbation B field
   LLRAUG    =     F  two centre corrections for induced B field
   LBONE     =     F  B-component reconstruction in AE one-centre
   LVGVCALC  =     T  calculate vGv susceptibility
   LVGVAPPL  =     F  apply vGv susceptibility instead of pGv for G=0

 Random number generation:
   RANDOM_GENERATOR = DEFAULT
   PCG_SEED         = not used


--------------------------------------------------------------------------------------------------------


 Static calculation
 charge density and potential will be updated during run
 non-spin polarized calculation
 Conjugate gradient for all bands (Freysoldt, et al. PRB 79, 241103 (2009))
 preconditioned conjugated gradient                                        
 perform sub-space diagonalisation
    before iterative eigenvector-optimisation
 modified Broyden-mixing scheme, WC =      100.0
 initial mixing is a Kerker type mixing with AMIX =  0.4000 and BMIX =      1.0000
 Hartree-type preconditioning will be used
 using additional bands            7
 reciprocal scheme for non local part
 use partial core corrections
 no Harris-corrections to forces 
 use gradient corrections 
 use of overlap-Matrix (Vanderbilt PP)
 Gauss-broadening in eV      SIGMA  =   0.01


--------------------------------------------------------------------------------------------------------


  energy-cutoff  :     1000.00
  volume of cell :     8000.00
      direct lattice vectors                 reciprocal lattice vectors
    20.000000000  0.000000000  0.000000000     0.050000000  0.000000000  0.000000000
     0.000000000 20.000000000  0.000000000     0.000000000  0.050000000  0.000000000
     0.000000000  0.000000000 20.000000000     0.000000000  0.000000000  0.050000000

  length of vectors
    20.000000000 20.000000000 20.000000000     0.050000000  0.050000000  0.050000000



 k-points in units of 2pi/SCALE and weight: auto                                    
   0.00000000  0.00000000  0.00000000       1.000

 k-points in reciprocal lattice and weights: auto                                    
   0.00000000  0.00000000  0.00000000       1.000

 position of ions in fractional coordinates (direct lattice) 
   0.51829350  0.47978450  0.47265575
   0.48170400  0.52018700  0.52733675
   0.46370800  0.41070550  0.50385475
   0.53625250  0.58929450  0.49610875
   0.56059850  0.50498450  0.43744975
   0.43940150  0.49501600  0.56255025
   0.49823450  0.41629500  0.46917275
   0.50172300  0.58368250  0.53077125

 position of ions in cartesian coordinates  (Angst):
  10.36587000  9.59569000  9.45311500
   9.63408000 10.40374000 10.54673500
   9.27416000  8.21411000 10.07709500
  10.72505000 11.78589000  9.92217500
  11.21197000 10.09969000  8.74899500
   8.78803000  9.90032000 11.25100500
   9.96469000  8.32590000  9.38345500
  10.03446000 11.67365000 10.61542500



--------------------------------------------------------------------------------------------------------


 use parallel FFT for orbitals z direction half grid
 k-point   1 :   0.0000 0.0000 0.0000  plane waves:  287166

 maximum and minimum number of plane-waves per node :      8979     8970

 maximum number of plane-waves:    287166
 maximum index in each direction: 
   IXMAX=   51   IYMAX=   51   IZMAX=   51
   IXMIN=  -51   IYMIN=  -51   IZMIN=    0


 parallel 3D FFT for wavefunctions:
    minimum data exchange during FFTs selected (reduces bandwidth)
 parallel 3D FFT for charge:
    minimum data exchange during FFTs selected (reduces bandwidth)


 total amount of memory used by VASP MPI-rank0    99759. kBytes
=======================================================================

   base      :      30000. kBytes
   nonl-proj :       2874. kBytes
   fftplans  :      17846. kBytes
   grid      :      47745. kBytes
   one-center:          1. kBytes
   wavefun   :       1293. kBytes

     INWAV:  cpu time      0.0000: real time      0.0000
 Broyden mixing: mesh for mixing (old mesh)
   NGX =103   NGY =103   NGZ =103
  (NGX  =420   NGY  =420   NGZ  =420)
  gives a total of ****** points

 initial charge density was supplied:
 charge density of overlapping atoms calculated
 number of electron      34.0000000 magnetization 
 keeping initial charge density in first step


--------------------------------------------------------------------------------------------------------


 Maximum index for augmentation-charges            0 (set IRDMAX)


--------------------------------------------------------------------------------------------------------


 First call to EWALD:  gamma=   0.089
 Maximum number of real-space cells 3x 3x 3
 Maximum number of reciprocal cells 3x 3x 3

    FEWALD:  cpu time      0.0029: real time      0.0029


--------------------------------------- Ionic step        1  -------------------------------------------




--------------------------------------- Iteration      1(   1)  ---------------------------------------


    POTLOK:  cpu time      1.1955: real time      1.1979
    SETDIJ:  cpu time      0.3156: real time      0.3161
    TRIAL :  cpu time      1.7255: real time      1.7284
    CORREC:  cpu time      0.0029: real time      0.0029
    --------------------------------------------
      LOOP:  cpu time      3.2473: real time      3.2534

 eigenvalue-minimisations  :    64
 total energy-change (2. order) : 0.4041563E+03  (-0.9565073E+03)
 number of electron      34.0000000 magnetization 
 augmentation part       34.0000000 magnetization 

 Free energy of the ion-electron system (eV)
  ---------------------------------------------------
  alpha Z        PSCENC =         0.40154822
  Ewald energy   TEWEN  =      2257.36198512
  -Hartree energ DENC   =     -3871.20669808
  -exchange      EXHF   =         0.00000000
  -V(xc)+E(xc)   XCENC  =       154.50027562
  PAW double counting   =      1585.64426893    -1595.31296572
  entropy T*S    EENTRO =        -0.00000000
  eigenvalues    EBANDS =      -175.96049014
  atomic energy  EATOM  =      2048.72835245
  ---------------------------------------------------
  free energy    TOTEN  =       404.15627642 eV

  energy without entropy =      404.15627642  energy(sigma->0) =      404.15627642


--------------------------------------------------------------------------------------------------------




--------------------------------------- Iteration      1(   2)  ---------------------------------------


    TRIAL :  cpu time      1.7951: real time      1.7956
    CORREC:  cpu time      0.0002: real time      0.0002
    --------------------------------------------
      LOOP:  cpu time      1.8080: real time      1.8234

 eigenvalue-minimisations  :    72
 total energy-change (2. order) :-0.1766054E+03  (-0.1745971E+03)
 number of electron      34.0000000 magnetization 
 augmentation part       34.0000000 magnetization 

 Free energy of the ion-electron system (eV)
  ---------------------------------------------------
  alpha Z        PSCENC =         0.40154822
  Ewald energy   TEWEN  =      2257.36198512
  -Hartree energ DENC   =     -3871.20669808
  -exchange      EXHF   =         0.00000000
  -V(xc)+E(xc)   XCENC  =       154.50027562
  PAW double counting   =      1585.64426893    -1595.31296572
  entropy T*S    EENTRO =        -0.00000000
  eigenvalues    EBANDS =      -352.56592799
  atomic energy  EATOM  =      2048.72835245
  ---------------------------------------------------
  free energy    TOTEN  =       227.55083856 eV

  energy without entropy =      227.55083856  energy(sigma->0) =      227.55083856


--------------------------------------------------------------------------------------------------------




--------------------------------------- Iteration      1(   3)  ---------------------------------------


    TRIAL :  cpu time      2.0431: real time      2.0438
    CORREC:  cpu time      0.0001: real time      0.0001
    --------------------------------------------
      LOOP:  cpu time      2.0581: real time      2.0738

 eigenvalue-minimisations  :    88
 total energy-change (2. order) :-0.2016097E+03  (-0.1994930E+03)
 number of electron      34.0000000 magnetization 
 augmentation part       34.0000000 magnetization 

 Free energy of the ion-electron system (eV)
  ---------------------------------------------------
  alpha Z        PSCENC =         0.40154822
  Ewald energy   TEWEN  =      2257.36198512
  -Hartree energ DENC   =     -3871.20669808
  -exchange      EXHF   =         0.00000000
  -V(xc)+E(xc)   XCENC  =       154.50027562
  PAW double counting   =      1585.64426893    -1595.31296572
  entropy T*S    EENTRO =        -0.00000000
  eigenvalues    EBANDS =      -554.17563062
  atomic energy  EATOM  =      2048.72835245
  ---------------------------------------------------
  free energy    TOTEN  =        25.94113594 eV

  energy without entropy =       25.94113594  energy(sigma->0) =       25.94113594


--------------------------------------------------------------------------------------------------------




--------------------------------------- Iteration      1(   4)  ---------------------------------------


    TRIAL :  cpu time      1.6704: real time      1.6709
    CORREC:  cpu time      0.0001: real time      0.0001
    --------------------------------------------
      LOOP:  cpu time      1.7001: real time      1.7010

 eigenvalue-minimisations  :    64
 total energy-change (2. order) :-0.8777353E+02  (-0.8735861E+02)
 number of electron      34.0000000 magnetization 
 augmentation part       34.0000000 magnetization 

 Free energy of the ion-electron system (eV)
  ---------------------------------------------------
  alpha Z        PSCENC =         0.40154822
  Ewald energy   TEWEN  =      2257.36198512
  -Hartree energ DENC   =     -3871.20669808
  -exchange      EXHF   =         0.00000000
  -V(xc)+E(xc)   XCENC  =       154.50027562
  PAW double counting   =      1585.64426893    -1595.31296572
  entropy T*S    EENTRO =        -0.00000000
  eigenvalues    EBANDS =      -641.94915937
  atomic energy  EATOM  =      2048.72835245
  ---------------------------------------------------
  free energy    TOTEN  =       -61.83239282 eV

  energy without entropy =      -61.83239282  energy(sigma->0) =      -61.83239282


--------------------------------------------------------------------------------------------------------




--------------------------------------- Iteration      1(   5)  ---------------------------------------


    TRIAL :  cpu time      1.5436: real time      1.5446
    CORREC:  cpu time      0.0001: real time      0.0001
    CHARGE:  cpu time      0.3459: real time      0.3474
    --------------------------------------------
      LOOP:  cpu time      1.9056: real time      1.9222

 eigenvalue-minimisations  :    56
 total energy-change (2. order) :-0.1504299E+02  (-0.1499522E+02)
 number of electron      34.0000000 magnetization 
 augmentation part        0.1946539 magnetization 

 Free energy of the ion-electron system (eV)
  ---------------------------------------------------
  alpha Z        PSCENC =         0.40154822
  Ewald energy   TEWEN  =      2257.36198512
  -Hartree energ DENC   =     -3871.20669808
  -exchange      EXHF   =         0.00000000
  -V(xc)+E(xc)   XCENC  =       154.50027562
  PAW double counting   =      1585.64426893    -1595.31296572
  entropy T*S    EENTRO =        -0.00000000
  eigenvalues    EBANDS =      -656.99215044
  atomic energy  EATOM  =      2048.72835245
  ---------------------------------------------------
  free energy    TOTEN  =       -76.87538389 eV

  energy without entropy =      -76.87538389  energy(sigma->0) =      -76.87538389


--------------------------------------------------------------------------------------------------------




--------------------------------------- Iteration      1(   6)  ---------------------------------------


    POTLOK:  cpu time      1.1386: real time      1.1388
    SETDIJ:  cpu time      0.3086: real time      0.3089
    TRIAL :  cpu time      1.3707: real time      1.3724
    CORREC:  cpu time      2.1039: real time      2.1049
    CHARGE:  cpu time      0.3036: real time      0.3036
    --------------------------------------------
      LOOP:  cpu time      5.2570: real time      5.2605

 eigenvalue-minimisations  :     0
 total energy-change (2. order) : 0.1927193E+02  (-0.3347772E+01)
 number of electron      34.0000000 magnetization 
 augmentation part        0.1595623 magnetization 

 Free energy of the ion-electron system (eV)
  ---------------------------------------------------
  alpha Z        PSCENC =         0.40154822
  Ewald energy   TEWEN  =      2257.36198512
  -Hartree energ DENC   =     -4049.21395803
  -exchange      EXHF   =         0.00000000
  -V(xc)+E(xc)   XCENC  =       170.44025651
  PAW double counting   =     24828.44278750   -24840.02661862
  entropy T*S    EENTRO =        -0.00000000
  eigenvalues    EBANDS =      -473.73780431
  atomic energy  EATOM  =      2048.72835245
  ---------------------------------------------------
  free energy    TOTEN  =       -57.60345114 eV

  energy without entropy =      -57.60345114  energy(sigma->0) =      -57.60345114


--------------------------------------------------------------------------------------------------------




--------------------------------------- Iteration      1(   7)  ---------------------------------------


    POTLOK:  cpu time      1.1349: real time      1.1358
    SETDIJ:  cpu time      0.3067: real time      0.3068
    TRIAL :  cpu time      1.3619: real time      1.3627
    CORREC:  cpu time      2.1441: real time      2.1455
    CHARGE:  cpu time      0.3047: real time      0.3055
    --------------------------------------------
      LOOP:  cpu time      5.2824: real time      5.2866

 eigenvalue-minimisations  :     0
 total energy-change (2. order) :-0.3379875E+01  (-0.5984472E+00)
 number of electron      34.0000000 magnetization 
 augmentation part        0.1292668 magnetization 

 Free energy of the ion-electron system (eV)
  ---------------------------------------------------
  alpha Z        PSCENC =         0.40154822
  Ewald energy   TEWEN  =      2257.36198512
  -Hartree energ DENC   =     -3961.48533825
  -exchange      EXHF   =         0.00000000
  -V(xc)+E(xc)   XCENC  =       164.49090230
  PAW double counting   =     25813.88678348   -25824.43469582
  entropy T*S    EENTRO =        -0.00000000
  eigenvalues    EBANDS =      -559.93286405
  atomic energy  EATOM  =      2048.72835245
  ---------------------------------------------------
  free energy    TOTEN  =       -60.98332653 eV

  energy without entropy =      -60.98332653  energy(sigma->0) =      -60.98332653


--------------------------------------------------------------------------------------------------------




--------------------------------------- Iteration      1(   8)  ---------------------------------------


    POTLOK:  cpu time      1.1430: real time      1.1436
    SETDIJ:  cpu time      0.3047: real time      0.3047
    TRIAL :  cpu time      1.3549: real time      1.3555
    CORREC:  cpu time      2.1078: real time      2.1099
    CHARGE:  cpu time      0.3026: real time      0.3026
    --------------------------------------------
      LOOP:  cpu time      5.2269: real time      5.2466

 eigenvalue-minimisations  :     0
 total energy-change (2. order) :-0.5984578E+00  (-0.2105402E+00)
 number of electron      34.0000000 magnetization 
 augmentation part        0.1343572 magnetization 

 Free energy of the ion-electron system (eV)
  ---------------------------------------------------
  alpha Z        PSCENC =         0.40154822
  Ewald energy   TEWEN  =      2257.36198512
  -Hartree energ DENC   =     -3969.61775682
  -exchange      EXHF   =         0.00000000
  -V(xc)+E(xc)   XCENC  =       164.36964069
  PAW double counting   =     25954.06264287   -25964.43867473
  entropy T*S    EENTRO =        -0.00000000
  eigenvalues    EBANDS =      -552.44952213
  atomic energy  EATOM  =      2048.72835245
  ---------------------------------------------------
  free energy    TOTEN  =       -61.58178431 eV

  energy without entropy =      -61.58178431  energy(sigma->0) =      -61.58178431


--------------------------------------------------------------------------------------------------------




--------------------------------------- Iteration      1(   9)  ---------------------------------------


    POTLOK:  cpu time      1.1459: real time      1.1464
    SETDIJ:  cpu time      0.3072: real time      0.3072
    TRIAL :  cpu time      1.3577: real time      1.3590
    CORREC:  cpu time      2.1131: real time      2.1141
    CHARGE:  cpu time      0.3037: real time      0.3038
    --------------------------------------------
      LOOP:  cpu time      5.2422: real time      5.2623

 eigenvalue-minimisations  :     0
 total energy-change (2. order) :-0.2105415E+00  (-0.8731428E-01)
 number of electron      34.0000000 magnetization 
 augmentation part        0.1423547 magnetization 

 Free energy of the ion-electron system (eV)
  ---------------------------------------------------
  alpha Z        PSCENC =         0.40154822
  Ewald energy   TEWEN  =      2257.36198512
  -Hartree energ DENC   =     -3977.20858103
  -exchange      EXHF   =         0.00000000
  -V(xc)+E(xc)   XCENC  =       164.56108214
  PAW double counting   =     26380.33730688   -26390.74262957
  entropy T*S    EENTRO =        -0.00000000
  eigenvalues    EBANDS =      -545.23139002
  atomic energy  EATOM  =      2048.72835245
  ---------------------------------------------------
  free energy    TOTEN  =       -61.79232581 eV

  energy without entropy =      -61.79232581  energy(sigma->0) =      -61.79232581


--------------------------------------------------------------------------------------------------------




--------------------------------------- Iteration      1(  10)  ---------------------------------------


    POTLOK:  cpu time      1.1901: real time      1.1906
    SETDIJ:  cpu time      0.2628: real time      0.2632
    TRIAL :  cpu time      1.3599: real time      1.3609
    CORREC:  cpu time      2.1108: real time      2.1123
    CHARGE:  cpu time      0.3055: real time      0.3055
    --------------------------------------------
      LOOP:  cpu time      5.2592: real time      5.2630

 eigenvalue-minimisations  :     0
 total energy-change (2. order) :-0.8731862E-01  (-0.3290384E-01)
 number of electron      34.0000000 magnetization 
 augmentation part        0.1453620 magnetization 

 Free energy of the ion-electron system (eV)
  ---------------------------------------------------
  alpha Z        PSCENC =         0.40154822
  Ewald energy   TEWEN  =      2257.36198512
  -Hartree energ DENC   =     -3974.61497065
  -exchange      EXHF   =         0.00000000
  -V(xc)+E(xc)   XCENC  =       164.45647769
  PAW double counting   =     26548.30804593   -26558.74129090
  entropy T*S    EENTRO =        -0.00000000
  eigenvalues    EBANDS =      -547.77979230
  atomic energy  EATOM  =      2048.72835245
  ---------------------------------------------------
  free energy    TOTEN  =       -61.87964443 eV

  energy without entropy =      -61.87964443  energy(sigma->0) =      -61.87964443


--------------------------------------------------------------------------------------------------------




--------------------------------------- Iteration      1(  11)  ---------------------------------------


    POTLOK:  cpu time      1.1474: real time      1.1489
    SETDIJ:  cpu time      0.3892: real time      0.3892
    TRIAL :  cpu time      1.3578: real time      1.3586
    CORREC:  cpu time      2.1127: real time      2.1137
    CHARGE:  cpu time      0.3035: real time      0.3043
    --------------------------------------------
      LOOP:  cpu time      5.3255: real time      5.3451

 eigenvalue-minimisations  :     0
 total energy-change (2. order) :-0.3288201E-01  (-0.1333053E-01)
 number of electron      34.0000000 magnetization 
 augmentation part        0.1473865 magnetization 

 Free energy of the ion-electron system (eV)
  ---------------------------------------------------
  alpha Z        PSCENC =         0.40154822
  Ewald energy   TEWEN  =      2257.36198512
  -Hartree energ DENC   =     -3972.48410341
  -exchange      EXHF   =         0.00000000
  -V(xc)+E(xc)   XCENC  =       164.40317665
  PAW double counting   =     26442.42846529   -26452.87839488
  entropy T*S    EENTRO =        -0.00000000
  eigenvalues    EBANDS =      -549.87355588
  atomic energy  EATOM  =      2048.72835245
  ---------------------------------------------------
  free energy    TOTEN  =       -61.91252644 eV

  energy without entropy =      -61.91252644  energy(sigma->0) =      -61.91252644


--------------------------------------------------------------------------------------------------------




--------------------------------------- Iteration      1(  12)  ---------------------------------------


    POTLOK:  cpu time      1.1507: real time      1.1511
    SETDIJ:  cpu time      0.3048: real time      0.3048
    TRIAL :  cpu time      1.3533: real time      1.3553
    CORREC:  cpu time      2.1148: real time      2.1162
    CHARGE:  cpu time      0.3044: real time      0.3044
    --------------------------------------------
      LOOP:  cpu time      5.2440: real time      5.2624

 eigenvalue-minimisations  :     0
 total energy-change (2. order) :-0.1332419E-01  (-0.5515801E-02)
 number of electron      34.0000000 magnetization 
 augmentation part        0.1476640 magnetization 

 Free energy of the ion-electron system (eV)
  ---------------------------------------------------
  alpha Z        PSCENC =         0.40154822
  Ewald energy   TEWEN  =      2257.36198512
  -Hartree energ DENC   =     -3972.40943067
  -exchange      EXHF   =         0.00000000
  -V(xc)+E(xc)   XCENC  =       164.40354511
  PAW double counting   =     26450.76762519   -26461.22674407
  entropy T*S    EENTRO =        -0.00000000
  eigenvalues    EBANDS =      -549.95273199
  atomic energy  EATOM  =      2048.72835245
  ---------------------------------------------------
  free energy    TOTEN  =       -61.92585063 eV

  energy without entropy =      -61.92585063  energy(sigma->0) =      -61.92585063


--------------------------------------------------------------------------------------------------------




--------------------------------------- Iteration      1(  13)  ---------------------------------------


    POTLOK:  cpu time      1.1509: real time      1.1513
    SETDIJ:  cpu time      0.3070: real time      0.3074
    TRIAL :  cpu time      1.3617: real time      1.3626
    CORREC:  cpu time      2.1129: real time      2.1139
    CHARGE:  cpu time      0.3054: real time      0.3054
    --------------------------------------------
      LOOP:  cpu time      5.2509: real time      5.2712

 eigenvalue-minimisations  :     0
 total energy-change (2. order) :-0.5515224E-02  (-0.2320039E-02)
 number of electron      34.0000000 magnetization 
 augmentation part        0.1471907 magnetization 

 Free energy of the ion-electron system (eV)
  ---------------------------------------------------
  alpha Z        PSCENC =         0.40154822
  Ewald energy   TEWEN  =      2257.36198512
  -Hartree energ DENC   =     -3972.15835817
  -exchange      EXHF   =         0.00000000
  -V(xc)+E(xc)   XCENC  =       164.38061557
  PAW double counting   =     26503.43832298   -26513.89263382
  entropy T*S    EENTRO =        -0.00000000
  eigenvalues    EBANDS =      -550.19119821
  atomic energy  EATOM  =      2048.72835245
  ---------------------------------------------------
  free energy    TOTEN  =       -61.93136586 eV

  energy without entropy =      -61.93136586  energy(sigma->0) =      -61.93136586


--------------------------------------------------------------------------------------------------------




--------------------------------------- Iteration      1(  14)  ---------------------------------------


    POTLOK:  cpu time      1.1540: real time      1.1546
    SETDIJ:  cpu time      0.3033: real time      0.3037
    TRIAL :  cpu time      1.3627: real time      1.3634
    CORREC:  cpu time      2.1143: real time      2.1158
    CHARGE:  cpu time      0.3055: real time      0.3064
    --------------------------------------------
      LOOP:  cpu time      5.2563: real time      5.2741

 eigenvalue-minimisations  :     0
 total energy-change (2. order) :-0.2317663E-02  (-0.1093328E-02)
 number of electron      34.0000000 magnetization 
 augmentation part        0.1471097 magnetization 

 Free energy of the ion-electron system (eV)
  ---------------------------------------------------
  alpha Z        PSCENC =         0.40154822
  Ewald energy   TEWEN  =      2257.36198512
  -Hartree energ DENC   =     -3971.95334282
  -exchange      EXHF   =         0.00000000
  -V(xc)+E(xc)   XCENC  =       164.37034930
  PAW double counting   =     26447.29904589   -26457.74878532
  entropy T*S    EENTRO =        -0.00000000
  eigenvalues    EBANDS =      -550.39283637
  atomic energy  EATOM  =      2048.72835245
  ---------------------------------------------------
  free energy    TOTEN  =       -61.93368352 eV

  energy without entropy =      -61.93368352  energy(sigma->0) =      -61.93368352


--------------------------------------------------------------------------------------------------------




--------------------------------------- Iteration      1(  15)  ---------------------------------------


    POTLOK:  cpu time      1.1509: real time      1.1513
    SETDIJ:  cpu time      0.3069: real time      0.3069
    TRIAL :  cpu time      1.3825: real time      1.3833
    CORREC:  cpu time      2.1110: real time      2.1132
    CHARGE:  cpu time      0.3041: real time      0.3041
    --------------------------------------------
      LOOP:  cpu time      5.2858: real time      5.2894

 eigenvalue-minimisations  :     0
 total energy-change (2. order) :-0.1092938E-02  (-0.5690237E-03)
 number of electron      34.0000000 magnetization 
 augmentation part        0.1471962 magnetization 

 Free energy of the ion-electron system (eV)
  ---------------------------------------------------
  alpha Z        PSCENC =         0.40154822
  Ewald energy   TEWEN  =      2257.36198512
  -Hartree energ DENC   =     -3972.05350811
  -exchange      EXHF   =         0.00000000
  -V(xc)+E(xc)   XCENC  =       164.37724521
  PAW double counting   =     26318.93895247   -26329.38914600
  entropy T*S    EENTRO =        -0.00000000
  eigenvalues    EBANDS =      -550.30020582
  atomic energy  EATOM  =      2048.72835245
  ---------------------------------------------------
  free energy    TOTEN  =       -61.93477646 eV

  energy without entropy =      -61.93477646  energy(sigma->0) =      -61.93477646


--------------------------------------------------------------------------------------------------------




--------------------------------------- Iteration      1(  16)  ---------------------------------------


    POTLOK:  cpu time      1.1523: real time      1.1528
    SETDIJ:  cpu time      0.3054: real time      0.3054
    TRIAL :  cpu time      1.3552: real time      1.3568
    CORREC:  cpu time      2.1185: real time      2.1198
    CHARGE:  cpu time      0.3051: real time      0.3051
    --------------------------------------------
      LOOP:  cpu time      5.2618: real time      5.2706

 eigenvalue-minimisations  :     0
 total energy-change (2. order) :-0.5697479E-03  (-0.2805985E-03)
 number of electron      34.0000000 magnetization 
 augmentation part        0.1472436 magnetization 

 Free energy of the ion-electron system (eV)
  ---------------------------------------------------
  alpha Z        PSCENC =         0.40154822
  Ewald energy   TEWEN  =      2257.36198512
  -Hartree energ DENC   =     -3971.98554578
  -exchange      EXHF   =         0.00000000
  -V(xc)+E(xc)   XCENC  =       164.37278615
  PAW double counting   =     26197.53058905   -26207.98091200
  entropy T*S    EENTRO =        -0.00000000
  eigenvalues    EBANDS =      -550.36414943
  atomic energy  EATOM  =      2048.72835245
  ---------------------------------------------------
  free energy    TOTEN  =       -61.93534621 eV

  energy without entropy =      -61.93534621  energy(sigma->0) =      -61.93534621


--------------------------------------------------------------------------------------------------------




--------------------------------------- Iteration      1(  17)  ---------------------------------------


    POTLOK:  cpu time      1.1524: real time      1.1529
    SETDIJ:  cpu time      0.3082: real time      0.3087
    TRIAL :  cpu time      1.3555: real time      1.3563
    CORREC:  cpu time      2.1539: real time      2.1552
    CHARGE:  cpu time      0.3062: real time      0.3062
    --------------------------------------------
      LOOP:  cpu time      5.2927: real time      5.3114

 eigenvalue-minimisations  :     0
 total energy-change (2. order) :-0.2805481E-03  (-0.1124805E-03)
 number of electron      34.0000000 magnetization 
 augmentation part        0.1471889 magnetization 

 Free energy of the ion-electron system (eV)
  ---------------------------------------------------
  alpha Z        PSCENC =         0.40154822
  Ewald energy   TEWEN  =      2257.36198512
  -Hartree energ DENC   =     -3972.05784966
  -exchange      EXHF   =         0.00000000
  -V(xc)+E(xc)   XCENC  =       164.37629716
  PAW double counting   =     26130.63334748   -26141.08456199
  entropy T*S    EENTRO =        -0.00000000
  eigenvalues    EBANDS =      -550.29474554
  atomic energy  EATOM  =      2048.72835245
  ---------------------------------------------------
  free energy    TOTEN  =       -61.93562675 eV

  energy without entropy =      -61.93562675  energy(sigma->0) =      -61.93562675


--------------------------------------------------------------------------------------------------------




--------------------------------------- Iteration      1(  18)  ---------------------------------------


    POTLOK:  cpu time      1.1506: real time      1.1521
    SETDIJ:  cpu time      0.3062: real time      0.3062
    TRIAL :  cpu time      1.3573: real time      1.3580
    CORREC:  cpu time      2.1138: real time      2.1158
    CHARGE:  cpu time      0.3036: real time      0.3044
    --------------------------------------------
      LOOP:  cpu time      5.2624: real time      5.2675

 eigenvalue-minimisations  :     0
 total energy-change (2. order) :-0.1123350E-03  (-0.3869081E-04)
 number of electron      34.0000000 magnetization 
 augmentation part        0.1471344 magnetization 

 Free energy of the ion-electron system (eV)
  ---------------------------------------------------
  alpha Z        PSCENC =         0.40154822
  Ewald energy   TEWEN  =      2257.36198512
  -Hartree energ DENC   =     -3972.11077677
  -exchange      EXHF   =         0.00000000
  -V(xc)+E(xc)   XCENC  =       164.37835880
  PAW double counting   =     26129.05246947   -26139.50358435
  entropy T*S    EENTRO =        -0.00000000
  eigenvalues    EBANDS =      -550.24409204
  atomic energy  EATOM  =      2048.72835245
  ---------------------------------------------------
  free energy    TOTEN  =       -61.93573909 eV

  energy without entropy =      -61.93573909  energy(sigma->0) =      -61.93573909


--------------------------------------------------------------------------------------------------------




--------------------------------------- Iteration      1(  19)  ---------------------------------------


    POTLOK:  cpu time      1.1482: real time      1.1486
    SETDIJ:  cpu time      0.3094: real time      0.3094
    TRIAL :  cpu time      1.3550: real time      1.3568
    CORREC:  cpu time      2.1126: real time      2.1138
    CHARGE:  cpu time      0.3075: real time      0.3075
    --------------------------------------------
      LOOP:  cpu time      5.2486: real time      5.2681

 eigenvalue-minimisations  :     0
 total energy-change (2. order) :-0.3872315E-04  (-0.1279853E-04)
 number of electron      34.0000000 magnetization 
 augmentation part        0.1471419 magnetization 

 Free energy of the ion-electron system (eV)
  ---------------------------------------------------
  alpha Z        PSCENC =         0.40154822
  Ewald energy   TEWEN  =      2257.36198512
  -Hartree energ DENC   =     -3972.09817543
  -exchange      EXHF   =         0.00000000
  -V(xc)+E(xc)   XCENC  =       164.37706086
  PAW double counting   =     26153.68148867   -26164.13201302
  entropy T*S    EENTRO =        -0.00000000
  eigenvalues    EBANDS =      -550.25602470
  atomic energy  EATOM  =      2048.72835245
  ---------------------------------------------------
  free energy    TOTEN  =       -61.93577781 eV

  energy without entropy =      -61.93577781  energy(sigma->0) =      -61.93577781


--------------------------------------------------------------------------------------------------------




--------------------------------------- Iteration      1(  20)  ---------------------------------------


    POTLOK:  cpu time      1.1962: real time      1.1967
    SETDIJ:  cpu time      0.2596: real time      0.2596
    TRIAL :  cpu time      1.3520: real time      1.3537
    CORREC:  cpu time      2.1139: real time      2.1149
    CHARGE:  cpu time      0.3060: real time      0.3060
    --------------------------------------------
      LOOP:  cpu time      5.2414: real time      5.2609

 eigenvalue-minimisations  :     0
 total energy-change (2. order) :-0.1281329E-04  (-0.4658849E-05)
 number of electron      34.0000000 magnetization 
 augmentation part        0.1471493 magnetization 

 Free energy of the ion-electron system (eV)
  ---------------------------------------------------
  alpha Z        PSCENC =         0.40154822
  Ewald energy   TEWEN  =      2257.36198512
  -Hartree energ DENC   =     -3972.12187049
  -exchange      EXHF   =         0.00000000
  -V(xc)+E(xc)   XCENC  =       164.37822847
  PAW double counting   =     26176.59493320   -26187.04556926
  entropy T*S    EENTRO =        -0.00000000
  eigenvalues    EBANDS =      -550.23339834
  atomic energy  EATOM  =      2048.72835245
  ---------------------------------------------------
  free energy    TOTEN  =       -61.93579063 eV

  energy without entropy =      -61.93579063  energy(sigma->0) =      -61.93579063


--------------------------------------------------------------------------------------------------------




--------------------------------------- Iteration      1(  21)  ---------------------------------------


    POTLOK:  cpu time      1.1695: real time      1.1703
    SETDIJ:  cpu time      0.3104: real time      0.3109
    TRIAL :  cpu time      1.3558: real time      1.3567
    CORREC:  cpu time      2.1141: real time      2.1156
    CHARGE:  cpu time      0.3031: real time      0.3040
    --------------------------------------------
      LOOP:  cpu time      5.2843: real time      5.2890

 eigenvalue-minimisations  :     0
 total energy-change (2. order) :-0.4723352E-05  (-0.1846187E-05)
 number of electron      34.0000000 magnetization 
 augmentation part        0.1471622 magnetization 

 Free energy of the ion-electron system (eV)
  ---------------------------------------------------
  alpha Z        PSCENC =         0.40154822
  Ewald energy   TEWEN  =      2257.36198512
  -Hartree energ DENC   =     -3972.11292157
  -exchange      EXHF   =         0.00000000
  -V(xc)+E(xc)   XCENC  =       164.37770268
  PAW double counting   =     26191.74390609   -26202.19453314
  entropy T*S    EENTRO =        -0.00000000
  eigenvalues    EBANDS =      -550.24183520
  atomic energy  EATOM  =      2048.72835245
  ---------------------------------------------------
  free energy    TOTEN  =       -61.93579535 eV

  energy without entropy =      -61.93579535  energy(sigma->0) =      -61.93579535


--------------------------------------------------------------------------------------------------------




--------------------------------------- Iteration      1(  22)  ---------------------------------------


    POTLOK:  cpu time      1.1516: real time      1.1524
    SETDIJ:  cpu time      0.3067: real time      0.3067
    TRIAL :  cpu time      1.3554: real time      1.3561
    CORREC:  cpu time      2.1155: real time      2.1168
    CHARGE:  cpu time      0.3052: real time      0.3061
    --------------------------------------------
      LOOP:  cpu time      5.2478: real time      5.2692

 eigenvalue-minimisations  :     0
 total energy-change (2. order) :-0.1883138E-05  (-0.7685790E-06)
 number of electron      34.0000000 magnetization 
 augmentation part        0.1471679 magnetization 

 Free energy of the ion-electron system (eV)
  ---------------------------------------------------
  alpha Z        PSCENC =         0.40154822
  Ewald energy   TEWEN  =      2257.36198512
  -Hartree energ DENC   =     -3972.11219426
  -exchange      EXHF   =         0.00000000
  -V(xc)+E(xc)   XCENC  =       164.37766098
  PAW double counting   =     26199.34522533   -26209.79592697
  entropy T*S    EENTRO =        -0.00000000
  eigenvalues    EBANDS =      -550.24244811
  atomic energy  EATOM  =      2048.72835245
  ---------------------------------------------------
  free energy    TOTEN  =       -61.93579723 eV

  energy without entropy =      -61.93579723  energy(sigma->0) =      -61.93579723


--------------------------------------------------------------------------------------------------------




--------------------------------------- Iteration      1(  23)  ---------------------------------------


    POTLOK:  cpu time      1.1516: real time      1.1521
    SETDIJ:  cpu time      0.3057: real time      0.3057
    TRIAL :  cpu time      1.3643: real time      1.3659
    CORREC:  cpu time      2.1133: real time      2.1147
    CHARGE:  cpu time      0.3052: real time      0.3053
    --------------------------------------------
      LOOP:  cpu time      5.2720: real time      5.2758

 eigenvalue-minimisations  :     0
 total energy-change (2. order) :-0.7820418E-06  (-0.3194117E-06)
 number of electron      34.0000000 magnetization 
 augmentation part        0.1471669 magnetization 

 Free energy of the ion-electron system (eV)
  ---------------------------------------------------
  alpha Z        PSCENC =         0.40154822
  Ewald energy   TEWEN  =      2257.36198512
  -Hartree energ DENC   =     -3972.11247666
  -exchange      EXHF   =         0.00000000
  -V(xc)+E(xc)   XCENC  =       164.37769363
  PAW double counting   =     26202.04613696   -26212.49687256
  entropy T*S    EENTRO =        -0.00000000
  eigenvalues    EBANDS =      -550.24216518
  atomic energy  EATOM  =      2048.72835245
  ---------------------------------------------------
  free energy    TOTEN  =       -61.93579801 eV

  energy without entropy =      -61.93579801  energy(sigma->0) =      -61.93579801


--------------------------------------------------------------------------------------------------------




--------------------------------------- Iteration      1(  24)  ---------------------------------------


    POTLOK:  cpu time      1.1505: real time      1.1511
    SETDIJ:  cpu time      0.3065: real time      0.3069
    TRIAL :  cpu time      1.3580: real time      1.3588
    CORREC:  cpu time      2.1158: real time      2.1171
    CHARGE:  cpu time      0.3038: real time      0.3038
    --------------------------------------------
      LOOP:  cpu time      5.2514: real time      5.2721

 eigenvalue-minimisations  :     0
 total energy-change (2. order) :-0.3229034E-06  (-0.1670304E-06)
 number of electron      34.0000000 magnetization 
 augmentation part        0.1471681 magnetization 

 Free energy of the ion-electron system (eV)
  ---------------------------------------------------
  alpha Z        PSCENC =         0.40154822
  Ewald energy   TEWEN  =      2257.36198512
  -Hartree energ DENC   =     -3972.10860322
  -exchange      EXHF   =         0.00000000
  -V(xc)+E(xc)   XCENC  =       164.37750824
  PAW double counting   =     26202.12846804   -26212.57917495
  entropy T*S    EENTRO =        -0.00000000
  eigenvalues    EBANDS =      -550.24588226
  atomic energy  EATOM  =      2048.72835245
  ---------------------------------------------------
  free energy    TOTEN  =       -61.93579834 eV

  energy without entropy =      -61.93579834  energy(sigma->0) =      -61.93579834


--------------------------------------------------------------------------------------------------------




--------------------------------------- Iteration      1(  25)  ---------------------------------------


    POTLOK:  cpu time      1.1509: real time      1.1524
    SETDIJ:  cpu time      0.3063: real time      0.3063
    TRIAL :  cpu time      1.3537: real time      1.3546
    CORREC:  cpu time      2.1149: real time      2.1169
    CHARGE:  cpu time      0.3062: real time      0.3072
    --------------------------------------------
      LOOP:  cpu time      5.2466: real time      5.2693

 eigenvalue-minimisations  :     0
 total energy-change (2. order) :-0.1469816E-06  (-0.6930300E-07)
 number of electron      34.0000000 magnetization 
 augmentation part        0.1471661 magnetization 

 Free energy of the ion-electron system (eV)
  ---------------------------------------------------
  alpha Z        PSCENC =         0.40154822
  Ewald energy   TEWEN  =      2257.36198512
  -Hartree energ DENC   =     -3972.11057516
  -exchange      EXHF   =         0.00000000
  -V(xc)+E(xc)   XCENC  =       164.37763569
  PAW double counting   =     26200.98822914   -26211.43895766
  entropy T*S    EENTRO =        -0.00000000
  eigenvalues    EBANDS =      -550.24401630
  atomic energy  EATOM  =      2048.72835245
  ---------------------------------------------------
  free energy    TOTEN  =       -61.93579848 eV

  energy without entropy =      -61.93579848  energy(sigma->0) =      -61.93579848


--------------------------------------------------------------------------------------------------------




--------------------------------------- Iteration      1(  26)  ---------------------------------------


    POTLOK:  cpu time      1.1535: real time      1.1540
    SETDIJ:  cpu time      0.3930: real time      0.3930
    TRIAL :  cpu time      1.3571: real time      1.3586
    CORREC:  cpu time      2.1127: real time      2.1140
    EDDIAG:  cpu time      0.3601: real time      0.3610
    CHARGE:  cpu time      0.3049: real time      0.3049
    --------------------------------------------
      LOOP:  cpu time      5.7135: real time      5.7181

 eigenvalue-minimisations  :     0
 total energy-change (2. order) :-0.5570473E-07  (-0.9725832E-07)
 number of electron      34.0000000 magnetization 
 augmentation part        0.1471658 magnetization 

 Free energy of the ion-electron system (eV)
  ---------------------------------------------------
  alpha Z        PSCENC =         0.40154822
  Ewald energy   TEWEN  =      2257.36198512
  -Hartree energ DENC   =     -3972.10851007
  -exchange      EXHF   =         0.00000000
  -V(xc)+E(xc)   XCENC  =       164.37753051
  PAW double counting   =     26199.78484924   -26210.23556494
  entropy T*S    EENTRO =        -0.00000000
  eigenvalues    EBANDS =      -550.24598908
  atomic energy  EATOM  =      2048.72835245
  ---------------------------------------------------
  free energy    TOTEN  =       -61.93579854 eV

  energy without entropy =      -61.93579854  energy(sigma->0) =      -61.93579854


--------------------------------------------------------------------------------------------------------


  average scaling for gradient   0.7844


 average (electrostatic) potential at core
  the test charge radii are     0.5770  0.4325  0.5955
  (the norm of the test charge is              1.0000)
       1 -92.7818       2 -92.7813       3 -51.1022       4 -51.1034       5-124.2384
       6-124.2384       7-125.6647       8-125.6639



 E-fermi :  -7.3546     XC(G=0):  -0.1378     alpha+bet : -0.0741

 Fermi energy:        -7.3545620238

 k-point     1 :       0.0000    0.0000    0.0000
  band No.  band energies     occupation 
      1     -30.5932      2.00000
      2     -29.7735      2.00000
      3     -28.3906      2.00000
      4     -27.8107      2.00000
      5     -18.3568      2.00000
      6     -16.5909      2.00000
      7     -16.3915      2.00000
      8     -13.1280      2.00000
      9     -12.8983      2.00000
     10     -12.2533      2.00000
     11     -12.1112      2.00000
     12     -11.5913      2.00000
     13     -10.2094      2.00000
     14      -9.3263      2.00000
     15      -9.2444      2.00000
     16      -9.0242      2.00000
     17      -7.4289      2.00000
     18      -3.4565      0.00000
     19      -0.4814      0.00000
     20       0.1285      0.00000
     21       0.2004      0.00000
     22       0.4374      0.00000
     23       0.4935      0.00000
     24       1.6332      0.00000


--------------------------------------------------------------------------------------------------------


 soft charge-density along one line, spin component           1
         0         1         2         3         4         5         6         7         8         9
 total charge-density along one line

 pseudopotential strength for first ion, spin component:           1
 12.809  21.557  -0.010  -0.004   0.001  -0.018  -0.008   0.001
 21.557  36.277  -0.016  -0.007   0.001  -0.030  -0.013   0.002
 -0.010  -0.016  -3.315   0.001   0.001  -5.945   0.002   0.002
 -0.004  -0.007   0.001  -3.315  -0.005   0.002  -5.945  -0.009
  0.001   0.001   0.001  -0.005  -3.316   0.002  -0.009  -5.946
 -0.018  -0.030  -5.945   0.002   0.002 -10.638   0.004   0.003
 -0.008  -0.013   0.002  -5.945  -0.009   0.004 -10.639  -0.016
  0.001   0.002   0.002  -0.009  -5.946   0.003  -0.016 -10.641
 total augmentation occupancy for first ion, spin component:           1
 10.595  -4.210  -0.019  -1.702   1.589   0.034   0.799  -0.737
 -4.210   1.776   0.092   0.863  -0.775  -0.036  -0.391   0.353
 -0.019   0.092   8.302  -0.469   2.187  -3.113   0.242  -0.980
 -1.702   0.863  -0.469   6.421  -2.874   0.241  -2.243   1.199
  1.589  -0.775   2.187  -2.874   7.047  -0.980   1.199  -2.547
  0.034  -0.036  -3.113   0.241  -0.980   1.196  -0.117   0.432
  0.799  -0.391   0.242  -2.243   1.199  -0.117   0.812  -0.506
 -0.737   0.353  -0.980   1.199  -2.547   0.432  -0.506   0.953


------------------------ aborting loop because EDIFF is reached ----------------------------------------


    FORLOC:  cpu time      0.0224: real time      0.0224
    FORNL :  cpu time      0.0198: real time      0.0202
    FORCOR:  cpu time      1.2957: real time      1.2968
    OFIELD:  cpu time      0.0049: real time      0.0052

 VOLUME and BASIS-vectors are now :
 -----------------------------------------------------------------------------
  energy-cutoff  :     1000.00
  volume of cell :     8000.00
      direct lattice vectors                 reciprocal lattice vectors
    20.000000000  0.000000000  0.000000000     0.050000000  0.000000000  0.000000000
     0.000000000 20.000000000  0.000000000     0.000000000  0.050000000  0.000000000
     0.000000000  0.000000000 20.000000000     0.000000000  0.000000000  0.050000000

  length of vectors
    20.000000000 20.000000000 20.000000000     0.050000000  0.050000000  0.050000000


 FORCES acting on ions:
    Electron-Ion                     Ewald-Force                    Non-Local-Force
 -----------------------------------------------------------------------------------------------
   0.666E+01 0.278E+02 0.347E+01   -.588E+01 -.210E+02 -.165E+01   -.642E+00 -.697E+01 -.205E+01
   -.685E+01 -.276E+02 -.354E+01   0.607E+01 0.209E+02 0.172E+01   0.646E+00 0.697E+01 0.203E+01
   0.716E+02 0.604E+02 -.529E+02   -.771E+02 -.615E+02 0.583E+02   0.579E+01 0.121E+01 -.570E+01
   -.716E+02 -.604E+02 0.529E+02   0.771E+02 0.615E+02 -.583E+02   -.579E+01 -.122E+01 0.571E+01
   -.290E+03 -.101E+03 0.269E+03   0.329E+03 0.122E+03 -.302E+03   -.391E+02 -.214E+02 0.333E+02
   0.290E+03 0.101E+03 -.270E+03   -.329E+03 -.122E+03 0.302E+03   0.391E+02 0.213E+02 -.333E+02
   0.308E+02 0.351E+03 0.105E+03   -.155E+02 -.389E+03 -.136E+03   -.155E+02 0.387E+02 0.317E+02
   -.307E+02 -.351E+03 -.104E+03   0.153E+02 0.390E+03 0.136E+03   0.155E+02 -.387E+02 -.317E+02
 -----------------------------------------------------------------------------------------------
   -.514E-01 0.311E-01 -.131E-01   -.107E-13 0.568E-13 0.000E+00   0.517E-01 -.310E-01 0.131E-01


 POSITION                                       TOTAL-FORCE (eV/Angst)
 -----------------------------------------------------------------------------------
     10.36587      9.59569      9.45312         0.281974     -0.082724     -0.341870
      9.63408     10.40374     10.54674        -0.276391      0.087304      0.331438
      9.27416      8.21411     10.07710         0.312198      0.101975     -0.297364
     10.72505     11.78589      9.92217        -0.308006     -0.104135      0.291902
     11.21197     10.09969      8.74899        -0.639634     -0.366308      0.538990
      8.78803      9.90032     11.25101         0.630599      0.354906     -0.531517
      9.96469      8.32590      9.38345        -0.100729      0.526855      0.321740
     10.03446     11.67365     10.61543         0.099990     -0.517873     -0.313320
 -----------------------------------------------------------------------------------
    total drift:                                0.000267      0.000069     -0.000050


--------------------------------------------------------------------------------------------------------



  FREE ENERGIE OF THE ION-ELECTRON SYSTEM (eV)
  ---------------------------------------------------
  free  energy   TOTEN  =       -61.93579854 eV

  energy  without entropy=      -61.93579854  energy(sigma->0) =      -61.93579854



--------------------------------------------------------------------------------------------------------


    POTLOK:  cpu time      1.4678: real time      1.4683


--------------------------------------------------------------------------------------------------------


 stress matrix after NEB project (eV)
      0.00000      0.00000      0.00000
      0.00000      0.00000      0.00000
      0.00000      0.00000      0.00000
  FORCES: max atom, RMS     0.913139    0.631649
  FORCE total and by dimension    1.786574    0.639634
  Stress total and by dimension    0.000000    0.000000
     LOOP+:  cpu time    124.5276: real time    124.8704
    4ORBIT:  cpu time      0.0000: real time      0.0000

 total amount of memory used by VASP MPI-rank0    99759. kBytes
=======================================================================

   base      :      30000. kBytes
   nonl-proj :       2874. kBytes
   fftplans  :      17846. kBytes
   grid      :      47745. kBytes
   one-center:          1. kBytes
   wavefun   :       1293. kBytes

  
  
 General timing and accounting informations for this job:
 ========================================================
  
                  Total CPU time used (sec):      147.854
                            User time (sec):      144.147
                          System time (sec):        3.707
                         Elapsed time (sec):      152.809
  
                   Maximum memory used (kb):      296396.
                   Average memory used (kb):          N/A
  
                          Minor page faults:        49343
                          Major page faults:          469
                 Voluntary context switches:         6178
