 vasp.6.4.1 05Apr23 (build Jun  6 2023 14:46:38) gamma-only                      
 executed on        HPECrayEX_GCC date 2024.08.27  09:27:14
 running  512 mpi-ranks, with    1 threads/rank, on    4 nodes
 distrk:  each k-point on  256 cores,    2 groups
 distr:  one band on NCORE=  32 cores,    8 groups


--------------------------------------------------------------------------------------------------------


 INCAR:
   ALGO = Conjugate
   KPAR = 2
   NCORE = 32
   ISMEAR = 0
   SIGMA = 0.01
   PREC = Accurate
   EDIFF = 1E-7
   ENCUT = 1000
   ISIF = 0
   METAGGA = SCAN
   LASPH = .TRUE.
   SYMPREC = 1E-7
   LWAVE = .FALSE.
   LCHARG = .FALSE.

 POTCAR:    PAW_PBE C_h 06Feb2004                 
 POTCAR:    PAW_PBE H_h 06Feb2004                 
 POTCAR:    PAW_PBE O_h 06Feb2004                 
 POTCAR:    PAW_PBE C_h 06Feb2004                 
   VRHFIN =C: s2p2                                                                                  
   LEXCH  = PE                                                                                      
   EATOM  =   147.1560 eV,   10.8157 Ry                                                             
                                                                                                    
   TITEL  = PAW_PBE C_h 06Feb2004                                                                   
   LULTRA =        F    use ultrasoft PP ?                                                          
   IUNSCR =        1    unscreen: 0-lin 1-nonlin 2-no                                               
   RPACOR =    0.800    partial core radius                                                         
   POMASS =   12.011; ZVAL   =    4.000    mass and valenz                                          
   RCORE  =    1.100    outmost cutoff radius                                                       
   RWIGS  =    1.630; RWIGS  =    0.863    wigner-seitz radius (au A)                               
   ENMAX  =  700.000; ENMIN  =  500.000 eV                                                          
   ICORE  =        2    local potential                                                             
   LCOR   =        T    correct aug charges                                                         
   LPAW   =        T    paw PP                                                                      
   EAUG   =  946.768                                                                                
   DEXC   =    0.000                                                                                
   RMAX   =    1.128    core radius for proj-oper                                                   
   RAUG   =    1.300    factor for augmentation sphere                                              
   RDEP   =    1.162    radius for radial grids                                                     
   RDEPT  =    1.088    core radius for aug-charge                                                  
                                                                                                    
   Atomic configuration                                                                             
    4 entries                                                                                       
     n  l   j            E        occ.                                                              
     1  0  0.50      -273.3789   2.0000                                                             
     2  0  0.50       -13.7508   2.0000                                                             
     2  1  0.50        -5.2854   2.0000                                                             
     3  2  1.50        -5.4423   0.0000                                                             
   Description                                                                                      
     l       E           TYP  RCUT    TYP  RCUT                                                     
     0    -13.7508458     23  1.100                                                                 
     0     -8.2022199     23  1.100                                                                 
     1     -5.2854383     23  1.100                                                                 
     1      1.1560700     23  1.100                                                                 
     2     -5.4423304      7  1.100                                                                 
  local pseudopotential read in
  partial core-charges read in
  partial kinetic energy density read in
  atomic valenz-charges read in
  non local Contribution for L=           0  read in
    real space projection operators read in
  non local Contribution for L=           0  read in
    real space projection operators read in
  non local Contribution for L=           1  read in
    real space projection operators read in
  non local Contribution for L=           1  read in
    real space projection operators read in
    PAW grid and wavefunctions read in

   number of l-projection  operators is LMAX  =           4
   number of lm-projection operators is LMMAX =           8

 POTCAR:    PAW_PBE H_h 06Feb2004                 
   VRHFIN =H: ultrasoft test                                                                        
   LEXCH  = PE                                                                                      
   EATOM  =    12.4884 eV,    0.9179 Ry                                                             
                                                                                                    
   TITEL  = PAW_PBE H_h 06Feb2004                                                                   
   LULTRA =        F    use ultrasoft PP ?                                                          
   IUNSCR =        0    unscreen: 0-lin 1-nonlin 2-no                                               
   RPACOR =    0.000    partial core radius                                                         
   POMASS =    1.000; ZVAL   =    1.000    mass and valenz                                          
   RCORE  =    0.800    outmost cutoff radius                                                       
   RWIGS  =    0.700; RWIGS  =    0.370    wigner-seitz radius (au A)                               
   ENMAX  =  700.000; ENMIN  =  350.000 eV                                                          
   RCLOC  =    0.701    cutoff for local pot                                                        
   LCOR   =        T    correct aug charges                                                         
   LPAW   =        T    paw PP                                                                      
   EAUG   = 1000.000                                                                                
   RMAX   =    0.819    core radius for proj-oper                                                   
   RAUG   =    1.000    factor for augmentation sphere                                              
   RDEP   =    0.817    radius for radial grids                                                     
   RDEPT  =    0.817    core radius for aug-charge                                                  
                                                                                                    
   Atomic configuration                                                                             
    2 entries                                                                                       
     n  l   j            E        occ.                                                              
     1  0  0.50        -6.4927   1.0000                                                             
     2  1  0.50        -3.4015   0.0000                                                             
   Description                                                                                      
     l       E           TYP  RCUT    TYP  RCUT                                                     
     0     -6.4927493     23  0.800                                                                 
     0      6.8029130     23  0.800                                                                 
     1     -6.8029130     23  0.800                                                                 
  local pseudopotential read in
  atomic valenz-charges read in
  non local Contribution for L=           0  read in
    real space projection operators read in
  non local Contribution for L=           0  read in
    real space projection operators read in
  non local Contribution for L=           1  read in
    real space projection operators read in
    PAW grid and wavefunctions read in

   number of l-projection  operators is LMAX  =           3
   number of lm-projection operators is LMMAX =           5

 POTCAR:    PAW_PBE O_h 06Feb2004                 
   VRHFIN =O: s2p4                                                                                  
   LEXCH  = PE                                                                                      
   EATOM  =   432.3788 eV,   31.7789 Ry                                                             
                                                                                                    
   TITEL  = PAW_PBE O_h 06Feb2004                                                                   
   LULTRA =        F    use ultrasoft PP ?                                                          
   IUNSCR =        1    unscreen: 0-lin 1-nonlin 2-no                                               
   RPACOR =    0.800    partial core radius                                                         
   POMASS =   16.000; ZVAL   =    6.000    mass and valenz                                          
   RCORE  =    1.100    outmost cutoff radius                                                       
   RWIGS  =    1.400; RWIGS  =    0.741    wigner-seitz radius (au A)                               
   ENMAX  =  700.000; ENMIN  =  500.000 eV                                                          
   ICORE  =        2    local potential                                                             
   LCOR   =        T    correct aug charges                                                         
   LPAW   =        T    paw PP                                                                      
   EAUG   =  888.804                                                                                
   DEXC   =    0.000                                                                                
   RMAX   =    1.128    core radius for proj-oper                                                   
   RAUG   =    1.300    factor for augmentation sphere                                              
   RDEP   =    1.125    radius for radial grids                                                     
   RDEPT  =    1.088    core radius for aug-charge                                                  
                                                                                                    
   Atomic configuration                                                                             
    4 entries                                                                                       
     n  l   j            E        occ.                                                              
     1  0  0.50      -514.6923   2.0000                                                             
     2  0  0.50       -23.9615   2.0000                                                             
     2  1  0.50        -9.0305   4.0000                                                             
     3  2  1.50        -9.5241   0.0000                                                             
   Description                                                                                      
     l       E           TYP  RCUT    TYP  RCUT                                                     
     0    -23.9615319     23  1.100                                                                 
     0    -25.3221145     23  1.100                                                                 
     1     -9.0304911     23  1.100                                                                 
     1     -5.4802209     23  1.100                                                                 
     2     -9.5240782      7  1.100                                                                 
  local pseudopotential read in
  partial core-charges read in
  partial kinetic energy density read in
  atomic valenz-charges read in
  non local Contribution for L=           0  read in
    real space projection operators read in
  non local Contribution for L=           0  read in
    real space projection operators read in
  non local Contribution for L=           1  read in
    real space projection operators read in
  non local Contribution for L=           1  read in
    real space projection operators read in
    PAW grid and wavefunctions read in

   number of l-projection  operators is LMAX  =           4
   number of lm-projection operators is LMMAX =           8

  PAW_PBE C_h 06Feb2004                 :
 energy of atom  1       EATOM= -147.1560
 kinetic energy error for atom=    0.0031 (will be added to EATOM!!)
  PAW_PBE H_h 06Feb2004                 :
 energy of atom  2       EATOM=  -12.4884
 kinetic energy error for atom=    0.0006 (will be added to EATOM!!)
  PAW_PBE O_h 06Feb2004                 :
 energy of atom  3       EATOM= -432.3788
 kinetic energy error for atom=    0.0171 (will be added to EATOM!!)


 POSCAR:  C  H  O
  positions in cartesian coordinates
  No initial velocities read in

 METAGGA = SCAN                                        LMAXTAU =  6    LMIXTAU =  F

 exchange correlation table for  LEXCH =        8
   RHO(1)=    0.500       N(1)  =     2000
   RHO(2)=  100.500       N(2)  =     4000

 VTST: version 4.1, (05/19/21)

 CHAIN: initializing optimizer
 
 OPT: Using VASP Dynamics algorithm
 CHAIN: Read ICHAIN            0

 POSCAR:  C  H  O
  positions in cartesian coordinates
  No initial velocities read in



--------------------------------------------------------------------------------------------------------


 ion  position               nearest neighbor table
   1  0.518  0.480  0.473-   5 1.21   7 1.33   2 1.54
   2  0.482  0.520  0.527-   6 1.21   8 1.33   1 1.54
   3  0.464  0.411  0.504-   7 0.99
   4  0.536  0.589  0.496-   8 0.98
   5  0.561  0.505  0.437-   1 1.21
   6  0.439  0.495  0.563-   2 1.21
   7  0.498  0.416  0.469-   3 0.99   1 1.33
   8  0.502  0.584  0.531-   4 0.98   2 1.33

  LATTYP: Found a simple cubic cell.
 ALAT       =    20.0000000000
  
  Lattice vectors:
  
 A1 = (  20.0000000000,   0.0000000000,   0.0000000000)
 A2 = (   0.0000000000,  20.0000000000,   0.0000000000)
 A3 = (   0.0000000000,   0.0000000000,  20.0000000000)


Analysis of symmetry for initial positions (statically):
=====================================================================
 Subroutine PRICEL returns:
 Original cell was already a primitive cell.
 

 Routine SETGRP: Setting up the symmetry group for a 
 simple cubic supercell.


 Subroutine GETGRP returns: Found  1 space group operations
 (whereof  1 operations were pure point group operations)
 out of a pool of 48 trial point group operations.


The static configuration has the point symmetry C_1 .


Analysis of symmetry for dynamics (positions and initial velocities):
=====================================================================
 Subroutine PRICEL returns:
 Original cell was already a primitive cell.
 

 Routine SETGRP: Setting up the symmetry group for a 
 simple cubic supercell.


 Subroutine GETGRP returns: Found  1 space group operations
 (whereof  1 operations were pure point group operations)
 out of a pool of 48 trial point group operations.


The dynamic configuration has the point symmetry C_1 .


 Subroutine INISYM returns: Found  1 space group operations
 (whereof  1 operations are pure point group operations),
 and found     1 'primitive' translations


----------------------------------------------------------------------------------------

                                     Primitive cell                                     

  volume of cell :    8000.0000

  direct lattice vectors                    reciprocal lattice vectors
    20.000000000  0.000000000  0.000000000     0.050000000  0.000000000  0.000000000
     0.000000000 20.000000000  0.000000000     0.000000000  0.050000000  0.000000000
     0.000000000  0.000000000 20.000000000     0.000000000  0.000000000  0.050000000

  length of vectors
    20.000000000 20.000000000 20.000000000     0.050000000  0.050000000  0.050000000

  position of ions in fractional coordinates (direct lattice)
     0.518293500  0.479784500  0.472655750
     0.481704000  0.520187000  0.527336750
     0.463708000  0.410705500  0.503854750
     0.536252500  0.589294500  0.496108750
     0.560598500  0.504984500  0.437449750
     0.439401500  0.495016000  0.562550250
     0.498234500  0.416295000  0.469172750
     0.501723000  0.583682500  0.530771250

  ion indices of the primitive-cell ions
   primitive index   ion index
                 1           1
                 2           2
                 3           3
                 4           4
                 5           5
                 6           6
                 7           7
                 8           8

----------------------------------------------------------------------------------------



 KPOINTS: auto                                    

Automatic generation of k-mesh.
 Grid dimensions read from file:
 generate k-points for:    1    1    1

 Generating k-lattice:

  Cartesian coordinates                     Fractional coordinates (reciprocal lattice)
     0.050000000  0.000000000  0.000000000     1.000000000  0.000000000  0.000000000
     0.000000000  0.050000000  0.000000000     0.000000000  1.000000000  0.000000000
     0.000000000  0.000000000  0.050000000     0.000000000  0.000000000  1.000000000

  Length of vectors
     0.050000000  0.050000000  0.050000000

  Shift w.r.t. Gamma in fractional coordinates (k-lattice)
     0.000000000  0.000000000  0.000000000

 
 Subroutine IBZKPT returns following result:
 ===========================================
 
 Found      1 irreducible k-points:
 
 Following reciprocal coordinates:
            Coordinates               Weight
  0.000000  0.000000  0.000000      1.000000
 
 Following cartesian coordinates:
            Coordinates               Weight
  0.000000  0.000000  0.000000      1.000000
 


--------------------------------------------------------------------------------------------------------




 Dimension of arrays:
   k-points           NKPTS =      1   k-points in BZ     NKDIM =      1   number of bands    NBANDS=     24
   number of dos      NEDOS =    301   number of ions     NIONS =      8
   non local maximal  LDIM  =      4   non local SUM 2l+1 LMDIM =      8
   total plane-waves  NPLWV = ******
   max r-space proj   IRMAX =      1   max aug-charges    IRDMAX=   8641
   dimension x,y,z NGX =   210 NGY =  210 NGZ =  210
   dimension x,y,z NGXF=   420 NGYF=  420 NGZF=  420
   support grid    NGXF=   420 NGYF=  420 NGZF=  420
   ions per type =               2   2   4
   NGX,Y,Z   is equivalent  to a cutoff of  17.46, 17.46, 17.46 a.u.
   NGXF,Y,Z  is equivalent  to a cutoff of  34.91, 34.91, 34.91 a.u.

 SYSTEM =  unknown system                          
 POSCAR =   C  H  O                                

 Startparameter for this run:
   NWRITE =      2    write-flag & timer
   PREC   = accura    normal or accurate (medium, high low for compatibility)
   ISTART =      0    job   : 0-new  1-cont  2-samecut
   ICHARG =      2    charge: 1-file 2-atom 10-const
   ISPIN  =      1    spin polarized calculation?
   LNONCOLLINEAR =      F non collinear calculations
   LSORBIT =      F    spin-orbit coupling
   INIWAV =      1    electr: 0-lowe 1-rand  2-diag
   LASPH  =      T    aspherical Exc in radial PAW
 Electronic Relaxation 1
   ENCUT  = 1000.0 eV  73.50 Ry    8.57 a.u.  51.57 51.57 51.57*2*pi/ulx,y,z
   ENINI  = 1000.0     initial cutoff
   ENAUG  = 1000.0 eV  augmentation charge cutoff
   NELM   =     60;   NELMIN=  2; NELMDL= -5     # of ELM steps 
   EDIFF  = 0.1E-06   stopping-criterion for ELM
   LREAL  =      F    real-space projection
   NLSPLINE    = F    spline interpolate recip. space projectors
   LCOMPAT=      F    compatible to vasp.4.4
   GGA_COMPAT  = T    GGA compatible to vasp.4.4-vasp.4.6
   LMAXPAW     = -100 max onsite density
   LMAXMIX     =    2 max onsite mixed and CHGCAR
   VOSKOWN=      0    Vosko Wilk Nusair interpolation
   ROPT   =    0.00000   0.00000   0.00000
 Ionic relaxation
   EDIFFG = 0.1E-05   stopping-criterion for IOM
   NSW    =      0    number of steps for IOM
   NBLOCK =      1;   KBLOCK =      1    inner block; outer block 
   IBRION =     -1    ionic relax: 0-MD 1-quasi-New 2-CG
   NFREE  =      0    steps in history (QN), initial steepest desc. (CG)
   ISIF   =      0    stress and relaxation
   IWAVPR =     10    prediction:  0-non 1-charg 2-wave 3-comb
   ISYM   =      2    0-nonsym 1-usesym 2-fastsym
   LCORR  =      T    Harris-Foulkes like correction to forces

   POTIM  = 0.5000    time-step for ionic-motion
   TEIN   =    0.0    initial temperature
   TEBEG  =    0.0;   TEEND  =   0.0 temperature during run
   SMASS  =  -3.00    Nose mass-parameter (am)
   estimated Nose-frequenzy (Omega)   =  0.10E-29 period in steps = 0.13E+47 mass=  -0.914E-26a.u.
   SCALEE = 1.0000    scale energy and forces
   NPACO  =    256;   APACO  = 10.0  distance and # of slots for P.C.
   PSTRESS=    0.0 pullay stress

  Mass of Ions in am
   POMASS =  12.01  1.00 16.00
  Ionic Valenz
   ZVAL   =   4.00  1.00  6.00
  Atomic Wigner-Seitz radii
   RWIGS  =  -1.00 -1.00 -1.00
  virtual crystal weights 
   VCA    =   1.00  1.00  1.00
   NELECT =      34.0000    total number of electrons
   NUPDOWN=      -1.0000    fix difference up-down

 DOS related values:
   EMIN   =  10.00;   EMAX   =-10.00  energy-range for DOS
   EFERMI =   0.00;   METHOD = LEGACY      
   ISMEAR =     0;   SIGMA  =   0.01  broadening in eV -4-tet -1-fermi 0-gaus

 Electronic relaxation 2 (details)
   IALGO  =     58    algorithm
   LDIAG  =      T    sub-space diagonalisation (order eigenvalues)
   LSUBROT=      F    optimize rotation matrix (better conditioning)
   TURBO    =      0    0=normal 1=particle mesh
   IRESTART =      0    0=no restart 2=restart with 2 vectors
   NREBOOT  =      0    no. of reboots
   NMIN     =      0    reboot dimension
   EREF     =   0.00    reference energy to select bands
   IMIX   =      4    mixing-type and parameters
     AMIX     =   0.40;   BMIX     =  1.00
     AMIX_MAG =   1.60;   BMIX_MAG =  1.00
     AMIN     =   0.10
     WC   =   100.;   INIMIX=   1;  MIXPRE=   1;  MAXMIX= -45

 Intra band minimization:
   WEIMIN = 0.0000     energy-eigenvalue tresh-hold
   EBREAK =  0.10E-08  absolut break condition
   DEPER  =   0.30     relativ break condition  

   TIME   =   0.40     timestep for ELM

  volume/ion in A,a.u.               =    1000.00      6748.33
  Fermi-wavevector in a.u.,A,eV,Ry     =   0.265178  0.501114  0.956755  0.070319
  Thomas-Fermi vector in A             =   1.098052

 Write flags
   LWAVE        =      F    write WAVECAR
   LDOWNSAMPLE  =      F    k-point downsampling of WAVECAR
   LCHARG       =      F    write CHGCAR
   LVTOT        =      F    write LOCPOT, total local potential
   LVHAR        =      F    write LOCPOT, Hartree potential only
   LELF         =      F    write electronic localiz. function (ELF)
   LORBIT       =      0    0 simple, 1 ext, 2 COOP (PROOUT), +10 PAW based schemes


 Dipole corrections
   LMONO  =      F    monopole corrections only (constant potential shift)
   LDIPOL =      F    correct potential (dipole corrections)
   IDIPOL =      0    1-x, 2-y, 3-z, 4-all directions 
   EPSILON=  1.0000000 bulk dielectric constant

 Exchange correlation treatment:
   GGA     =    --    GGA type
   LEXCH   =     8    internal setting for exchange type
   LIBXC   =     F    Libxc                    
   VOSKOWN =     0    Vosko Wilk Nusair interpolation
   LHFCALC =     F    Hartree Fock is set to
   LHFONE  =     F    Hartree Fock one center treatment
   AEXX    =    0.0000 exact exchange contribution

 Linear response parameters
   LEPSILON=     F    determine dielectric tensor
   LRPA    =     F    only Hartree local field effects (RPA)
   LNABLA  =     F    use nabla operator in PAW spheres
   LVEL    =     F    velocity operator in full k-point grid
   CSHIFT  =0.1000    complex shift for real part using Kramers Kronig
   OMEGAMAX=  -1.0    maximum frequency
   DEG_THRESHOLD= 0.2000000E-02 threshold for treating states as degnerate
   RTIME   =   -0.100 relaxation time in fs
  (WPLASMAI=    0.000 imaginary part of plasma frequency in eV, 0.658/RTIME)
   DFIELD  = 0.0000000 0.0000000 0.0000000 field for delta impulse in time

  Optional k-point grid parameters
   LKPOINTS_OPT  =     F    use optional k-point grid
   KPOINTS_OPT_MODE=     1    mode for optional k-point grid

 Orbital magnetization related:
   ORBITALMAG=     F  switch on orbital magnetization
   LCHIMAG   =     F  perturbation theory with respect to B field
   DQ        =  0.001000  dq finite difference perturbation B field
   LLRAUG    =     F  two centre corrections for induced B field
   LBONE     =     F  B-component reconstruction in AE one-centre
   LVGVCALC  =     T  calculate vGv susceptibility
   LVGVAPPL  =     F  apply vGv susceptibility instead of pGv for G=0

 Random number generation:
   RANDOM_GENERATOR = DEFAULT
   PCG_SEED         = not used


--------------------------------------------------------------------------------------------------------


 Static calculation
 charge density and potential will be updated during run
 non-spin polarized calculation
 Conjugate gradient for all bands (Freysoldt, et al. PRB 79, 241103 (2009))
 preconditioned conjugated gradient                                        
 perform sub-space diagonalisation
    before iterative eigenvector-optimisation
 modified Broyden-mixing scheme, WC =      100.0
 initial mixing is a Kerker type mixing with AMIX =  0.4000 and BMIX =      1.0000
 Hartree-type preconditioning will be used
 using additional bands            7
 reciprocal scheme for non local part
 use partial core corrections
 no Harris-corrections to forces 
 use gradient corrections 
 use of overlap-Matrix (Vanderbilt PP)
 Gauss-broadening in eV      SIGMA  =   0.01


--------------------------------------------------------------------------------------------------------


  energy-cutoff  :     1000.00
  volume of cell :     8000.00
      direct lattice vectors                 reciprocal lattice vectors
    20.000000000  0.000000000  0.000000000     0.050000000  0.000000000  0.000000000
     0.000000000 20.000000000  0.000000000     0.000000000  0.050000000  0.000000000
     0.000000000  0.000000000 20.000000000     0.000000000  0.000000000  0.050000000

  length of vectors
    20.000000000 20.000000000 20.000000000     0.050000000  0.050000000  0.050000000



 k-points in units of 2pi/SCALE and weight: auto                                    
   0.00000000  0.00000000  0.00000000       1.000

 k-points in reciprocal lattice and weights: auto                                    
   0.00000000  0.00000000  0.00000000       1.000

 position of ions in fractional coordinates (direct lattice) 
   0.51829350  0.47978450  0.47265575
   0.48170400  0.52018700  0.52733675
   0.46370800  0.41070550  0.50385475
   0.53625250  0.58929450  0.49610875
   0.56059850  0.50498450  0.43744975
   0.43940150  0.49501600  0.56255025
   0.49823450  0.41629500  0.46917275
   0.50172300  0.58368250  0.53077125

 position of ions in cartesian coordinates  (Angst):
  10.36587000  9.59569000  9.45311500
   9.63408000 10.40374000 10.54673500
   9.27416000  8.21411000 10.07709500
  10.72505000 11.78589000  9.92217500
  11.21197000 10.09969000  8.74899500
   8.78803000  9.90032000 11.25100500
   9.96469000  8.32590000  9.38345500
  10.03446000 11.67365000 10.61542500



--------------------------------------------------------------------------------------------------------


 use parallel FFT for orbitals z direction half grid
 k-point   1 :   0.0000 0.0000 0.0000  plane waves:  287166

 maximum and minimum number of plane-waves per node :      8979     8970

 maximum number of plane-waves:    287166
 maximum index in each direction: 
   IXMAX=   51   IYMAX=   51   IZMAX=   51
   IXMIN=  -51   IYMIN=  -51   IZMIN=    0


 parallel 3D FFT for wavefunctions:
    minimum data exchange during FFTs selected (reduces bandwidth)
 parallel 3D FFT for charge:
    minimum data exchange during FFTs selected (reduces bandwidth)


 total amount of memory used by VASP MPI-rank0    99759. kBytes
=======================================================================

   base      :      30000. kBytes
   nonl-proj :       2874. kBytes
   fftplans  :      17846. kBytes
   grid      :      47745. kBytes
   one-center:          1. kBytes
   wavefun   :       1293. kBytes

     INWAV:  cpu time      0.0000: real time      0.0000
 Broyden mixing: mesh for mixing (old mesh)
   NGX =103   NGY =103   NGZ =103
  (NGX  =420   NGY  =420   NGZ  =420)
  gives a total of ****** points

 initial charge density was supplied:
 charge density of overlapping atoms calculated
 number of electron      34.0000000 magnetization 
 keeping initial charge density in first step


--------------------------------------------------------------------------------------------------------


 Maximum index for augmentation-charges            0 (set IRDMAX)


--------------------------------------------------------------------------------------------------------


 First call to EWALD:  gamma=   0.089
 Maximum number of real-space cells 3x 3x 3
 Maximum number of reciprocal cells 3x 3x 3

    FEWALD:  cpu time      0.0046: real time      0.0046


--------------------------------------- Ionic step        1  -------------------------------------------




--------------------------------------- Iteration      1(   1)  ---------------------------------------


    POTLOK:  cpu time      1.1681: real time      1.1700
    SETDIJ:  cpu time      0.2685: real time      0.2692
    TRIAL :  cpu time      1.7697: real time      1.7778
    CORREC:  cpu time      0.0027: real time      0.0027
    --------------------------------------------
      LOOP:  cpu time      3.2124: real time      3.2811

 eigenvalue-minimisations  :    64
 total energy-change (2. order) : 0.4047742E+03  (-0.9563873E+03)
 number of electron      34.0000000 magnetization 
 augmentation part       34.0000000 magnetization 

 Free energy of the ion-electron system (eV)
  ---------------------------------------------------
  alpha Z        PSCENC =         0.40154822
  Ewald energy   TEWEN  =      2257.36198512
  -Hartree energ DENC   =     -3871.20669808
  -exchange      EXHF   =         0.00000000
  -V(xc)+E(xc)   XCENC  =       154.24064834
  PAW double counting   =      1585.17261488    -1593.97387881
  entropy T*S    EENTRO =        -0.00000000
  eigenvalues    EBANDS =      -175.95033855
  atomic energy  EATOM  =      2048.72835245
  ---------------------------------------------------
  free energy    TOTEN  =       404.77423358 eV

  energy without entropy =      404.77423358  energy(sigma->0) =      404.77423358


--------------------------------------------------------------------------------------------------------




--------------------------------------- Iteration      1(   2)  ---------------------------------------


    TRIAL :  cpu time      1.7985: real time      1.7995
    CORREC:  cpu time      0.0002: real time      0.0002
    --------------------------------------------
      LOOP:  cpu time      1.8155: real time      1.8397

 eigenvalue-minimisations  :    72
 total energy-change (2. order) :-0.1767061E+03  (-0.1746937E+03)
 number of electron      34.0000000 magnetization 
 augmentation part       34.0000000 magnetization 

 Free energy of the ion-electron system (eV)
  ---------------------------------------------------
  alpha Z        PSCENC =         0.40154822
  Ewald energy   TEWEN  =      2257.36198512
  -Hartree energ DENC   =     -3871.20669808
  -exchange      EXHF   =         0.00000000
  -V(xc)+E(xc)   XCENC  =       154.24064834
  PAW double counting   =      1585.17261488    -1593.97387881
  entropy T*S    EENTRO =        -0.00000000
  eigenvalues    EBANDS =      -352.65639118
  atomic energy  EATOM  =      2048.72835245
  ---------------------------------------------------
  free energy    TOTEN  =       228.06818095 eV

  energy without entropy =      228.06818095  energy(sigma->0) =      228.06818095


--------------------------------------------------------------------------------------------------------




--------------------------------------- Iteration      1(   3)  ---------------------------------------


    TRIAL :  cpu time      2.0389: real time      2.0396
    CORREC:  cpu time      0.0001: real time      0.0001
    --------------------------------------------
      LOOP:  cpu time      2.0668: real time      2.0677

 eigenvalue-minimisations  :    88
 total energy-change (2. order) :-0.2014091E+03  (-0.1992538E+03)
 number of electron      34.0000000 magnetization 
 augmentation part       34.0000000 magnetization 

 Free energy of the ion-electron system (eV)
  ---------------------------------------------------
  alpha Z        PSCENC =         0.40154822
  Ewald energy   TEWEN  =      2257.36198512
  -Hartree energ DENC   =     -3871.20669808
  -exchange      EXHF   =         0.00000000
  -V(xc)+E(xc)   XCENC  =       154.24064834
  PAW double counting   =      1585.17261488    -1593.97387881
  entropy T*S    EENTRO =        -0.00000000
  eigenvalues    EBANDS =      -554.06546907
  atomic energy  EATOM  =      2048.72835245
  ---------------------------------------------------
  free energy    TOTEN  =        26.65910306 eV

  energy without entropy =       26.65910306  energy(sigma->0) =       26.65910306


--------------------------------------------------------------------------------------------------------




--------------------------------------- Iteration      1(   4)  ---------------------------------------


    TRIAL :  cpu time      1.6651: real time      1.6658
    CORREC:  cpu time      0.0001: real time      0.0001
    --------------------------------------------
      LOOP:  cpu time      1.6941: real time      1.6949

 eigenvalue-minimisations  :    64
 total energy-change (2. order) :-0.8754629E+02  (-0.8712454E+02)
 number of electron      34.0000000 magnetization 
 augmentation part       34.0000000 magnetization 

 Free energy of the ion-electron system (eV)
  ---------------------------------------------------
  alpha Z        PSCENC =         0.40154822
  Ewald energy   TEWEN  =      2257.36198512
  -Hartree energ DENC   =     -3871.20669808
  -exchange      EXHF   =         0.00000000
  -V(xc)+E(xc)   XCENC  =       154.24064834
  PAW double counting   =      1585.17261488    -1593.97387881
  entropy T*S    EENTRO =        -0.00000000
  eigenvalues    EBANDS =      -641.61175657
  atomic energy  EATOM  =      2048.72835245
  ---------------------------------------------------
  free energy    TOTEN  =       -60.88718444 eV

  energy without entropy =      -60.88718444  energy(sigma->0) =      -60.88718444


--------------------------------------------------------------------------------------------------------




--------------------------------------- Iteration      1(   5)  ---------------------------------------


    TRIAL :  cpu time      1.5485: real time      1.5493
    CORREC:  cpu time      0.0001: real time      0.0001
    CHARGE:  cpu time      0.3431: real time      0.3446
    --------------------------------------------
      LOOP:  cpu time      1.9033: real time      1.9221

 eigenvalue-minimisations  :    56
 total energy-change (2. order) :-0.1499582E+02  (-0.1494694E+02)
 number of electron      34.0000000 magnetization 
 augmentation part        0.1910883 magnetization 

 Free energy of the ion-electron system (eV)
  ---------------------------------------------------
  alpha Z        PSCENC =         0.40154822
  Ewald energy   TEWEN  =      2257.36198512
  -Hartree energ DENC   =     -3871.20669808
  -exchange      EXHF   =         0.00000000
  -V(xc)+E(xc)   XCENC  =       154.24064834
  PAW double counting   =      1585.17261488    -1593.97387881
  entropy T*S    EENTRO =        -0.00000000
  eigenvalues    EBANDS =      -656.60757307
  atomic energy  EATOM  =      2048.72835245
  ---------------------------------------------------
  free energy    TOTEN  =       -75.88300094 eV

  energy without entropy =      -75.88300094  energy(sigma->0) =      -75.88300094


--------------------------------------------------------------------------------------------------------




--------------------------------------- Iteration      1(   6)  ---------------------------------------


    POTLOK:  cpu time      1.1493: real time      1.1498
    SETDIJ:  cpu time      0.3485: real time      0.3488
    TRIAL :  cpu time      1.3717: real time      1.3736
    CORREC:  cpu time      2.1288: real time      2.1301
    CHARGE:  cpu time      0.3064: real time      0.3068
    --------------------------------------------
      LOOP:  cpu time      5.3349: real time      5.3393

 eigenvalue-minimisations  :     0
 total energy-change (2. order) : 0.2013929E+02  (-0.3266799E+01)
 number of electron      34.0000000 magnetization 
 augmentation part        0.1580830 magnetization 

 Free energy of the ion-electron system (eV)
  ---------------------------------------------------
  alpha Z        PSCENC =         0.40154822
  Ewald energy   TEWEN  =      2257.36198512
  -Hartree energ DENC   =     -4047.87537028
  -exchange      EXHF   =         0.00000000
  -V(xc)+E(xc)   XCENC  =       170.34615018
  PAW double counting   =     24891.77400833   -24902.40868600
  entropy T*S    EENTRO =        -0.00000000
  eigenvalues    EBANDS =      -474.07170324
  atomic energy  EATOM  =      2048.72835245
  ---------------------------------------------------
  free energy    TOTEN  =       -55.74371522 eV

  energy without entropy =      -55.74371522  energy(sigma->0) =      -55.74371522


--------------------------------------------------------------------------------------------------------




--------------------------------------- Iteration      1(   7)  ---------------------------------------


    POTLOK:  cpu time      1.1512: real time      1.1518
    SETDIJ:  cpu time      0.3133: real time      0.3134
    TRIAL :  cpu time      1.3531: real time      1.3536
    CORREC:  cpu time      2.1229: real time      2.1245
    CHARGE:  cpu time      0.3064: real time      0.3065
    --------------------------------------------
      LOOP:  cpu time      5.2625: real time      5.2810

 eigenvalue-minimisations  :     0
 total energy-change (2. order) :-0.3297229E+01  (-0.5780502E+00)
 number of electron      34.0000000 magnetization 
 augmentation part        0.1302798 magnetization 

 Free energy of the ion-electron system (eV)
  ---------------------------------------------------
  alpha Z        PSCENC =         0.40154822
  Ewald energy   TEWEN  =      2257.36198512
  -Hartree energ DENC   =     -3961.47607549
  -exchange      EXHF   =         0.00000000
  -V(xc)+E(xc)   XCENC  =       164.43332134
  PAW double counting   =     25818.91076902   -25828.58394582
  entropy T*S    EENTRO =        -0.00000000
  eigenvalues    EBANDS =      -558.81689898
  atomic energy  EATOM  =      2048.72835245
  ---------------------------------------------------
  free energy    TOTEN  =       -59.04094413 eV

  energy without entropy =      -59.04094413  energy(sigma->0) =      -59.04094413


--------------------------------------------------------------------------------------------------------




--------------------------------------- Iteration      1(   8)  ---------------------------------------


    POTLOK:  cpu time      1.1520: real time      1.1526
    SETDIJ:  cpu time      0.3144: real time      0.3144
    TRIAL :  cpu time      1.3520: real time      1.3534
    CORREC:  cpu time      2.1202: real time      2.1213
    CHARGE:  cpu time      0.3067: real time      0.3067
    --------------------------------------------
      LOOP:  cpu time      5.2609: real time      5.2794

 eigenvalue-minimisations  :     0
 total energy-change (2. order) :-0.5781927E+00  (-0.2018750E+00)
 number of electron      34.0000000 magnetization 
 augmentation part        0.1366842 magnetization 

 Free energy of the ion-electron system (eV)
  ---------------------------------------------------
  alpha Z        PSCENC =         0.40154822
  Ewald energy   TEWEN  =      2257.36198512
  -Hartree energ DENC   =     -3969.46424950
  -exchange      EXHF   =         0.00000000
  -V(xc)+E(xc)   XCENC  =       164.26865633
  PAW double counting   =     25920.05641426   -25929.56997431
  entropy T*S    EENTRO =        -0.00000000
  eigenvalues    EBANDS =      -551.40186942
  atomic energy  EATOM  =      2048.72835245
  ---------------------------------------------------
  free energy    TOTEN  =       -59.61913684 eV

  energy without entropy =      -59.61913684  energy(sigma->0) =      -59.61913684


--------------------------------------------------------------------------------------------------------




--------------------------------------- Iteration      1(   9)  ---------------------------------------


    POTLOK:  cpu time      1.1931: real time      1.1935
    SETDIJ:  cpu time      0.2713: real time      0.2717
    TRIAL :  cpu time      1.3513: real time      1.3522
    CORREC:  cpu time      2.2196: real time      2.2206
    CHARGE:  cpu time      0.3048: real time      0.3048
    --------------------------------------------
      LOOP:  cpu time      5.3600: real time      5.3741

 eigenvalue-minimisations  :     0
 total energy-change (2. order) :-0.2018865E+00  (-0.8354541E-01)
 number of electron      34.0000000 magnetization 
 augmentation part        0.1452694 magnetization 

 Free energy of the ion-electron system (eV)
  ---------------------------------------------------
  alpha Z        PSCENC =         0.40154822
  Ewald energy   TEWEN  =      2257.36198512
  -Hartree energ DENC   =     -3976.87660293
  -exchange      EXHF   =         0.00000000
  -V(xc)+E(xc)   XCENC  =       164.44307441
  PAW double counting   =     26349.12870529   -26358.67454601
  entropy T*S    EENTRO =        -0.00000000
  eigenvalues    EBANDS =      -544.33353988
  atomic energy  EATOM  =      2048.72835245
  ---------------------------------------------------
  free energy    TOTEN  =       -59.82102332 eV

  energy without entropy =      -59.82102332  energy(sigma->0) =      -59.82102332


--------------------------------------------------------------------------------------------------------




--------------------------------------- Iteration      1(  10)  ---------------------------------------


    POTLOK:  cpu time      1.1471: real time      1.1480
    SETDIJ:  cpu time      0.3188: real time      0.3188
    TRIAL :  cpu time      1.3544: real time      1.3553
    CORREC:  cpu time      2.1138: real time      2.1151
    CHARGE:  cpu time      0.3039: real time      0.3045
    --------------------------------------------
      LOOP:  cpu time      5.2690: real time      5.2734

 eigenvalue-minimisations  :     0
 total energy-change (2. order) :-0.8351754E-01  (-0.3136994E-01)
 number of electron      34.0000000 magnetization 
 augmentation part        0.1484911 magnetization 

 Free energy of the ion-electron system (eV)
  ---------------------------------------------------
  alpha Z        PSCENC =         0.40154822
  Ewald energy   TEWEN  =      2257.36198512
  -Hartree energ DENC   =     -3974.36458572
  -exchange      EXHF   =         0.00000000
  -V(xc)+E(xc)   XCENC  =       164.34846598
  PAW double counting   =     26558.34789558   -26567.92329409
  entropy T*S    EENTRO =        -0.00000000
  eigenvalues    EBANDS =      -546.80490840
  atomic energy  EATOM  =      2048.72835245
  ---------------------------------------------------
  free energy    TOTEN  =       -59.90454086 eV

  energy without entropy =      -59.90454086  energy(sigma->0) =      -59.90454086


--------------------------------------------------------------------------------------------------------




--------------------------------------- Iteration      1(  11)  ---------------------------------------


    POTLOK:  cpu time      1.1471: real time      1.1477
    SETDIJ:  cpu time      0.3164: real time      0.3164
    TRIAL :  cpu time      1.3528: real time      1.3544
    CORREC:  cpu time      2.1230: real time      2.1244
    CHARGE:  cpu time      0.3060: real time      0.3060
    --------------------------------------------
      LOOP:  cpu time      5.2612: real time      5.2804

 eigenvalue-minimisations  :     0
 total energy-change (2. order) :-0.3134768E-01  (-0.1286024E-01)
 number of electron      34.0000000 magnetization 
 augmentation part        0.1505021 magnetization 

 Free energy of the ion-electron system (eV)
  ---------------------------------------------------
  alpha Z        PSCENC =         0.40154822
  Ewald energy   TEWEN  =      2257.36198512
  -Hartree energ DENC   =     -3972.27430960
  -exchange      EXHF   =         0.00000000
  -V(xc)+E(xc)   XCENC  =       164.30021343
  PAW double counting   =     26483.40148213   -26492.99282673
  entropy T*S    EENTRO =        -0.00000000
  eigenvalues    EBANDS =      -548.86233356
  atomic energy  EATOM  =      2048.72835245
  ---------------------------------------------------
  free energy    TOTEN  =       -59.93588854 eV

  energy without entropy =      -59.93588854  energy(sigma->0) =      -59.93588854


--------------------------------------------------------------------------------------------------------




--------------------------------------- Iteration      1(  12)  ---------------------------------------


    POTLOK:  cpu time      1.1452: real time      1.1456
    SETDIJ:  cpu time      0.3176: real time      0.3181
    TRIAL :  cpu time      1.3535: real time      1.3545
    CORREC:  cpu time      2.1205: real time      2.1219
    CHARGE:  cpu time      0.3047: real time      0.3047
    --------------------------------------------
      LOOP:  cpu time      5.2605: real time      5.2770

 eigenvalue-minimisations  :     0
 total energy-change (2. order) :-0.1286548E-01  (-0.5363059E-02)
 number of electron      34.0000000 magnetization 
 augmentation part        0.1507136 magnetization 

 Free energy of the ion-electron system (eV)
  ---------------------------------------------------
  alpha Z        PSCENC =         0.40154822
  Ewald energy   TEWEN  =      2257.36198512
  -Hartree energ DENC   =     -3972.21987347
  -exchange      EXHF   =         0.00000000
  -V(xc)+E(xc)   XCENC  =       164.30202014
  PAW double counting   =     26499.35764728   -26508.95764589
  entropy T*S    EENTRO =        -0.00000000
  eigenvalues    EBANDS =      -548.92278788
  atomic energy  EATOM  =      2048.72835245
  ---------------------------------------------------
  free energy    TOTEN  =       -59.94875403 eV

  energy without entropy =      -59.94875403  energy(sigma->0) =      -59.94875403


--------------------------------------------------------------------------------------------------------




--------------------------------------- Iteration      1(  13)  ---------------------------------------


    POTLOK:  cpu time      1.1454: real time      1.1461
    SETDIJ:  cpu time      0.3165: real time      0.3169
    TRIAL :  cpu time      1.3528: real time      1.3538
    CORREC:  cpu time      2.1195: real time      2.1210
    CHARGE:  cpu time      0.3058: real time      0.3067
    --------------------------------------------
      LOOP:  cpu time      5.2591: real time      5.2777

 eigenvalue-minimisations  :     0
 total energy-change (2. order) :-0.5385229E-02  (-0.2244048E-02)
 number of electron      34.0000000 magnetization 
 augmentation part        0.1502182 magnetization 

 Free energy of the ion-electron system (eV)
  ---------------------------------------------------
  alpha Z        PSCENC =         0.40154822
  Ewald energy   TEWEN  =      2257.36198512
  -Hartree energ DENC   =     -3971.97316456
  -exchange      EXHF   =         0.00000000
  -V(xc)+E(xc)   XCENC  =       164.27895247
  PAW double counting   =     26544.55635364   -26554.15173295
  entropy T*S    EENTRO =        -0.00000000
  eigenvalues    EBANDS =      -549.15643364
  atomic energy  EATOM  =      2048.72835245
  ---------------------------------------------------
  free energy    TOTEN  =       -59.95413925 eV

  energy without entropy =      -59.95413925  energy(sigma->0) =      -59.95413925


--------------------------------------------------------------------------------------------------------




--------------------------------------- Iteration      1(  14)  ---------------------------------------


    POTLOK:  cpu time      1.1489: real time      1.1494
    SETDIJ:  cpu time      0.3161: real time      0.3161
    TRIAL :  cpu time      1.3546: real time      1.3555
    CORREC:  cpu time      2.1597: real time      2.1616
    CHARGE:  cpu time      0.3045: real time      0.3046
    --------------------------------------------
      LOOP:  cpu time      5.2990: real time      5.3183

 eigenvalue-minimisations  :     0
 total energy-change (2. order) :-0.2253156E-02  (-0.1056929E-02)
 number of electron      34.0000000 magnetization 
 augmentation part        0.1501268 magnetization 

 Free energy of the ion-electron system (eV)
  ---------------------------------------------------
  alpha Z        PSCENC =         0.40154822
  Ewald energy   TEWEN  =      2257.36198512
  -Hartree energ DENC   =     -3971.77149169
  -exchange      EXHF   =         0.00000000
  -V(xc)+E(xc)   XCENC  =       164.26849630
  PAW double counting   =     26481.01706861   -26490.60817652
  entropy T*S    EENTRO =        -0.00000000
  eigenvalues    EBANDS =      -549.35417491
  atomic energy  EATOM  =      2048.72835245
  ---------------------------------------------------
  free energy    TOTEN  =       -59.95639241 eV

  energy without entropy =      -59.95639241  energy(sigma->0) =      -59.95639241


--------------------------------------------------------------------------------------------------------




--------------------------------------- Iteration      1(  15)  ---------------------------------------


    POTLOK:  cpu time      1.1490: real time      1.1495
    SETDIJ:  cpu time      0.3114: real time      0.3115
    TRIAL :  cpu time      1.3544: real time      1.3561
    CORREC:  cpu time      2.1199: real time      2.1209
    CHARGE:  cpu time      0.3061: real time      0.3061
    --------------------------------------------
      LOOP:  cpu time      5.2748: real time      5.2782

 eigenvalue-minimisations  :     0
 total energy-change (2. order) :-0.1056404E-02  (-0.5470840E-03)
 number of electron      34.0000000 magnetization 
 augmentation part        0.1501968 magnetization 

 Free energy of the ion-electron system (eV)
  ---------------------------------------------------
  alpha Z        PSCENC =         0.40154822
  Ewald energy   TEWEN  =      2257.36198512
  -Hartree energ DENC   =     -3971.87672538
  -exchange      EXHF   =         0.00000000
  -V(xc)+E(xc)   XCENC  =       164.27569934
  PAW double counting   =     26348.82176117   -26358.41359429
  entropy T*S    EENTRO =        -0.00000000
  eigenvalues    EBANDS =      -549.25647545
  atomic energy  EATOM  =      2048.72835245
  ---------------------------------------------------
  free energy    TOTEN  =       -59.95744881 eV

  energy without entropy =      -59.95744881  energy(sigma->0) =      -59.95744881


--------------------------------------------------------------------------------------------------------




--------------------------------------- Iteration      1(  16)  ---------------------------------------


    POTLOK:  cpu time      1.1495: real time      1.1502
    SETDIJ:  cpu time      0.3122: real time      0.3126
    TRIAL :  cpu time      1.3517: real time      1.3526
    CORREC:  cpu time      2.1144: real time      2.1158
    CHARGE:  cpu time      0.3092: real time      0.3092
    --------------------------------------------
      LOOP:  cpu time      5.2506: real time      5.2712

 eigenvalue-minimisations  :     0
 total energy-change (2. order) :-0.5475217E-03  (-0.2724859E-03)
 number of electron      34.0000000 magnetization 
 augmentation part        0.1502400 magnetization 

 Free energy of the ion-electron system (eV)
  ---------------------------------------------------
  alpha Z        PSCENC =         0.40154822
  Ewald energy   TEWEN  =      2257.36198512
  -Hartree energ DENC   =     -3971.79889466
  -exchange      EXHF   =         0.00000000
  -V(xc)+E(xc)   XCENC  =       164.27123324
  PAW double counting   =     26230.80842796   -26240.40054309
  entropy T*S    EENTRO =        -0.00000000
  eigenvalues    EBANDS =      -549.33010558
  atomic energy  EATOM  =      2048.72835245
  ---------------------------------------------------
  free energy    TOTEN  =       -59.95799634 eV

  energy without entropy =      -59.95799634  energy(sigma->0) =      -59.95799634


--------------------------------------------------------------------------------------------------------




--------------------------------------- Iteration      1(  17)  ---------------------------------------


    POTLOK:  cpu time      1.1456: real time      1.1471
    SETDIJ:  cpu time      0.3140: real time      0.3140
    TRIAL :  cpu time      1.3524: real time      1.3533
    CORREC:  cpu time      2.1190: real time      2.1204
    CHARGE:  cpu time      0.3066: real time      0.3073
    --------------------------------------------
      LOOP:  cpu time      5.2565: real time      5.2740

 eigenvalue-minimisations  :     0
 total energy-change (2. order) :-0.2709114E-03  (-0.1056109E-03)
 number of electron      34.0000000 magnetization 
 augmentation part        0.1501806 magnetization 

 Free energy of the ion-electron system (eV)
  ---------------------------------------------------
  alpha Z        PSCENC =         0.40154822
  Ewald energy   TEWEN  =      2257.36198512
  -Hartree energ DENC   =     -3971.87146156
  -exchange      EXHF   =         0.00000000
  -V(xc)+E(xc)   XCENC  =       164.27547254
  PAW double counting   =     26166.40829369   -26176.00137830
  entropy T*S    EENTRO =        -0.00000000
  eigenvalues    EBANDS =      -549.26107941
  atomic energy  EATOM  =      2048.72835245
  ---------------------------------------------------
  free energy    TOTEN  =       -59.95826725 eV

  energy without entropy =      -59.95826725  energy(sigma->0) =      -59.95826725


--------------------------------------------------------------------------------------------------------




--------------------------------------- Iteration      1(  18)  ---------------------------------------


    POTLOK:  cpu time      1.1491: real time      1.1496
    SETDIJ:  cpu time      0.3166: real time      0.3166
    TRIAL :  cpu time      1.3518: real time      1.3539
    CORREC:  cpu time      2.1199: real time      2.1214
    CHARGE:  cpu time      0.3063: real time      0.3063
    --------------------------------------------
      LOOP:  cpu time      5.2734: real time      5.2785

 eigenvalue-minimisations  :     0
 total energy-change (2. order) :-0.1060005E-03  (-0.3432018E-04)
 number of electron      34.0000000 magnetization 
 augmentation part        0.1501271 magnetization 

 Free energy of the ion-electron system (eV)
  ---------------------------------------------------
  alpha Z        PSCENC =         0.40154822
  Ewald energy   TEWEN  =      2257.36198512
  -Hartree energ DENC   =     -3971.92028803
  -exchange      EXHF   =         0.00000000
  -V(xc)+E(xc)   XCENC  =       164.27764676
  PAW double counting   =     26166.81473637   -26176.40767798
  entropy T*S    EENTRO =        -0.00000000
  eigenvalues    EBANDS =      -549.21467616
  atomic energy  EATOM  =      2048.72835245
  ---------------------------------------------------
  free energy    TOTEN  =       -59.95837325 eV

  energy without entropy =      -59.95837325  energy(sigma->0) =      -59.95837325


--------------------------------------------------------------------------------------------------------




--------------------------------------- Iteration      1(  19)  ---------------------------------------


    POTLOK:  cpu time      1.1707: real time      1.1712
    SETDIJ:  cpu time      0.2925: real time      0.2929
    TRIAL :  cpu time      1.3553: real time      1.3562
    CORREC:  cpu time      2.1510: real time      2.1521
    CHARGE:  cpu time      0.3071: real time      0.3071
    --------------------------------------------
      LOOP:  cpu time      5.2896: real time      5.3099

 eigenvalue-minimisations  :     0
 total energy-change (2. order) :-0.3503341E-04  (-0.1247168E-04)
 number of electron      34.0000000 magnetization 
 augmentation part        0.1501316 magnetization 

 Free energy of the ion-electron system (eV)
  ---------------------------------------------------
  alpha Z        PSCENC =         0.40154822
  Ewald energy   TEWEN  =      2257.36198512
  -Hartree energ DENC   =     -3971.90862030
  -exchange      EXHF   =         0.00000000
  -V(xc)+E(xc)   XCENC  =       164.27643569
  PAW double counting   =     26190.22725487   -26199.81963045
  entropy T*S    EENTRO =        -0.00000000
  eigenvalues    EBANDS =      -549.22573388
  atomic energy  EATOM  =      2048.72835245
  ---------------------------------------------------
  free energy    TOTEN  =       -59.95840828 eV

  energy without entropy =      -59.95840828  energy(sigma->0) =      -59.95840828


--------------------------------------------------------------------------------------------------------




--------------------------------------- Iteration      1(  20)  ---------------------------------------


    POTLOK:  cpu time      1.1550: real time      1.1565
    SETDIJ:  cpu time      0.3057: real time      0.3057
    TRIAL :  cpu time      1.3544: real time      1.3553
    CORREC:  cpu time      2.1194: real time      2.1206
    CHARGE:  cpu time      0.3065: real time      0.3073
    --------------------------------------------
      LOOP:  cpu time      5.2568: real time      5.2765

 eigenvalue-minimisations  :     0
 total energy-change (2. order) :-0.1258869E-04  (-0.4335353E-05)
 number of electron      34.0000000 magnetization 
 augmentation part        0.1501383 magnetization 

 Free energy of the ion-electron system (eV)
  ---------------------------------------------------
  alpha Z        PSCENC =         0.40154822
  Ewald energy   TEWEN  =      2257.36198512
  -Hartree energ DENC   =     -3971.92996484
  -exchange      EXHF   =         0.00000000
  -V(xc)+E(xc)   XCENC  =       164.27731896
  PAW double counting   =     26212.76972179   -26222.36214119
  entropy T*S    EENTRO =        -0.00000000
  eigenvalues    EBANDS =      -549.20524139
  atomic energy  EATOM  =      2048.72835245
  ---------------------------------------------------
  free energy    TOTEN  =       -59.95842087 eV

  energy without entropy =      -59.95842087  energy(sigma->0) =      -59.95842087


--------------------------------------------------------------------------------------------------------




--------------------------------------- Iteration      1(  21)  ---------------------------------------


    POTLOK:  cpu time      1.1446: real time      1.1451
    SETDIJ:  cpu time      0.3185: real time      0.3185
    TRIAL :  cpu time      1.3528: real time      1.3538
    CORREC:  cpu time      2.1163: real time      2.1186
    CHARGE:  cpu time      0.3081: real time      0.3081
    --------------------------------------------
      LOOP:  cpu time      5.2566: real time      5.2812

 eigenvalue-minimisations  :     0
 total energy-change (2. order) :-0.4510457E-05  (-0.1702251E-05)
 number of electron      34.0000000 magnetization 
 augmentation part        0.1501483 magnetization 

 Free energy of the ion-electron system (eV)
  ---------------------------------------------------
  alpha Z        PSCENC =         0.40154822
  Ewald energy   TEWEN  =      2257.36198512
  -Hartree energ DENC   =     -3971.92540208
  -exchange      EXHF   =         0.00000000
  -V(xc)+E(xc)   XCENC  =       164.27693143
  PAW double counting   =     26227.31443310   -26236.90683573
  entropy T*S    EENTRO =        -0.00000000
  eigenvalues    EBANDS =      -549.20943790
  atomic energy  EATOM  =      2048.72835245
  ---------------------------------------------------
  free energy    TOTEN  =       -59.95842538 eV

  energy without entropy =      -59.95842538  energy(sigma->0) =      -59.95842538


--------------------------------------------------------------------------------------------------------




--------------------------------------- Iteration      1(  22)  ---------------------------------------


    POTLOK:  cpu time      1.1457: real time      1.1462
    SETDIJ:  cpu time      0.3157: real time      0.3157
    TRIAL :  cpu time      1.3615: real time      1.3630
    CORREC:  cpu time      2.1161: real time      2.1173
    CHARGE:  cpu time      0.3071: real time      0.3071
    --------------------------------------------
      LOOP:  cpu time      5.2628: real time      5.2806

 eigenvalue-minimisations  :     0
 total energy-change (2. order) :-0.1773544E-05  (-0.7106187E-06)
 number of electron      34.0000000 magnetization 
 augmentation part        0.1501559 magnetization 

 Free energy of the ion-electron system (eV)
  ---------------------------------------------------
  alpha Z        PSCENC =         0.40154822
  Ewald energy   TEWEN  =      2257.36198512
  -Hartree energ DENC   =     -3971.92267554
  -exchange      EXHF   =         0.00000000
  -V(xc)+E(xc)   XCENC  =       164.27675443
  PAW double counting   =     26234.28784971   -26243.88028376
  entropy T*S    EENTRO =        -0.00000000
  eigenvalues    EBANDS =      -549.21195779
  atomic energy  EATOM  =      2048.72835245
  ---------------------------------------------------
  free energy    TOTEN  =       -59.95842715 eV

  energy without entropy =      -59.95842715  energy(sigma->0) =      -59.95842715


--------------------------------------------------------------------------------------------------------




--------------------------------------- Iteration      1(  23)  ---------------------------------------


    POTLOK:  cpu time      1.1441: real time      1.1449
    SETDIJ:  cpu time      0.3179: real time      0.3184
    TRIAL :  cpu time      1.3522: real time      1.3531
    CORREC:  cpu time      2.1170: real time      2.1190
    CHARGE:  cpu time      0.3057: real time      0.3063
    --------------------------------------------
      LOOP:  cpu time      5.2538: real time      5.3443

 eigenvalue-minimisations  :     0
 total energy-change (2. order) :-0.7444469E-06  (-0.2155245E-06)
 number of electron      34.0000000 magnetization 
 augmentation part        0.1501565 magnetization 

 Free energy of the ion-electron system (eV)
  ---------------------------------------------------
  alpha Z        PSCENC =         0.40154822
  Ewald energy   TEWEN  =      2257.36198512
  -Hartree energ DENC   =     -3971.92422222
  -exchange      EXHF   =         0.00000000
  -V(xc)+E(xc)   XCENC  =       164.27685612
  PAW double counting   =     26237.18050424   -26246.77298225
  entropy T*S    EENTRO =        -0.00000000
  eigenvalues    EBANDS =      -549.21046959
  atomic energy  EATOM  =      2048.72835245
  ---------------------------------------------------
  free energy    TOTEN  =       -59.95842790 eV

  energy without entropy =      -59.95842790  energy(sigma->0) =      -59.95842790


--------------------------------------------------------------------------------------------------------




--------------------------------------- Iteration      1(  24)  ---------------------------------------


    POTLOK:  cpu time      1.1459: real time      1.1464
    SETDIJ:  cpu time      0.3183: real time      0.3183
    TRIAL :  cpu time      1.3534: real time      1.3542
    CORREC:  cpu time      2.1245: real time      2.1256
    CHARGE:  cpu time      0.3070: real time      0.3078
    --------------------------------------------
      LOOP:  cpu time      5.2658: real time      5.2847

 eigenvalue-minimisations  :     0
 total energy-change (2. order) :-0.2069646E-06  (-0.2126760E-06)
 number of electron      34.0000000 magnetization 
 augmentation part        0.1501546 magnetization 

 Free energy of the ion-electron system (eV)
  ---------------------------------------------------
  alpha Z        PSCENC =         0.40154822
  Ewald energy   TEWEN  =      2257.36198512
  -Hartree energ DENC   =     -3971.92249472
  -exchange      EXHF   =         0.00000000
  -V(xc)+E(xc)   XCENC  =       164.27677781
  PAW double counting   =     26237.73664628   -26247.32911333
  entropy T*S    EENTRO =        -0.00000000
  eigenvalues    EBANDS =      -549.21212995
  atomic energy  EATOM  =      2048.72835245
  ---------------------------------------------------
  free energy    TOTEN  =       -59.95842811 eV

  energy without entropy =      -59.95842811  energy(sigma->0) =      -59.95842811


--------------------------------------------------------------------------------------------------------




--------------------------------------- Iteration      1(  25)  ---------------------------------------


    POTLOK:  cpu time      1.1459: real time      1.1464
    SETDIJ:  cpu time      0.3165: real time      0.3165
    TRIAL :  cpu time      1.3523: real time      1.3539
    CORREC:  cpu time      2.1080: real time      2.1092
    CHARGE:  cpu time      0.3070: real time      0.3070
    --------------------------------------------
      LOOP:  cpu time      5.2456: real time      5.2753

 eigenvalue-minimisations  :     0
 total energy-change (2. order) :-0.1606713E-06  ( 0.1147045E-04)
 number of electron      34.0000000 magnetization 
 augmentation part        0.1501544 magnetization 

 Free energy of the ion-electron system (eV)
  ---------------------------------------------------
  alpha Z        PSCENC =         0.40154822
  Ewald energy   TEWEN  =      2257.36198512
  -Hartree energ DENC   =     -3971.92146693
  -exchange      EXHF   =         0.00000000
  -V(xc)+E(xc)   XCENC  =       164.27673543
  PAW double counting   =     26236.78285000   -26246.37529917
  entropy T*S    EENTRO =        -0.00000000
  eigenvalues    EBANDS =      -549.21313340
  atomic energy  EATOM  =      2048.72835245
  ---------------------------------------------------
  free energy    TOTEN  =       -59.95842827 eV

  energy without entropy =      -59.95842827  energy(sigma->0) =      -59.95842827


--------------------------------------------------------------------------------------------------------




--------------------------------------- Iteration      1(  26)  ---------------------------------------


    POTLOK:  cpu time      1.1771: real time      1.1776
    SETDIJ:  cpu time      0.2852: real time      0.2857
    TRIAL :  cpu time      1.3547: real time      1.3554
    CORREC:  cpu time      2.1282: real time      2.1294
    CHARGE:  cpu time      0.3058: real time      0.3059
    --------------------------------------------
      LOOP:  cpu time      5.2812: real time      5.2842

 eigenvalue-minimisations  :     0
 total energy-change (2. order) :-0.1272310E-06  (-0.2479579E-06)
 number of electron      34.0000000 magnetization 
 augmentation part        0.1501554 magnetization 

 Free energy of the ion-electron system (eV)
  ---------------------------------------------------
  alpha Z        PSCENC =         0.40154822
  Ewald energy   TEWEN  =      2257.36198512
  -Hartree energ DENC   =     -3971.92185890
  -exchange      EXHF   =         0.00000000
  -V(xc)+E(xc)   XCENC  =       164.27676697
  PAW double counting   =     26236.22723538   -26245.81968896
  entropy T*S    EENTRO =        -0.00000000
  eigenvalues    EBANDS =      -549.21276868
  atomic energy  EATOM  =      2048.72835245
  ---------------------------------------------------
  free energy    TOTEN  =       -59.95842839 eV

  energy without entropy =      -59.95842839  energy(sigma->0) =      -59.95842839


--------------------------------------------------------------------------------------------------------




--------------------------------------- Iteration      1(  27)  ---------------------------------------


    POTLOK:  cpu time      1.2429: real time      1.2443
    SETDIJ:  cpu time      0.2196: real time      0.2196
    TRIAL :  cpu time      1.3561: real time      1.3569
    CORREC:  cpu time      2.1151: real time      2.1166
    CHARGE:  cpu time      0.3056: real time      0.3063
    --------------------------------------------
      LOOP:  cpu time      5.2549: real time      5.2751

 eigenvalue-minimisations  :     0
 total energy-change (2. order) : 0.3809473E-06  (-0.5533572E-06)
 number of electron      34.0000000 magnetization 
 augmentation part        0.1501539 magnetization 

 Free energy of the ion-electron system (eV)
  ---------------------------------------------------
  alpha Z        PSCENC =         0.40154822
  Ewald energy   TEWEN  =      2257.36198512
  -Hartree energ DENC   =     -3971.92203333
  -exchange      EXHF   =         0.00000000
  -V(xc)+E(xc)   XCENC  =       164.27680352
  PAW double counting   =     26235.20930618   -26244.80178722
  entropy T*S    EENTRO =        -0.00000000
  eigenvalues    EBANDS =      -549.21260296
  atomic energy  EATOM  =      2048.72835245
  ---------------------------------------------------
  free energy    TOTEN  =       -59.95842801 eV

  energy without entropy =      -59.95842801  energy(sigma->0) =      -59.95842801


--------------------------------------------------------------------------------------------------------




--------------------------------------- Iteration      1(  28)  ---------------------------------------


    POTLOK:  cpu time      1.1491: real time      1.1496
    SETDIJ:  cpu time      0.3131: real time      0.3131
    TRIAL :  cpu time      1.3592: real time      1.3600
    CORREC:  cpu time      2.1562: real time      2.1582
    CHARGE:  cpu time      0.3046: real time      0.3046
    --------------------------------------------
      LOOP:  cpu time      5.2963: real time      5.3165

 eigenvalue-minimisations  :     0
 total energy-change (2. order) :-0.5414477E-06  (-0.2895767E-07)
 number of electron      34.0000000 magnetization 
 augmentation part        0.1501537 magnetization 

 Free energy of the ion-electron system (eV)
  ---------------------------------------------------
  alpha Z        PSCENC =         0.40154822
  Ewald energy   TEWEN  =      2257.36198512
  -Hartree energ DENC   =     -3971.92090605
  -exchange      EXHF   =         0.00000000
  -V(xc)+E(xc)   XCENC  =       164.27673687
  PAW double counting   =     26235.54995726   -26245.14241835
  entropy T*S    EENTRO =        -0.00000000
  eigenvalues    EBANDS =      -549.21368409
  atomic energy  EATOM  =      2048.72835245
  ---------------------------------------------------
  free energy    TOTEN  =       -59.95842855 eV

  energy without entropy =      -59.95842855  energy(sigma->0) =      -59.95842855


--------------------------------------------------------------------------------------------------------




--------------------------------------- Iteration      1(  29)  ---------------------------------------


    POTLOK:  cpu time      1.1490: real time      1.1494
    SETDIJ:  cpu time      0.3103: real time      0.3103
    TRIAL :  cpu time      1.3508: real time      1.3524
    CORREC:  cpu time      2.1201: real time      2.1212
    EDDIAG:  cpu time      0.3595: real time      0.3600
    CHARGE:  cpu time      0.3062: real time      0.3073
    --------------------------------------------
      LOOP:  cpu time      5.6274: real time      5.6323

 eigenvalue-minimisations  :     0
 total energy-change (2. order) :-0.2629895E-07  (-0.5948703E-08)
 number of electron      34.0000000 magnetization 
 augmentation part        0.1501536 magnetization 

 Free energy of the ion-electron system (eV)
  ---------------------------------------------------
  alpha Z        PSCENC =         0.40154822
  Ewald energy   TEWEN  =      2257.36198512
  -Hartree energ DENC   =     -3971.92140175
  -exchange      EXHF   =         0.00000000
  -V(xc)+E(xc)   XCENC  =       164.27676032
  PAW double counting   =     26235.80023857   -26245.39269844
  entropy T*S    EENTRO =        -0.00000000
  eigenvalues    EBANDS =      -549.21321308
  atomic energy  EATOM  =      2048.72835245
  ---------------------------------------------------
  free energy    TOTEN  =       -59.95842858 eV

  energy without entropy =      -59.95842858  energy(sigma->0) =      -59.95842858


--------------------------------------------------------------------------------------------------------


  average scaling for gradient   0.7801


 average (electrostatic) potential at core
  the test charge radii are     0.5770  0.4325  0.5955
  (the norm of the test charge is              1.0000)
       1 -92.8893       2 -92.8887       3 -51.3321       4 -51.3342       5-124.3230
       6-124.3230       7-125.7597       8-125.7582



 E-fermi :  -7.3435     XC(G=0):  -0.1313     alpha+bet : -0.0741

 Fermi energy:        -7.3435388218

 k-point     1 :       0.0000    0.0000    0.0000
  band No.  band energies     occupation 
      1     -30.5970      2.00000
      2     -29.8026      2.00000
      3     -28.4470      2.00000
      4     -27.8758      2.00000
      5     -18.3224      2.00000
      6     -16.5353      2.00000
      7     -16.3714      2.00000
      8     -13.0282      2.00000
      9     -12.8415      2.00000
     10     -12.2117      2.00000
     11     -12.0517      2.00000
     12     -11.5081      2.00000
     13     -10.1826      2.00000
     14      -9.2760      2.00000
     15      -9.1757      2.00000
     16      -8.9739      2.00000
     17      -7.4057      2.00000
     18      -3.3761      0.00000
     19      -0.4346      0.00000
     20       0.1307      0.00000
     21       0.2360      0.00000
     22       0.3854      0.00000
     23       0.4323      0.00000
     24       0.5084      0.00000


--------------------------------------------------------------------------------------------------------


 soft charge-density along one line, spin component           1
         0         1         2         3         4         5         6         7         8         9
 total charge-density along one line

 pseudopotential strength for first ion, spin component:           1
 12.814  21.566  -0.010  -0.005   0.001  -0.018  -0.009   0.001
 21.566  36.293  -0.016  -0.008   0.001  -0.029  -0.014   0.002
 -0.010  -0.016  -3.314   0.000   0.001  -5.943   0.001   0.001
 -0.005  -0.008   0.000  -3.314  -0.004   0.001  -5.942  -0.006
  0.001   0.001   0.001  -0.004  -3.314   0.001  -0.006  -5.942
 -0.018  -0.029  -5.943   0.001   0.001 -10.635   0.002   0.002
 -0.009  -0.014   0.001  -5.942  -0.006   0.002 -10.634  -0.010
  0.001   0.002   0.001  -0.006  -5.942   0.002  -0.010 -10.634
 total augmentation occupancy for first ion, spin component:           1
 10.343  -4.099   0.002  -1.715   1.613   0.024   0.804  -0.747
 -4.099   1.729   0.082   0.868  -0.785  -0.031  -0.393   0.358
  0.002   0.082   8.225  -0.431   2.165  -3.077   0.228  -0.970
 -1.715   0.868  -0.431   6.372  -2.919   0.226  -2.222   1.215
  1.613  -0.785   2.165  -2.919   6.968  -0.969   1.216  -2.514
  0.024  -0.031  -3.077   0.226  -0.969   1.181  -0.112   0.428
  0.804  -0.393   0.228  -2.222   1.216  -0.112   0.804  -0.512
 -0.747   0.358  -0.970   1.215  -2.514   0.428  -0.512   0.941


------------------------ aborting loop because EDIFF is reached ----------------------------------------


    FORLOC:  cpu time      0.0231: real time      0.0231
    FORNL :  cpu time      0.0195: real time      0.0197
    FORCOR:  cpu time      1.2958: real time      1.2965
    OFIELD:  cpu time      0.0046: real time      0.0046

 VOLUME and BASIS-vectors are now :
 -----------------------------------------------------------------------------
  energy-cutoff  :     1000.00
  volume of cell :     8000.00
      direct lattice vectors                 reciprocal lattice vectors
    20.000000000  0.000000000  0.000000000     0.050000000  0.000000000  0.000000000
     0.000000000 20.000000000  0.000000000     0.000000000  0.050000000  0.000000000
     0.000000000  0.000000000 20.000000000     0.000000000  0.000000000  0.050000000

  length of vectors
    20.000000000 20.000000000 20.000000000     0.050000000  0.050000000  0.050000000


 FORCES acting on ions:
    Electron-Ion                     Ewald-Force                    Non-Local-Force
 -----------------------------------------------------------------------------------------------
   0.683E+01 0.278E+02 0.328E+01   -.588E+01 -.210E+02 -.165E+01   -.844E+00 -.692E+01 -.182E+01
   -.702E+01 -.276E+02 -.335E+01   0.607E+01 0.209E+02 0.172E+01   0.847E+00 0.692E+01 0.180E+01
   0.716E+02 0.604E+02 -.529E+02   -.771E+02 -.615E+02 0.583E+02   0.578E+01 0.121E+01 -.570E+01
   -.716E+02 -.604E+02 0.529E+02   0.771E+02 0.615E+02 -.583E+02   -.579E+01 -.122E+01 0.570E+01
   -.290E+03 -.101E+03 0.269E+03   0.329E+03 0.122E+03 -.302E+03   -.392E+02 -.215E+02 0.334E+02
   0.290E+03 0.101E+03 -.269E+03   -.329E+03 -.122E+03 0.302E+03   0.392E+02 0.214E+02 -.334E+02
   0.308E+02 0.351E+03 0.105E+03   -.155E+02 -.389E+03 -.136E+03   -.154E+02 0.388E+02 0.316E+02
   -.307E+02 -.351E+03 -.104E+03   0.153E+02 0.390E+03 0.136E+03   0.154E+02 -.388E+02 -.316E+02
 -----------------------------------------------------------------------------------------------
   -.562E-01 0.320E-01 -.860E-02   -.107E-13 0.568E-13 0.000E+00   0.563E-01 -.348E-01 0.731E-02


 POSITION                                       TOTAL-FORCE (eV/Angst)
 -----------------------------------------------------------------------------------
     10.36587      9.59569      9.45312         0.237570     -0.037023     -0.281992
      9.63408     10.40374     10.54674        -0.232076      0.040514      0.271670
      9.27416      8.21411     10.07710         0.299154      0.101716     -0.283253
     10.72505     11.78589      9.92217        -0.294560     -0.103210      0.277975
     11.21197     10.09969      8.74899        -0.686314     -0.379292      0.586485
      8.78803      9.90032     11.25101         0.677447      0.368988     -0.578981
      9.96469      8.32590      9.38345        -0.076181      0.615030      0.288821
     10.03446     11.67365     10.61543         0.074960     -0.606723     -0.280724
 -----------------------------------------------------------------------------------
    total drift:                                0.000119     -0.002799     -0.001294


--------------------------------------------------------------------------------------------------------



  FREE ENERGIE OF THE ION-ELECTRON SYSTEM (eV)
  ---------------------------------------------------
  free  energy   TOTEN  =       -59.95842858 eV

  energy  without entropy=      -59.95842858  energy(sigma->0) =      -59.95842858



--------------------------------------------------------------------------------------------------------


    POTLOK:  cpu time      1.4592: real time      1.4735


--------------------------------------------------------------------------------------------------------


 stress matrix after NEB project (eV)
      0.00000      0.00000      0.00000
      0.00000      0.00000      0.00000
      0.00000      0.00000      0.00000
  FORCES: max atom, RMS     0.979211    0.654845
  FORCE total and by dimension    1.852181    0.686314
  Stress total and by dimension    0.000000    0.000000
     LOOP+:  cpu time    140.4461: real time    141.0734
    4ORBIT:  cpu time      0.0000: real time      0.0000

 total amount of memory used by VASP MPI-rank0    99759. kBytes
=======================================================================

   base      :      30000. kBytes
   nonl-proj :       2874. kBytes
   fftplans  :      17846. kBytes
   grid      :      47745. kBytes
   one-center:          1. kBytes
   wavefun   :       1293. kBytes

  
  
 General timing and accounting informations for this job:
 ========================================================
  
                  Total CPU time used (sec):      163.866
                            User time (sec):      159.539
                          System time (sec):        4.326
                         Elapsed time (sec):      169.536
  
                   Maximum memory used (kb):      296616.
                   Average memory used (kb):          N/A
  
                          Minor page faults:        49456
                          Major page faults:          518
                 Voluntary context switches:         7338
