 vasp.6.4.1 05Apr23 (build Jun  6 2023 14:46:38) gamma-only                      
 executed on        HPECrayEX_GCC date 2024.08.22  00:42:57
 running  512 mpi-ranks, with    1 threads/rank, on    4 nodes
 distrk:  each k-point on  512 cores,    1 groups
 distr:  one band on NCORE=   2 cores,  256 groups


--------------------------------------------------------------------------------------------------------


 INCAR:
   ALGO = Conjugate
   NCORE = 2
   PREC = Accurate
   EDIFF = 1E-7
   ENCUT = 1000
   ISMEAR = 0
   SIGMA = 0.01
   ISIF = 0
   SYMPREC = 1E-7
   GGA = RP
   IVDW = 11
   LWAVE = .FALSE.
   LCHARG = .FALSE.
   LWAVE = .FALSE.
   LCHARG = .FALSE.

 POTCAR:    PAW_PBE C_h 06Feb2004                 
 POTCAR:    PAW_PBE H_h 06Feb2004                 
 POTCAR:    PAW_PBE O_h 06Feb2004                 
 POTCAR:    PAW_PBE C_h 06Feb2004                 
   VRHFIN =C: s2p2                                                                                  
   LEXCH  = PE                                                                                      
   EATOM  =   147.1560 eV,   10.8157 Ry                                                             
                                                                                                    
   TITEL  = PAW_PBE C_h 06Feb2004                                                                   
   LULTRA =        F    use ultrasoft PP ?                                                          
   IUNSCR =        1    unscreen: 0-lin 1-nonlin 2-no                                               
   RPACOR =    0.800    partial core radius                                                         
   POMASS =   12.011; ZVAL   =    4.000    mass and valenz                                          
   RCORE  =    1.100    outmost cutoff radius                                                       
   RWIGS  =    1.630; RWIGS  =    0.863    wigner-seitz radius (au A)                               
   ENMAX  =  700.000; ENMIN  =  500.000 eV                                                          
   ICORE  =        2    local potential                                                             
   LCOR   =        T    correct aug charges                                                         
   LPAW   =        T    paw PP                                                                      
   EAUG   =  946.768                                                                                
   DEXC   =    0.000                                                                                
   RMAX   =    1.128    core radius for proj-oper                                                   
   RAUG   =    1.300    factor for augmentation sphere                                              
   RDEP   =    1.162    radius for radial grids                                                     
   RDEPT  =    1.088    core radius for aug-charge                                                  
                                                                                                    
   Atomic configuration                                                                             
    4 entries                                                                                       
     n  l   j            E        occ.                                                              
     1  0  0.50      -273.3789   2.0000                                                             
     2  0  0.50       -13.7508   2.0000                                                             
     2  1  0.50        -5.2854   2.0000                                                             
     3  2  1.50        -5.4423   0.0000                                                             
   Description                                                                                      
     l       E           TYP  RCUT    TYP  RCUT                                                     
     0    -13.7508458     23  1.100                                                                 
     0     -8.2022199     23  1.100                                                                 
     1     -5.2854383     23  1.100                                                                 
     1      1.1560700     23  1.100                                                                 
     2     -5.4423304      7  1.100                                                                 
  local pseudopotential read in
  partial core-charges read in
  partial kinetic energy density read in
  atomic valenz-charges read in
  non local Contribution for L=           0  read in
    real space projection operators read in
  non local Contribution for L=           0  read in
    real space projection operators read in
  non local Contribution for L=           1  read in
    real space projection operators read in
  non local Contribution for L=           1  read in
    real space projection operators read in
    PAW grid and wavefunctions read in

   number of l-projection  operators is LMAX  =           4
   number of lm-projection operators is LMMAX =           8

 POTCAR:    PAW_PBE H_h 06Feb2004                 
   VRHFIN =H: ultrasoft test                                                                        
   LEXCH  = PE                                                                                      
   EATOM  =    12.4884 eV,    0.9179 Ry                                                             
                                                                                                    
   TITEL  = PAW_PBE H_h 06Feb2004                                                                   
   LULTRA =        F    use ultrasoft PP ?                                                          
   IUNSCR =        0    unscreen: 0-lin 1-nonlin 2-no                                               
   RPACOR =    0.000    partial core radius                                                         
   POMASS =    1.000; ZVAL   =    1.000    mass and valenz                                          
   RCORE  =    0.800    outmost cutoff radius                                                       
   RWIGS  =    0.700; RWIGS  =    0.370    wigner-seitz radius (au A)                               
   ENMAX  =  700.000; ENMIN  =  350.000 eV                                                          
   RCLOC  =    0.701    cutoff for local pot                                                        
   LCOR   =        T    correct aug charges                                                         
   LPAW   =        T    paw PP                                                                      
   EAUG   = 1000.000                                                                                
   RMAX   =    0.819    core radius for proj-oper                                                   
   RAUG   =    1.000    factor for augmentation sphere                                              
   RDEP   =    0.817    radius for radial grids                                                     
   RDEPT  =    0.817    core radius for aug-charge                                                  
                                                                                                    
   Atomic configuration                                                                             
    2 entries                                                                                       
     n  l   j            E        occ.                                                              
     1  0  0.50        -6.4927   1.0000                                                             
     2  1  0.50        -3.4015   0.0000                                                             
   Description                                                                                      
     l       E           TYP  RCUT    TYP  RCUT                                                     
     0     -6.4927493     23  0.800                                                                 
     0      6.8029130     23  0.800                                                                 
     1     -6.8029130     23  0.800                                                                 
  local pseudopotential read in
  atomic valenz-charges read in
  non local Contribution for L=           0  read in
    real space projection operators read in
  non local Contribution for L=           0  read in
    real space projection operators read in
  non local Contribution for L=           1  read in
    real space projection operators read in
    PAW grid and wavefunctions read in

   number of l-projection  operators is LMAX  =           3
   number of lm-projection operators is LMMAX =           5

 POTCAR:    PAW_PBE O_h 06Feb2004                 
   VRHFIN =O: s2p4                                                                                  
   LEXCH  = PE                                                                                      
   EATOM  =   432.3788 eV,   31.7789 Ry                                                             
                                                                                                    
   TITEL  = PAW_PBE O_h 06Feb2004                                                                   
   LULTRA =        F    use ultrasoft PP ?                                                          
   IUNSCR =        1    unscreen: 0-lin 1-nonlin 2-no                                               
   RPACOR =    0.800    partial core radius                                                         
   POMASS =   16.000; ZVAL   =    6.000    mass and valenz                                          
   RCORE  =    1.100    outmost cutoff radius                                                       
   RWIGS  =    1.400; RWIGS  =    0.741    wigner-seitz radius (au A)                               
   ENMAX  =  700.000; ENMIN  =  500.000 eV                                                          
   ICORE  =        2    local potential                                                             
   LCOR   =        T    correct aug charges                                                         
   LPAW   =        T    paw PP                                                                      
   EAUG   =  888.804                                                                                
   DEXC   =    0.000                                                                                
   RMAX   =    1.128    core radius for proj-oper                                                   
   RAUG   =    1.300    factor for augmentation sphere                                              
   RDEP   =    1.125    radius for radial grids                                                     
   RDEPT  =    1.088    core radius for aug-charge                                                  
                                                                                                    
   Atomic configuration                                                                             
    4 entries                                                                                       
     n  l   j            E        occ.                                                              
     1  0  0.50      -514.6923   2.0000                                                             
     2  0  0.50       -23.9615   2.0000                                                             
     2  1  0.50        -9.0305   4.0000                                                             
     3  2  1.50        -9.5241   0.0000                                                             
   Description                                                                                      
     l       E           TYP  RCUT    TYP  RCUT                                                     
     0    -23.9615319     23  1.100                                                                 
     0    -25.3221145     23  1.100                                                                 
     1     -9.0304911     23  1.100                                                                 
     1     -5.4802209     23  1.100                                                                 
     2     -9.5240782      7  1.100                                                                 
  local pseudopotential read in
  partial core-charges read in
  partial kinetic energy density read in
  atomic valenz-charges read in
  non local Contribution for L=           0  read in
    real space projection operators read in
  non local Contribution for L=           0  read in
    real space projection operators read in
  non local Contribution for L=           1  read in
    real space projection operators read in
  non local Contribution for L=           1  read in
    real space projection operators read in
    PAW grid and wavefunctions read in

   number of l-projection  operators is LMAX  =           4
   number of lm-projection operators is LMMAX =           8

 -----------------------------------------------------------------------------
|                                                                             |
|               ----> ADVICE to this user running VASP <----                  |
|                                                                             |
|     You enforced a specific xc type in the INCAR file but a different       |
|     type was found in the POTCAR file.                                      |
|     I HOPE YOU KNOW WHAT YOU ARE DOING!                                     |
|                                                                             |
 -----------------------------------------------------------------------------

  PAW_PBE C_h 06Feb2004                 :
 energy of atom  1       EATOM= -147.1560
 kinetic energy error for atom=    0.0031 (will be added to EATOM!!)
  PAW_PBE H_h 06Feb2004                 :
 energy of atom  2       EATOM=  -12.4884
 kinetic energy error for atom=    0.0006 (will be added to EATOM!!)
  PAW_PBE O_h 06Feb2004                 :
 energy of atom  3       EATOM= -432.3788
 kinetic energy error for atom=    0.0171 (will be added to EATOM!!)


 POSCAR:  C  H  O
  positions in cartesian coordinates
  No initial velocities read in
 exchange correlation table for  LEXCH =        9
   RHO(1)=    0.500       N(1)  =     2000
   RHO(2)=  100.500       N(2)  =     4000

 VTST: version 4.1, (05/19/21)

 CHAIN: initializing optimizer
 
 OPT: Using VASP Dynamics algorithm
 CHAIN: Read ICHAIN            0

 POSCAR:  C  H  O
  positions in cartesian coordinates
  No initial velocities read in



--------------------------------------------------------------------------------------------------------


 ion  position               nearest neighbor table
   1  0.518  0.480  0.473-   5 1.21   7 1.33   2 1.54
   2  0.482  0.520  0.527-   6 1.21   8 1.33   1 1.54
   3  0.464  0.411  0.504-   7 0.99
   4  0.536  0.589  0.496-   8 0.98
   5  0.561  0.505  0.437-   1 1.21
   6  0.439  0.495  0.563-   2 1.21
   7  0.498  0.416  0.469-   3 0.99   1 1.33
   8  0.502  0.584  0.531-   4 0.98   2 1.33

  LATTYP: Found a simple cubic cell.
 ALAT       =    20.0000000000
  
  Lattice vectors:
  
 A1 = (  20.0000000000,   0.0000000000,   0.0000000000)
 A2 = (   0.0000000000,  20.0000000000,   0.0000000000)
 A3 = (   0.0000000000,   0.0000000000,  20.0000000000)


Analysis of symmetry for initial positions (statically):
=====================================================================
 Subroutine PRICEL returns:
 Original cell was already a primitive cell.
 

 Routine SETGRP: Setting up the symmetry group for a 
 simple cubic supercell.


 Subroutine GETGRP returns: Found  1 space group operations
 (whereof  1 operations were pure point group operations)
 out of a pool of 48 trial point group operations.


The static configuration has the point symmetry C_1 .


Analysis of symmetry for dynamics (positions and initial velocities):
=====================================================================
 Subroutine PRICEL returns:
 Original cell was already a primitive cell.
 

 Routine SETGRP: Setting up the symmetry group for a 
 simple cubic supercell.


 Subroutine GETGRP returns: Found  1 space group operations
 (whereof  1 operations were pure point group operations)
 out of a pool of 48 trial point group operations.


The dynamic configuration has the point symmetry C_1 .


 Subroutine INISYM returns: Found  1 space group operations
 (whereof  1 operations are pure point group operations),
 and found     1 'primitive' translations


----------------------------------------------------------------------------------------

                                     Primitive cell                                     

  volume of cell :    8000.0000

  direct lattice vectors                    reciprocal lattice vectors
    20.000000000  0.000000000  0.000000000     0.050000000  0.000000000  0.000000000
     0.000000000 20.000000000  0.000000000     0.000000000  0.050000000  0.000000000
     0.000000000  0.000000000 20.000000000     0.000000000  0.000000000  0.050000000

  length of vectors
    20.000000000 20.000000000 20.000000000     0.050000000  0.050000000  0.050000000

  position of ions in fractional coordinates (direct lattice)
     0.518293500  0.479784500  0.472655750
     0.481704000  0.520187000  0.527336750
     0.463708000  0.410705500  0.503854750
     0.536252500  0.589294500  0.496108750
     0.560598500  0.504984500  0.437449750
     0.439401500  0.495016000  0.562550250
     0.498234500  0.416295000  0.469172750
     0.501723000  0.583682500  0.530771250

  ion indices of the primitive-cell ions
   primitive index   ion index
                 1           1
                 2           2
                 3           3
                 4           4
                 5           5
                 6           6
                 7           7
                 8           8

----------------------------------------------------------------------------------------



 KPOINTS: auto                                    

Automatic generation of k-mesh.
 Grid dimensions read from file:
 generate k-points for:    1    1    1

 Generating k-lattice:

  Cartesian coordinates                     Fractional coordinates (reciprocal lattice)
     0.050000000  0.000000000  0.000000000     1.000000000  0.000000000  0.000000000
     0.000000000  0.050000000  0.000000000     0.000000000  1.000000000  0.000000000
     0.000000000  0.000000000  0.050000000     0.000000000  0.000000000  1.000000000

  Length of vectors
     0.050000000  0.050000000  0.050000000

  Shift w.r.t. Gamma in fractional coordinates (k-lattice)
     0.000000000  0.000000000  0.000000000

 
 Subroutine IBZKPT returns following result:
 ===========================================
 
 Found      1 irreducible k-points:
 
 Following reciprocal coordinates:
            Coordinates               Weight
  0.000000  0.000000  0.000000      1.000000
 
 Following cartesian coordinates:
            Coordinates               Weight
  0.000000  0.000000  0.000000      1.000000
 


--------------------------------------------------------------------------------------------------------




 Dimension of arrays:
   k-points           NKPTS =      1   k-points in BZ     NKDIM =      1   number of bands    NBANDS=    256
   number of dos      NEDOS =    301   number of ions     NIONS =      8
   non local maximal  LDIM  =      4   non local SUM 2l+1 LMDIM =      8
   total plane-waves  NPLWV = ******
   max r-space proj   IRMAX =      1   max aug-charges    IRDMAX=   8641
   dimension x,y,z NGX =   210 NGY =  210 NGZ =  210
   dimension x,y,z NGXF=   420 NGYF=  420 NGZF=  420
   support grid    NGXF=   420 NGYF=  420 NGZF=  420
   ions per type =               2   2   4
   NGX,Y,Z   is equivalent  to a cutoff of  17.46, 17.46, 17.46 a.u.
   NGXF,Y,Z  is equivalent  to a cutoff of  34.91, 34.91, 34.91 a.u.

 SYSTEM =  unknown system                          
 POSCAR =   C  H  O                                

 Startparameter for this run:
   NWRITE =      2    write-flag & timer
   PREC   = accura    normal or accurate (medium, high low for compatibility)
   ISTART =      0    job   : 0-new  1-cont  2-samecut
   ICHARG =      2    charge: 1-file 2-atom 10-const
   ISPIN  =      1    spin polarized calculation?
   LNONCOLLINEAR =      F non collinear calculations
   LSORBIT =      F    spin-orbit coupling
   INIWAV =      1    electr: 0-lowe 1-rand  2-diag
   LASPH  =      F    aspherical Exc in radial PAW
 Electronic Relaxation 1
   ENCUT  = 1000.0 eV  73.50 Ry    8.57 a.u.  51.57 51.57 51.57*2*pi/ulx,y,z
   ENINI  = 1000.0     initial cutoff
   ENAUG  = 1000.0 eV  augmentation charge cutoff
   NELM   =     60;   NELMIN=  2; NELMDL= -5     # of ELM steps 
   EDIFF  = 0.1E-06   stopping-criterion for ELM
   LREAL  =      F    real-space projection
   NLSPLINE    = F    spline interpolate recip. space projectors
   LCOMPAT=      F    compatible to vasp.4.4
   GGA_COMPAT  = T    GGA compatible to vasp.4.4-vasp.4.6
   LMAXPAW     = -100 max onsite density
   LMAXMIX     =    2 max onsite mixed and CHGCAR
   VOSKOWN=      0    Vosko Wilk Nusair interpolation
   ROPT   =    0.00000   0.00000   0.00000
 Ionic relaxation
   EDIFFG = 0.1E-05   stopping-criterion for IOM
   NSW    =      0    number of steps for IOM
   NBLOCK =      1;   KBLOCK =      1    inner block; outer block 
   IBRION =     -1    ionic relax: 0-MD 1-quasi-New 2-CG
   NFREE  =      0    steps in history (QN), initial steepest desc. (CG)
   ISIF   =      0    stress and relaxation
   IWAVPR =     10    prediction:  0-non 1-charg 2-wave 3-comb
   ISYM   =      2    0-nonsym 1-usesym 2-fastsym
   LCORR  =      T    Harris-Foulkes like correction to forces

   POTIM  = 0.5000    time-step for ionic-motion
   TEIN   =    0.0    initial temperature
   TEBEG  =    0.0;   TEEND  =   0.0 temperature during run
   SMASS  =  -3.00    Nose mass-parameter (am)
   estimated Nose-frequenzy (Omega)   =  0.10E-29 period in steps = 0.13E+47 mass=  -0.914E-26a.u.
   SCALEE = 1.0000    scale energy and forces
   NPACO  =    256;   APACO  = 10.0  distance and # of slots for P.C.
   PSTRESS=    0.0 pullay stress

  Mass of Ions in am
   POMASS =  12.01  1.00 16.00
  Ionic Valenz
   ZVAL   =   4.00  1.00  6.00
  Atomic Wigner-Seitz radii
   RWIGS  =  -1.00 -1.00 -1.00
  virtual crystal weights 
   VCA    =   1.00  1.00  1.00
   NELECT =      34.0000    total number of electrons
   NUPDOWN=      -1.0000    fix difference up-down

 DOS related values:
   EMIN   =  10.00;   EMAX   =-10.00  energy-range for DOS
   EFERMI =   0.00;   METHOD = LEGACY      
   ISMEAR =     0;   SIGMA  =   0.01  broadening in eV -4-tet -1-fermi 0-gaus

 Electronic relaxation 2 (details)
   IALGO  =     58    algorithm
   LDIAG  =      T    sub-space diagonalisation (order eigenvalues)
   LSUBROT=      F    optimize rotation matrix (better conditioning)
   TURBO    =      0    0=normal 1=particle mesh
   IRESTART =      0    0=no restart 2=restart with 2 vectors
   NREBOOT  =      0    no. of reboots
   NMIN     =      0    reboot dimension
   EREF     =   0.00    reference energy to select bands
   IMIX   =      4    mixing-type and parameters
     AMIX     =   0.40;   BMIX     =  1.00
     AMIX_MAG =   1.60;   BMIX_MAG =  1.00
     AMIN     =   0.10
     WC   =   100.;   INIMIX=   1;  MIXPRE=   1;  MAXMIX= -45

 Intra band minimization:
   WEIMIN = 0.0000     energy-eigenvalue tresh-hold
   EBREAK =  0.98E-10  absolut break condition
   DEPER  =   0.30     relativ break condition  

   TIME   =   0.40     timestep for ELM

  volume/ion in A,a.u.               =    1000.00      6748.33
  Fermi-wavevector in a.u.,A,eV,Ry     =   0.265178  0.501114  0.956755  0.070319
  Thomas-Fermi vector in A             =   1.098052

 Write flags
   LWAVE        =      F    write WAVECAR
   LDOWNSAMPLE  =      F    k-point downsampling of WAVECAR
   LCHARG       =      F    write CHGCAR
   LVTOT        =      F    write LOCPOT, total local potential
   LVHAR        =      F    write LOCPOT, Hartree potential only
   LELF         =      F    write electronic localiz. function (ELF)
   LORBIT       =      0    0 simple, 1 ext, 2 COOP (PROOUT), +10 PAW based schemes


 Dipole corrections
   LMONO  =      F    monopole corrections only (constant potential shift)
   LDIPOL =      F    correct potential (dipole corrections)
   IDIPOL =      0    1-x, 2-y, 3-z, 4-all directions 
   EPSILON=  1.0000000 bulk dielectric constant

 Exchange correlation treatment:
   GGA     =    RP    GGA type
   LEXCH   =     9    internal setting for exchange type
   LIBXC   =     F    Libxc                    
   VOSKOWN =     0    Vosko Wilk Nusair interpolation
   LHFCALC =     F    Hartree Fock is set to
   LHFONE  =     F    Hartree Fock one center treatment
   AEXX    =    0.0000 exact exchange contribution

 Linear response parameters
   LEPSILON=     F    determine dielectric tensor
   LRPA    =     F    only Hartree local field effects (RPA)
   LNABLA  =     F    use nabla operator in PAW spheres
   LVEL    =     F    velocity operator in full k-point grid
   CSHIFT  =0.1000    complex shift for real part using Kramers Kronig
   OMEGAMAX=  -1.0    maximum frequency
   DEG_THRESHOLD= 0.2000000E-02 threshold for treating states as degnerate
   RTIME   =   -0.100 relaxation time in fs
  (WPLASMAI=    0.000 imaginary part of plasma frequency in eV, 0.658/RTIME)
   DFIELD  = 0.0000000 0.0000000 0.0000000 field for delta impulse in time

  Optional k-point grid parameters
   LKPOINTS_OPT  =     F    use optional k-point grid
   KPOINTS_OPT_MODE=     1    mode for optional k-point grid

 Orbital magnetization related:
   ORBITALMAG=     F  switch on orbital magnetization
   LCHIMAG   =     F  perturbation theory with respect to B field
   DQ        =  0.001000  dq finite difference perturbation B field
   LLRAUG    =     F  two centre corrections for induced B field
   LBONE     =     F  B-component reconstruction in AE one-centre
   LVGVCALC  =     T  calculate vGv susceptibility
   LVGVAPPL  =     F  apply vGv susceptibility instead of pGv for G=0

 Random number generation:
   RANDOM_GENERATOR = DEFAULT
   PCG_SEED         = not used


--------------------------------------------------------------------------------------------------------


 Static calculation
 charge density and potential will be updated during run
 non-spin polarized calculation
 Conjugate gradient for all bands (Freysoldt, et al. PRB 79, 241103 (2009))
 preconditioned conjugated gradient                                        
 perform sub-space diagonalisation
    before iterative eigenvector-optimisation
 modified Broyden-mixing scheme, WC =      100.0
 initial mixing is a Kerker type mixing with AMIX =  0.4000 and BMIX =      1.0000
 Hartree-type preconditioning will be used
 using additional bands          239
 reciprocal scheme for non local part
 use partial core corrections
 no Harris-corrections to forces 
 use gradient corrections 
 use of overlap-Matrix (Vanderbilt PP)
 Gauss-broadening in eV      SIGMA  =   0.01


--------------------------------------------------------------------------------------------------------


  energy-cutoff  :     1000.00
  volume of cell :     8000.00
      direct lattice vectors                 reciprocal lattice vectors
    20.000000000  0.000000000  0.000000000     0.050000000  0.000000000  0.000000000
     0.000000000 20.000000000  0.000000000     0.000000000  0.050000000  0.000000000
     0.000000000  0.000000000 20.000000000     0.000000000  0.000000000  0.050000000

  length of vectors
    20.000000000 20.000000000 20.000000000     0.050000000  0.050000000  0.050000000



 k-points in units of 2pi/SCALE and weight: auto                                    
   0.00000000  0.00000000  0.00000000       1.000

 k-points in reciprocal lattice and weights: auto                                    
   0.00000000  0.00000000  0.00000000       1.000

 position of ions in fractional coordinates (direct lattice) 
   0.51829350  0.47978450  0.47265575
   0.48170400  0.52018700  0.52733675
   0.46370800  0.41070550  0.50385475
   0.53625250  0.58929450  0.49610875
   0.56059850  0.50498450  0.43744975
   0.43940150  0.49501600  0.56255025
   0.49823450  0.41629500  0.46917275
   0.50172300  0.58368250  0.53077125

 position of ions in cartesian coordinates  (Angst):
  10.36587000  9.59569000  9.45311500
   9.63408000 10.40374000 10.54673500
   9.27416000  8.21411000 10.07709500
  10.72505000 11.78589000  9.92217500
  11.21197000 10.09969000  8.74899500
   8.78803000  9.90032000 11.25100500
   9.96469000  8.32590000  9.38345500
  10.03446000 11.67365000 10.61542500



--------------------------------------------------------------------------------------------------------


 use parallel FFT for orbitals z direction half grid
 k-point   1 :   0.0000 0.0000 0.0000  plane waves:  287166

 maximum and minimum number of plane-waves per node :    143587   143579

 maximum number of plane-waves:    287166
 maximum index in each direction: 
   IXMAX=   51   IYMAX=   51   IZMAX=   51
   IXMIN=  -51   IYMIN=  -51   IZMIN=    0


 parallel 3D FFT for wavefunctions:
    minimum data exchange during FFTs selected (reduces bandwidth)
 parallel 3D FFT for charge:
    minimum data exchange during FFTs selected (reduces bandwidth)


 total amount of memory used by VASP MPI-rank0   382402. kBytes
=======================================================================

   base      :      30000. kBytes
   nonl-proj :      45957. kBytes
   fftplans  :     102640. kBytes
   grid      :     196902. kBytes
   one-center:          6. kBytes
   wavefun   :       6897. kBytes

     INWAV:  cpu time      0.0000: real time      0.0000
 Broyden mixing: mesh for mixing (old mesh)
   NGX =103   NGY =103   NGZ =103
  (NGX  =420   NGY  =420   NGZ  =420)
  gives a total of ****** points

 initial charge density was supplied:
 charge density of overlapping atoms calculated
 number of electron      34.0000000 magnetization 
 keeping initial charge density in first step


--------------------------------------------------------------------------------------------------------


 Maximum index for augmentation-charges            0 (set IRDMAX)


--------------------------------------------------------------------------------------------------------


 First call to EWALD:  gamma=   0.089
 Maximum number of real-space cells 3x 3x 3
 Maximum number of reciprocal cells 3x 3x 3

    FEWALD:  cpu time      0.0020: real time      0.0021


--------------------------------------- Ionic step        1  -------------------------------------------




--------------------------------------- Iteration      1(   1)  ---------------------------------------


    POTLOK:  cpu time      0.6088: real time      0.6099
    SETDIJ:  cpu time      0.0123: real time      0.0124
    TRIAL :  cpu time      4.1540: real time      4.1580
    CORREC:  cpu time      0.0025: real time      0.0026
    --------------------------------------------
      LOOP:  cpu time      4.7860: real time      4.7918

 eigenvalue-minimisations  :   512
 total energy-change (2. order) : 0.4345584E+03  (-0.1527088E+04)
 number of electron      34.0000000 magnetization 
 augmentation part       34.0000000 magnetization 

 Free energy of the ion-electron system (eV)
  ---------------------------------------------------
  alpha Z        PSCENC =         0.40154822
  Ewald energy   TEWEN  =      2257.36198512
  -Hartree energ DENC   =     -3871.20669808
  -exchange      EXHF   =         0.00000000
  -V(xc)+E(xc)   XCENC  =       121.53889492
  PAW double counting   =      1620.58601534    -1613.65391008
  entropy T*S    EENTRO =        -0.00540562
  eigenvalues    EBANDS =      -129.21165780
  atomic energy  EATOM  =      2048.74767069
  ---------------------------------------------------
  free energy    TOTEN  =       434.55844271 eV

  energy without entropy =      434.56384833  energy(sigma->0) =      434.56114552


--------------------------------------------------------------------------------------------------------




--------------------------------------- Iteration      1(   2)  ---------------------------------------


    TRIAL :  cpu time     12.1629: real time     12.1691
    CORREC:  cpu time      0.0002: real time      0.0002
    --------------------------------------------
      LOOP:  cpu time     12.1809: real time     12.1997

 eigenvalue-minimisations  :  1024
 total energy-change (2. order) :-0.4810332E+03  (-0.4797640E+03)
 number of electron      34.0000000 magnetization 
 augmentation part       34.0000000 magnetization 

 Free energy of the ion-electron system (eV)
  ---------------------------------------------------
  alpha Z        PSCENC =         0.40154822
  Ewald energy   TEWEN  =      2257.36198512
  -Hartree energ DENC   =     -3871.20669808
  -exchange      EXHF   =         0.00000000
  -V(xc)+E(xc)   XCENC  =       121.53889492
  PAW double counting   =      1620.58601534    -1613.65391008
  entropy T*S    EENTRO =        -0.00000000
  eigenvalues    EBANDS =      -610.25023907
  atomic energy  EATOM  =      2048.74767069
  ---------------------------------------------------
  free energy    TOTEN  =       -46.47473295 eV

  energy without entropy =      -46.47473295  energy(sigma->0) =      -46.47473295


--------------------------------------------------------------------------------------------------------




--------------------------------------- Iteration      1(   3)  ---------------------------------------


    TRIAL :  cpu time      4.2918: real time      4.2944
    CORREC:  cpu time      0.0002: real time      0.0002
    --------------------------------------------
      LOOP:  cpu time      4.3069: real time      4.3260

 eigenvalue-minimisations  :   512
 total energy-change (2. order) :-0.8773465E+01  (-0.8773465E+01)
 number of electron      34.0000000 magnetization 
 augmentation part       34.0000000 magnetization 

 Free energy of the ion-electron system (eV)
  ---------------------------------------------------
  alpha Z        PSCENC =         0.40154822
  Ewald energy   TEWEN  =      2257.36198512
  -Hartree energ DENC   =     -3871.20669808
  -exchange      EXHF   =         0.00000000
  -V(xc)+E(xc)   XCENC  =       121.53889492
  PAW double counting   =      1620.58601534    -1613.65391008
  entropy T*S    EENTRO =        -0.00000000
  eigenvalues    EBANDS =      -619.02370444
  atomic energy  EATOM  =      2048.74767069
  ---------------------------------------------------
  free energy    TOTEN  =       -55.24819831 eV

  energy without entropy =      -55.24819831  energy(sigma->0) =      -55.24819831


--------------------------------------------------------------------------------------------------------




--------------------------------------- Iteration      1(   4)  ---------------------------------------


    TRIAL :  cpu time     11.9210: real time     11.9269
    CORREC:  cpu time      0.0002: real time      0.0002
    --------------------------------------------
      LOOP:  cpu time     11.9532: real time     11.9593

 eigenvalue-minimisations  :  1024
 total energy-change (2. order) :-0.7319764E-01  (-0.7319764E-01)
 number of electron      34.0000000 magnetization 
 augmentation part       34.0000000 magnetization 

 Free energy of the ion-electron system (eV)
  ---------------------------------------------------
  alpha Z        PSCENC =         0.40154822
  Ewald energy   TEWEN  =      2257.36198512
  -Hartree energ DENC   =     -3871.20669808
  -exchange      EXHF   =         0.00000000
  -V(xc)+E(xc)   XCENC  =       121.53889492
  PAW double counting   =      1620.58601534    -1613.65391008
  entropy T*S    EENTRO =        -0.00000000
  eigenvalues    EBANDS =      -619.09690208
  atomic energy  EATOM  =      2048.74767069
  ---------------------------------------------------
  free energy    TOTEN  =       -55.32139596 eV

  energy without entropy =      -55.32139596  energy(sigma->0) =      -55.32139596


--------------------------------------------------------------------------------------------------------




--------------------------------------- Iteration      1(   5)  ---------------------------------------


    TRIAL :  cpu time      4.2904: real time      4.2928
    CORREC:  cpu time      0.0002: real time      0.0002
    CHARGE:  cpu time      0.9642: real time      0.9679
    --------------------------------------------
      LOOP:  cpu time      5.2739: real time      5.2919

 eigenvalue-minimisations  :   512
 total energy-change (2. order) :-0.3065987E-05  (-0.3065316E-05)
 number of electron      34.0000000 magnetization 
 augmentation part        0.2818157 magnetization 

 Free energy of the ion-electron system (eV)
  ---------------------------------------------------
  alpha Z        PSCENC =         0.40154822
  Ewald energy   TEWEN  =      2257.36198512
  -Hartree energ DENC   =     -3871.20669808
  -exchange      EXHF   =         0.00000000
  -V(xc)+E(xc)   XCENC  =       121.53889492
  PAW double counting   =      1620.58601534    -1613.65391008
  entropy T*S    EENTRO =        -0.00000000
  eigenvalues    EBANDS =      -619.09690515
  atomic energy  EATOM  =      2048.74767069
  ---------------------------------------------------
  free energy    TOTEN  =       -55.32139902 eV

  energy without entropy =      -55.32139902  energy(sigma->0) =      -55.32139902


--------------------------------------------------------------------------------------------------------




--------------------------------------- Iteration      1(   6)  ---------------------------------------


    POTLOK:  cpu time      0.3409: real time      0.3413
    SETDIJ:  cpu time      0.0016: real time      0.0016
    TRIAL :  cpu time      1.8386: real time      1.8406
    CORREC:  cpu time      1.8472: real time      1.8481
    CHARGE:  cpu time      0.9378: real time      0.9381
    --------------------------------------------
      LOOP:  cpu time      4.9832: real time      5.0033

 eigenvalue-minimisations  :     0
 total energy-change (2. order) : 0.1000526E+02  (-0.4883376E+01)
 number of electron      34.0000000 magnetization 
 augmentation part        0.1915452 magnetization 

 Free energy of the ion-electron system (eV)
  ---------------------------------------------------
  alpha Z        PSCENC =         0.40154822
  Ewald energy   TEWEN  =      2257.36198512
  -Hartree energ DENC   =     -4066.53838678
  -exchange      EXHF   =         0.00000000
  -V(xc)+E(xc)   XCENC  =       132.17325622
  PAW double counting   =     18148.52080027   -18143.72279209
  entropy T*S    EENTRO =        -0.00000000
  eigenvalues    EBANDS =      -422.26022368
  atomic energy  EATOM  =      2048.74767069
  ---------------------------------------------------
  free energy    TOTEN  =       -45.31614202 eV

  energy without entropy =      -45.31614202  energy(sigma->0) =      -45.31614202


--------------------------------------------------------------------------------------------------------




--------------------------------------- Iteration      1(   7)  ---------------------------------------


    POTLOK:  cpu time      0.3368: real time      0.3369
    SETDIJ:  cpu time      0.0016: real time      0.0016
    TRIAL :  cpu time      1.7864: real time      1.7877
    CORREC:  cpu time      1.7821: real time      1.7826
    CHARGE:  cpu time      0.9374: real time      0.9380
    --------------------------------------------
      LOOP:  cpu time      4.8766: real time      4.8794

 eigenvalue-minimisations  :     0
 total energy-change (2. order) :-0.4906994E+01  (-0.7197274E+00)
 number of electron      34.0000000 magnetization 
 augmentation part        0.1530227 magnetization 

 Free energy of the ion-electron system (eV)
  ---------------------------------------------------
  alpha Z        PSCENC =         0.40154822
  Ewald energy   TEWEN  =      2257.36198512
  -Hartree energ DENC   =     -3971.20550680
  -exchange      EXHF   =         0.00000000
  -V(xc)+E(xc)   XCENC  =       127.01413587
  PAW double counting   =     22645.35074566   -22639.52415955
  entropy T*S    EENTRO =        -0.00000000
  eigenvalues    EBANDS =      -518.36955498
  atomic energy  EATOM  =      2048.74767069
  ---------------------------------------------------
  free energy    TOTEN  =       -50.22313578 eV

  energy without entropy =      -50.22313578  energy(sigma->0) =      -50.22313578


--------------------------------------------------------------------------------------------------------




--------------------------------------- Iteration      1(   8)  ---------------------------------------


    POTLOK:  cpu time      0.3361: real time      0.3361
    SETDIJ:  cpu time      0.0016: real time      0.0016
    TRIAL :  cpu time      1.7926: real time      1.7938
    CORREC:  cpu time      1.7772: real time      1.7777
    CHARGE:  cpu time      0.9380: real time      0.9385
    --------------------------------------------
      LOOP:  cpu time      4.8625: real time      4.8780

 eigenvalue-minimisations  :     0
 total energy-change (2. order) :-0.7204061E+00  (-0.2665521E+00)
 number of electron      34.0000000 magnetization 
 augmentation part        0.1510442 magnetization 

 Free energy of the ion-electron system (eV)
  ---------------------------------------------------
  alpha Z        PSCENC =         0.40154822
  Ewald energy   TEWEN  =      2257.36198512
  -Hartree energ DENC   =     -3975.91899591
  -exchange      EXHF   =         0.00000000
  -V(xc)+E(xc)   XCENC  =       126.82544718
  PAW double counting   =     22955.08903450   -22949.04017525
  entropy T*S    EENTRO =        -0.00000000
  eigenvalues    EBANDS =      -514.41005641
  atomic energy  EATOM  =      2048.74767069
  ---------------------------------------------------
  free energy    TOTEN  =       -50.94354187 eV

  energy without entropy =      -50.94354187  energy(sigma->0) =      -50.94354187


--------------------------------------------------------------------------------------------------------




--------------------------------------- Iteration      1(   9)  ---------------------------------------


    POTLOK:  cpu time      0.3402: real time      0.3406
    SETDIJ:  cpu time      0.0016: real time      0.0016
    TRIAL :  cpu time      1.7899: real time      1.7905
    CORREC:  cpu time      1.7924: real time      1.7928
    CHARGE:  cpu time      0.9339: real time      0.9343
    --------------------------------------------
      LOOP:  cpu time      4.8746: real time      4.8939

 eigenvalue-minimisations  :     0
 total energy-change (2. order) :-0.2660463E+00  (-0.1073601E+00)
 number of electron      34.0000000 magnetization 
 augmentation part        0.1547524 magnetization 

 Free energy of the ion-electron system (eV)
  ---------------------------------------------------
  alpha Z        PSCENC =         0.40154822
  Ewald energy   TEWEN  =      2257.36198512
  -Hartree energ DENC   =     -3977.03495807
  -exchange      EXHF   =         0.00000000
  -V(xc)+E(xc)   XCENC  =       126.72251599
  PAW double counting   =     23261.87702904   -23255.80061616
  entropy T*S    EENTRO =        -0.00000000
  eigenvalues    EBANDS =      -513.48476298
  atomic energy  EATOM  =      2048.74767069
  ---------------------------------------------------
  free energy    TOTEN  =       -51.20958815 eV

  energy without entropy =      -51.20958815  energy(sigma->0) =      -51.20958815


--------------------------------------------------------------------------------------------------------




--------------------------------------- Iteration      1(  10)  ---------------------------------------


    POTLOK:  cpu time      0.3396: real time      0.3400
    SETDIJ:  cpu time      0.0016: real time      0.0016
    TRIAL :  cpu time      1.7897: real time      1.7904
    CORREC:  cpu time      1.7807: real time      1.7815
    CHARGE:  cpu time      0.9542: real time      0.9545
    --------------------------------------------
      LOOP:  cpu time      4.8962: real time      4.8987

 eigenvalue-minimisations  :     0
 total energy-change (2. order) :-0.1066869E+00  (-0.3695097E-01)
 number of electron      34.0000000 magnetization 
 augmentation part        0.1558756 magnetization 

 Free energy of the ion-electron system (eV)
  ---------------------------------------------------
  alpha Z        PSCENC =         0.40154822
  Ewald energy   TEWEN  =      2257.36198512
  -Hartree energ DENC   =     -3971.80448511
  -exchange      EXHF   =         0.00000000
  -V(xc)+E(xc)   XCENC  =       126.51633068
  PAW double counting   =     22809.55328729   -22803.49195660
  entropy T*S    EENTRO =        -0.00000000
  eigenvalues    EBANDS =      -518.60065530
  atomic energy  EATOM  =      2048.74767069
  ---------------------------------------------------
  free energy    TOTEN  =       -51.31627502 eV

  energy without entropy =      -51.31627502  energy(sigma->0) =      -51.31627502


--------------------------------------------------------------------------------------------------------




--------------------------------------- Iteration      1(  11)  ---------------------------------------


    POTLOK:  cpu time      0.3433: real time      0.3436
    SETDIJ:  cpu time      0.0016: real time      0.0016
    TRIAL :  cpu time      1.7992: real time      1.7999
    CORREC:  cpu time      1.7859: real time      1.7869
    CHARGE:  cpu time      0.9308: real time      0.9312
    --------------------------------------------
      LOOP:  cpu time      4.8756: real time      4.8937

 eigenvalue-minimisations  :     0
 total energy-change (2. order) :-0.3688736E-01  (-0.1169079E-01)
 number of electron      34.0000000 magnetization 
 augmentation part        0.1564950 magnetization 

 Free energy of the ion-electron system (eV)
  ---------------------------------------------------
  alpha Z        PSCENC =         0.40154822
  Ewald energy   TEWEN  =      2257.36198512
  -Hartree energ DENC   =     -3968.88420863
  -exchange      EXHF   =         0.00000000
  -V(xc)+E(xc)   XCENC  =       126.42645568
  PAW double counting   =     22327.10873190   -22321.06120942
  entropy T*S    EENTRO =        -0.00000000
  eigenvalues    EBANDS =      -521.45413594
  atomic energy  EATOM  =      2048.74767069
  ---------------------------------------------------
  free energy    TOTEN  =       -51.35316238 eV

  energy without entropy =      -51.35316238  energy(sigma->0) =      -51.35316238


--------------------------------------------------------------------------------------------------------




--------------------------------------- Iteration      1(  12)  ---------------------------------------


    POTLOK:  cpu time      0.3412: real time      0.3412
    SETDIJ:  cpu time      0.0016: real time      0.0016
    TRIAL :  cpu time      1.7948: real time      1.7957
    CORREC:  cpu time      1.7804: real time      1.7811
    CHARGE:  cpu time      0.9395: real time      0.9398
    --------------------------------------------
      LOOP:  cpu time      4.8706: real time      4.8915

 eigenvalue-minimisations  :     0
 total energy-change (2. order) :-0.1167858E-01  (-0.3223844E-02)
 number of electron      34.0000000 magnetization 
 augmentation part        0.1561938 magnetization 

 Free energy of the ion-electron system (eV)
  ---------------------------------------------------
  alpha Z        PSCENC =         0.40154822
  Ewald energy   TEWEN  =      2257.36198512
  -Hartree energ DENC   =     -3967.87642327
  -exchange      EXHF   =         0.00000000
  -V(xc)+E(xc)   XCENC  =       126.39550542
  PAW double counting   =     22198.19902160   -22192.15776620
  entropy T*S    EENTRO =        -0.00000000
  eigenvalues    EBANDS =      -522.43638254
  atomic energy  EATOM  =      2048.74767069
  ---------------------------------------------------
  free energy    TOTEN  =       -51.36484097 eV

  energy without entropy =      -51.36484097  energy(sigma->0) =      -51.36484097


--------------------------------------------------------------------------------------------------------




--------------------------------------- Iteration      1(  13)  ---------------------------------------


    POTLOK:  cpu time      0.3357: real time      0.3357
    SETDIJ:  cpu time      0.0016: real time      0.0016
    TRIAL :  cpu time      1.7876: real time      1.7889
    CORREC:  cpu time      1.7571: real time      1.7582
    CHARGE:  cpu time      0.9384: real time      0.9387
    --------------------------------------------
      LOOP:  cpu time      4.8343: real time      4.8533

 eigenvalue-minimisations  :     0
 total energy-change (2. order) :-0.3220827E-02  (-0.8180864E-03)
 number of electron      34.0000000 magnetization 
 augmentation part        0.1558168 magnetization 

 Free energy of the ion-electron system (eV)
  ---------------------------------------------------
  alpha Z        PSCENC =         0.40154822
  Ewald energy   TEWEN  =      2257.36198512
  -Hartree energ DENC   =     -3967.17422217
  -exchange      EXHF   =         0.00000000
  -V(xc)+E(xc)   XCENC  =       126.37250615
  PAW double counting   =     22224.37390859   -22218.33045923
  entropy T*S    EENTRO =        -0.00000000
  eigenvalues    EBANDS =      -523.12099917
  atomic energy  EATOM  =      2048.74767069
  ---------------------------------------------------
  free energy    TOTEN  =       -51.36806179 eV

  energy without entropy =      -51.36806179  energy(sigma->0) =      -51.36806179


--------------------------------------------------------------------------------------------------------




--------------------------------------- Iteration      1(  14)  ---------------------------------------


    POTLOK:  cpu time      0.3312: real time      0.3313
    SETDIJ:  cpu time      0.0016: real time      0.0016
    TRIAL :  cpu time      1.7880: real time      1.7891
    CORREC:  cpu time      1.7704: real time      1.7710
    CHARGE:  cpu time      0.9527: real time      0.9530
    --------------------------------------------
      LOOP:  cpu time      4.8620: real time      4.8764

 eigenvalue-minimisations  :     0
 total energy-change (2. order) :-0.8167770E-03  (-0.2300273E-03)
 number of electron      34.0000000 magnetization 
 augmentation part        0.1556398 magnetization 

 Free energy of the ion-electron system (eV)
  ---------------------------------------------------
  alpha Z        PSCENC =         0.40154822
  Ewald energy   TEWEN  =      2257.36198512
  -Hartree energ DENC   =     -3967.00405306
  -exchange      EXHF   =         0.00000000
  -V(xc)+E(xc)   XCENC  =       126.36926665
  PAW double counting   =     22255.85175974   -22249.80656554
  entropy T*S    EENTRO =        -0.00000000
  eigenvalues    EBANDS =      -523.29049039
  atomic energy  EATOM  =      2048.74767069
  ---------------------------------------------------
  free energy    TOTEN  =       -51.36887857 eV

  energy without entropy =      -51.36887857  energy(sigma->0) =      -51.36887857


--------------------------------------------------------------------------------------------------------




--------------------------------------- Iteration      1(  15)  ---------------------------------------


    POTLOK:  cpu time      0.3331: real time      0.3331
    SETDIJ:  cpu time      0.0016: real time      0.0016
    TRIAL :  cpu time      1.7945: real time      1.7961
    CORREC:  cpu time      1.7660: real time      1.7670
    CHARGE:  cpu time      0.9499: real time      0.9503
    --------------------------------------------
      LOOP:  cpu time      4.8761: real time      4.8793

 eigenvalue-minimisations  :     0
 total energy-change (2. order) :-0.2290706E-03  (-0.7217938E-04)
 number of electron      34.0000000 magnetization 
 augmentation part        0.1555837 magnetization 

 Free energy of the ion-electron system (eV)
  ---------------------------------------------------
  alpha Z        PSCENC =         0.40154822
  Ewald energy   TEWEN  =      2257.36198512
  -Hartree energ DENC   =     -3967.11684671
  -exchange      EXHF   =         0.00000000
  -V(xc)+E(xc)   XCENC  =       126.37461041
  PAW double counting   =     22267.49144716   -22261.44600233
  entropy T*S    EENTRO =        -0.00000000
  eigenvalues    EBANDS =      -523.18352020
  atomic energy  EATOM  =      2048.74767069
  ---------------------------------------------------
  free energy    TOTEN  =       -51.36910764 eV

  energy without entropy =      -51.36910764  energy(sigma->0) =      -51.36910764


--------------------------------------------------------------------------------------------------------




--------------------------------------- Iteration      1(  16)  ---------------------------------------


    POTLOK:  cpu time      0.3308: real time      0.3308
    SETDIJ:  cpu time      0.0016: real time      0.0016
    TRIAL :  cpu time      1.7868: real time      1.7881
    CORREC:  cpu time      1.7581: real time      1.7587
    CHARGE:  cpu time      0.9395: real time      0.9396
    --------------------------------------------
      LOOP:  cpu time      4.8305: real time      4.8506

 eigenvalue-minimisations  :     0
 total energy-change (2. order) :-0.7202984E-04  (-0.2431191E-04)
 number of electron      34.0000000 magnetization 
 augmentation part        0.1556146 magnetization 

 Free energy of the ion-electron system (eV)
  ---------------------------------------------------
  alpha Z        PSCENC =         0.40154822
  Ewald energy   TEWEN  =      2257.36198512
  -Hartree energ DENC   =     -3967.14151470
  -exchange      EXHF   =         0.00000000
  -V(xc)+E(xc)   XCENC  =       126.37486911
  PAW double counting   =     22268.18018660   -22262.13451278
  entropy T*S    EENTRO =        -0.00000000
  eigenvalues    EBANDS =      -523.15941193
  atomic energy  EATOM  =      2048.74767069
  ---------------------------------------------------
  free energy    TOTEN  =       -51.36917967 eV

  energy without entropy =      -51.36917967  energy(sigma->0) =      -51.36917967


--------------------------------------------------------------------------------------------------------




--------------------------------------- Iteration      1(  17)  ---------------------------------------


    POTLOK:  cpu time      0.3266: real time      0.3268
    SETDIJ:  cpu time      0.0016: real time      0.0016
    TRIAL :  cpu time      1.7867: real time      1.7874
    CORREC:  cpu time      1.7774: real time      1.7777
    CHARGE:  cpu time      0.9293: real time      0.9297
    --------------------------------------------
      LOOP:  cpu time      4.8355: real time      4.8542

 eigenvalue-minimisations  :     0
 total energy-change (2. order) :-0.2439830E-04  (-0.8023707E-05)
 number of electron      34.0000000 magnetization 
 augmentation part        0.1556345 magnetization 

 Free energy of the ion-electron system (eV)
  ---------------------------------------------------
  alpha Z        PSCENC =         0.40154822
  Ewald energy   TEWEN  =      2257.36198512
  -Hartree energ DENC   =     -3967.18306527
  -exchange      EXHF   =         0.00000000
  -V(xc)+E(xc)   XCENC  =       126.37656118
  PAW double counting   =     22263.52230917   -22257.47691782
  entropy T*S    EENTRO =        -0.00000000
  eigenvalues    EBANDS =      -523.11929536
  atomic energy  EATOM  =      2048.74767069
  ---------------------------------------------------
  free energy    TOTEN  =       -51.36920407 eV

  energy without entropy =      -51.36920407  energy(sigma->0) =      -51.36920407


--------------------------------------------------------------------------------------------------------




--------------------------------------- Iteration      1(  18)  ---------------------------------------


    POTLOK:  cpu time      0.3306: real time      0.3310
    SETDIJ:  cpu time      0.0016: real time      0.0016
    TRIAL :  cpu time      1.7988: real time      1.7996
    CORREC:  cpu time      1.7657: real time      1.7665
    CHARGE:  cpu time      0.9389: real time      0.9393
    --------------------------------------------
      LOOP:  cpu time      4.8660: real time      4.8686

 eigenvalue-minimisations  :     0
 total energy-change (2. order) :-0.8080675E-05  (-0.2620813E-05)
 number of electron      34.0000000 magnetization 
 augmentation part        0.1556269 magnetization 

 Free energy of the ion-electron system (eV)
  ---------------------------------------------------
  alpha Z        PSCENC =         0.40154822
  Ewald energy   TEWEN  =      2257.36198512
  -Hartree energ DENC   =     -3967.21286832
  -exchange      EXHF   =         0.00000000
  -V(xc)+E(xc)   XCENC  =       126.37773177
  PAW double counting   =     22262.23618671   -22256.19092641
  entropy T*S    EENTRO =        -0.00000000
  eigenvalues    EBANDS =      -523.09053993
  atomic energy  EATOM  =      2048.74767069
  ---------------------------------------------------
  free energy    TOTEN  =       -51.36921215 eV

  energy without entropy =      -51.36921215  energy(sigma->0) =      -51.36921215


--------------------------------------------------------------------------------------------------------




--------------------------------------- Iteration      1(  19)  ---------------------------------------


    POTLOK:  cpu time      0.3272: real time      0.3275
    SETDIJ:  cpu time      0.0016: real time      0.0016
    TRIAL :  cpu time      1.7865: real time      1.7874
    CORREC:  cpu time      1.7797: real time      1.7803
    CHARGE:  cpu time      0.9413: real time      0.9417
    --------------------------------------------
      LOOP:  cpu time      4.8487: real time      4.8684

 eigenvalue-minimisations  :     0
 total energy-change (2. order) :-0.2631161E-05  (-0.9734026E-06)
 number of electron      34.0000000 magnetization 
 augmentation part        0.1556236 magnetization 

 Free energy of the ion-electron system (eV)
  ---------------------------------------------------
  alpha Z        PSCENC =         0.40154822
  Ewald energy   TEWEN  =      2257.36198512
  -Hartree energ DENC   =     -3967.21634689
  -exchange      EXHF   =         0.00000000
  -V(xc)+E(xc)   XCENC  =       126.37772200
  PAW double counting   =     22264.06310405   -22258.01773573
  entropy T*S    EENTRO =        -0.00000000
  eigenvalues    EBANDS =      -523.08716225
  atomic energy  EATOM  =      2048.74767069
  ---------------------------------------------------
  free energy    TOTEN  =       -51.36921478 eV

  energy without entropy =      -51.36921478  energy(sigma->0) =      -51.36921478


--------------------------------------------------------------------------------------------------------




--------------------------------------- Iteration      1(  20)  ---------------------------------------


    POTLOK:  cpu time      0.3256: real time      0.3256
    SETDIJ:  cpu time      0.0016: real time      0.0016
    TRIAL :  cpu time      1.7858: real time      1.7869
    CORREC:  cpu time      1.7610: real time      1.7617
    CHARGE:  cpu time      0.9420: real time      0.9423
    --------------------------------------------
      LOOP:  cpu time      4.8310: real time      4.8513

 eigenvalue-minimisations  :     0
 total energy-change (2. order) :-0.9386131E-06  (-0.3692569E-06)
 number of electron      34.0000000 magnetization 
 augmentation part        0.1556190 magnetization 

 Free energy of the ion-electron system (eV)
  ---------------------------------------------------
  alpha Z        PSCENC =         0.40154822
  Ewald energy   TEWEN  =      2257.36198512
  -Hartree energ DENC   =     -3967.22274792
  -exchange      EXHF   =         0.00000000
  -V(xc)+E(xc)   XCENC  =       126.37802215
  PAW double counting   =     22265.91084384   -22259.86544645
  entropy T*S    EENTRO =        -0.00000000
  eigenvalues    EBANDS =      -523.08109137
  atomic energy  EATOM  =      2048.74767069
  ---------------------------------------------------
  free energy    TOTEN  =       -51.36921572 eV

  energy without entropy =      -51.36921572  energy(sigma->0) =      -51.36921572


--------------------------------------------------------------------------------------------------------




--------------------------------------- Iteration      1(  21)  ---------------------------------------


    POTLOK:  cpu time      0.3258: real time      0.3258
    SETDIJ:  cpu time      0.0016: real time      0.0016
    TRIAL :  cpu time      1.7859: real time      1.7871
    CORREC:  cpu time      1.7652: real time      1.7660
    CHARGE:  cpu time      0.9382: real time      0.9384
    --------------------------------------------
      LOOP:  cpu time      4.8309: real time      4.8501

 eigenvalue-minimisations  :     0
 total energy-change (2. order) :-0.3458990E-06  (-0.1544422E-06)
 number of electron      34.0000000 magnetization 
 augmentation part        0.1556195 magnetization 

 Free energy of the ion-electron system (eV)
  ---------------------------------------------------
  alpha Z        PSCENC =         0.40154822
  Ewald energy   TEWEN  =      2257.36198512
  -Hartree energ DENC   =     -3967.21944682
  -exchange      EXHF   =         0.00000000
  -V(xc)+E(xc)   XCENC  =       126.37785447
  PAW double counting   =     22266.94559937   -22260.90015751
  entropy T*S    EENTRO =        -0.00000000
  eigenvalues    EBANDS =      -523.08426960
  atomic energy  EATOM  =      2048.74767069
  ---------------------------------------------------
  free energy    TOTEN  =       -51.36921607 eV

  energy without entropy =      -51.36921607  energy(sigma->0) =      -51.36921607


--------------------------------------------------------------------------------------------------------




--------------------------------------- Iteration      1(  22)  ---------------------------------------


    POTLOK:  cpu time      0.3319: real time      0.3319
    SETDIJ:  cpu time      0.0015: real time      0.0016
    TRIAL :  cpu time      1.7871: real time      1.7882
    CORREC:  cpu time      1.7590: real time      1.7599
    CHARGE:  cpu time      0.9464: real time      0.9467
    --------------------------------------------
      LOOP:  cpu time      4.8411: real time      4.8612

 eigenvalue-minimisations  :     0
 total energy-change (2. order) :-0.1320441E-06  (-0.7145458E-07)
 number of electron      34.0000000 magnetization 
 augmentation part        0.1556196 magnetization 

 Free energy of the ion-electron system (eV)
  ---------------------------------------------------
  alpha Z        PSCENC =         0.40154822
  Ewald energy   TEWEN  =      2257.36198512
  -Hartree energ DENC   =     -3967.21773427
  -exchange      EXHF   =         0.00000000
  -V(xc)+E(xc)   XCENC  =       126.37778607
  PAW double counting   =     22266.82577878   -22260.78034409
  entropy T*S    EENTRO =        -0.00000000
  eigenvalues    EBANDS =      -523.08590671
  atomic energy  EATOM  =      2048.74767069
  ---------------------------------------------------
  free energy    TOTEN  =       -51.36921620 eV

  energy without entropy =      -51.36921620  energy(sigma->0) =      -51.36921620


--------------------------------------------------------------------------------------------------------




--------------------------------------- Iteration      1(  23)  ---------------------------------------


    POTLOK:  cpu time      0.3264: real time      0.3264
    SETDIJ:  cpu time      0.0016: real time      0.0016
    TRIAL :  cpu time      1.7844: real time      1.7858
    CORREC:  cpu time      7.0665: real time      7.0690
    CHARGE:  cpu time      0.9493: real time      0.9496
    --------------------------------------------
      LOOP:  cpu time     10.1425: real time     10.1640

 eigenvalue-minimisations  :     0
 total energy-change (2. order) :-0.3895912E-07  (-0.1809253E-06)
 number of electron      34.0000000 magnetization 
 augmentation part        0.1556134 magnetization 

 Free energy of the ion-electron system (eV)
  ---------------------------------------------------
  alpha Z        PSCENC =         0.40154822
  Ewald energy   TEWEN  =      2257.36198512
  -Hartree energ DENC   =     -3967.21579268
  -exchange      EXHF   =         0.00000000
  -V(xc)+E(xc)   XCENC  =       126.37772177
  PAW double counting   =     22266.19362199   -22260.14819797
  entropy T*S    EENTRO =        -0.00000000
  eigenvalues    EBANDS =      -523.08777338
  atomic energy  EATOM  =      2048.74767069
  ---------------------------------------------------
  free energy    TOTEN  =       -51.36921624 eV

  energy without entropy =      -51.36921624  energy(sigma->0) =      -51.36921624


--------------------------------------------------------------------------------------------------------




--------------------------------------- Iteration      1(  24)  ---------------------------------------


    POTLOK:  cpu time      0.3378: real time      0.3378
    SETDIJ:  cpu time      0.0016: real time      0.0016
    TRIAL :  cpu time      1.7863: real time      1.7872
    CORREC:  cpu time      1.7922: real time      1.7929
    CHARGE:  cpu time      0.9531: real time      0.9533
    --------------------------------------------
      LOOP:  cpu time      4.8867: real time      4.9029

 eigenvalue-minimisations  :     0
 total energy-change (2. order) : 0.3351561E-06  (-0.3125240E-06)
 number of electron      34.0000000 magnetization 
 augmentation part        0.1556144 magnetization 

 Free energy of the ion-electron system (eV)
  ---------------------------------------------------
  alpha Z        PSCENC =         0.40154822
  Ewald energy   TEWEN  =      2257.36198512
  -Hartree energ DENC   =     -3967.21114439
  -exchange      EXHF   =         0.00000000
  -V(xc)+E(xc)   XCENC  =       126.37751574
  PAW double counting   =     22264.87886937   -22258.83342161
  entropy T*S    EENTRO =        -0.00000000
  eigenvalues    EBANDS =      -523.09223904
  atomic energy  EATOM  =      2048.74767069
  ---------------------------------------------------
  free energy    TOTEN  =       -51.36921590 eV

  energy without entropy =      -51.36921590  energy(sigma->0) =      -51.36921590


--------------------------------------------------------------------------------------------------------




--------------------------------------- Iteration      1(  25)  ---------------------------------------


    POTLOK:  cpu time      0.3263: real time      0.3263
    SETDIJ:  cpu time      0.0015: real time      0.0016
    TRIAL :  cpu time      1.7885: real time      1.7897
    CORREC:  cpu time      1.7771: real time      1.7775
    CHARGE:  cpu time      0.9336: real time      0.9340
    --------------------------------------------
      LOOP:  cpu time      4.8401: real time      4.8590

 eigenvalue-minimisations  :     0
 total energy-change (2. order) :-0.3143723E-06  (-0.6519638E-07)
 number of electron      34.0000000 magnetization 
 augmentation part        0.1556134 magnetization 

 Free energy of the ion-electron system (eV)
  ---------------------------------------------------
  alpha Z        PSCENC =         0.40154822
  Ewald energy   TEWEN  =      2257.36198512
  -Hartree energ DENC   =     -3967.21458161
  -exchange      EXHF   =         0.00000000
  -V(xc)+E(xc)   XCENC  =       126.37768536
  PAW double counting   =     22265.18657488   -22259.14114208
  entropy T*S    EENTRO =        -0.00000000
  eigenvalues    EBANDS =      -523.08895680
  atomic energy  EATOM  =      2048.74767069
  ---------------------------------------------------
  free energy    TOTEN  =       -51.36921622 eV

  energy without entropy =      -51.36921622  energy(sigma->0) =      -51.36921622


--------------------------------------------------------------------------------------------------------




--------------------------------------- Iteration      1(  26)  ---------------------------------------


    POTLOK:  cpu time      0.3263: real time      0.3264
    SETDIJ:  cpu time      0.0016: real time      0.0016
    TRIAL :  cpu time      1.7845: real time      1.7854
    CORREC:  cpu time      1.7562: real time      1.7565
    EDDIAG:  cpu time      0.7615: real time      0.7619
    CHARGE:  cpu time      0.9595: real time      0.9599
    --------------------------------------------
      LOOP:  cpu time      5.6218: real time      5.6240

 eigenvalue-minimisations  :     0
 total energy-change (2. order) :-0.5948823E-07  (-0.2153278E-07)
 number of electron      34.0000000 magnetization 
 augmentation part        0.1556140 magnetization 

 Free energy of the ion-electron system (eV)
  ---------------------------------------------------
  alpha Z        PSCENC =         0.40154822
  Ewald energy   TEWEN  =      2257.36198512
  -Hartree energ DENC   =     -3967.21472179
  -exchange      EXHF   =         0.00000000
  -V(xc)+E(xc)   XCENC  =       126.37767536
  PAW double counting   =     22265.78431306   -22259.73886353
  entropy T*S    EENTRO =        -0.00000000
  eigenvalues    EBANDS =      -523.08882340
  atomic energy  EATOM  =      2048.74767069
  ---------------------------------------------------
  free energy    TOTEN  =       -51.36921627 eV

  energy without entropy =      -51.36921627  energy(sigma->0) =      -51.36921627


--------------------------------------------------------------------------------------------------------


  average scaling for gradient   1.4100


 average (electrostatic) potential at core
  the test charge radii are     0.5770  0.4325  0.5955
  (the norm of the test charge is              1.0000)
       1 -90.5759       2 -90.5754       3 -49.3407       4 -49.3420       5-120.4993
       6-120.4993       7-121.9095       8-121.9086



 E-fermi :  -6.8707     XC(G=0):  -0.1773     alpha+bet : -0.0741

 Fermi energy:        -6.8706705968

 k-point     1 :       0.0000    0.0000    0.0000
  band No.  band energies     occupation 
      1     -29.1308      2.00000
      2     -28.3414      2.00000
      3     -27.0035      2.00000
      4     -26.4299      2.00000
      5     -17.4386      2.00000
      6     -15.9094      2.00000
      7     -15.7442      2.00000
      8     -12.5399      2.00000
      9     -12.1982      2.00000
     10     -11.5982      2.00000
     11     -11.4851      2.00000
     12     -11.0396      2.00000
     13      -9.6680      2.00000
     14      -8.8428      2.00000
     15      -8.6898      2.00000
     16      -8.5392      2.00000
     17      -6.9451      2.00000
     18      -3.3912      0.00000
     19      -1.0248      0.00000
     20      -0.2804      0.00000
     21       0.1026      0.00000
     22       0.1985      0.00000
     23       0.1987      0.00000
     24       0.2489      0.00000
     25       0.3970      0.00000
     26       0.4249      0.00000
     27       0.5033      0.00000
     28       0.5547      0.00000
     29       0.5671      0.00000
     30       0.5979      0.00000
     31       0.6705      0.00000
     32       0.7216      0.00000
     33       0.7618      0.00000
     34       0.7671      0.00000
     35       0.7923      0.00000
     36       0.7977      0.00000
     37       0.8060      0.00000
     38       0.8092      0.00000
     39       0.9663      0.00000
     40       0.9878      0.00000
     41       1.0412      0.00000
     42       1.0532      0.00000
     43       1.0711      0.00000
     44       1.0907      0.00000
     45       1.1257      0.00000
     46       1.1618      0.00000
     47       1.2126      0.00000
     48       1.2863      0.00000
     49       1.3730      0.00000
     50       1.3885      0.00000
     51       1.4149      0.00000
     52       1.4202      0.00000
     53       1.5328      0.00000
     54       1.6150      0.00000
     55       1.6480      0.00000
     56       1.6631      0.00000
     57       1.6743      0.00000
     58       1.7115      0.00000
     59       1.7360      0.00000
     60       1.7564      0.00000
     61       1.7957      0.00000
     62       1.8255      0.00000
     63       1.8472      0.00000
     64       1.8574      0.00000
     65       1.8677      0.00000
     66       1.8943      0.00000
     67       1.9010      0.00000
     68       1.9181      0.00000
     69       1.9252      0.00000
     70       1.9281      0.00000
     71       1.9286      0.00000
     72       1.9350      0.00000
     73       1.9356      0.00000
     74       1.9405      0.00000
     75       1.9409      0.00000
     76       1.9420      0.00000
     77       2.0600      0.00000
     78       2.1018      0.00000
     79       2.1201      0.00000
     80       2.1398      0.00000
     81       2.1412      0.00000
     82       2.1576      0.00000
     83       2.1690      0.00000
     84       2.2012      0.00000
     85       2.2245      0.00000
     86       2.2411      0.00000
     87       2.2425      0.00000
     88       2.2544      0.00000
     89       2.2626      0.00000
     90       2.2698      0.00000
     91       2.2805      0.00000
     92       2.2867      0.00000
     93       2.2899      0.00000
     94       2.2921      0.00000
     95       2.2977      0.00000
     96       2.3009      0.00000
     97       2.3056      0.00000
     98       2.3097      0.00000
     99       2.3097      0.00000
    100       2.3137      0.00000
    101       2.5695      0.00000
    102       2.6216      0.00000
    103       2.8330      0.00000
    104       2.8557      0.00000
    105       2.8715      0.00000
    106       2.8771      0.00000
    107       2.9075      0.00000
    108       2.9332      0.00000
    109       2.9357      0.00000
    110       2.9385      0.00000
    111       2.9516      0.00000
    112       2.9747      0.00000
    113       3.0566      0.00000
    114       3.1002      0.00000
    115       3.1489      0.00000
    116       3.1582      0.00000
    117       3.1621      0.00000
    118       3.2061      0.00000
    119       3.2158      0.00000
    120       3.2301      0.00000
    121       3.2319      0.00000
    122       3.2575      0.00000
    123       3.2643      0.00000
    124       3.2850      0.00000
    125       3.3231      0.00000
    126       3.3392      0.00000
    127       3.3635      0.00000
    128       3.3658      0.00000
    129       3.3811      0.00000
    130       3.3916      0.00000
    131       3.3953      0.00000
    132       3.4023      0.00000
    133       3.4046      0.00000
    134       3.4094      0.00000
    135       3.4202      0.00000
    136       3.4231      0.00000
    137       3.4264      0.00000
    138       3.4287      0.00000
    139       3.4315      0.00000
    140       3.4346      0.00000
    141       3.4365      0.00000
    142       3.4390      0.00000
    143       3.5443      0.00000
    144       3.5615      0.00000
    145       3.5932      0.00000
    146       3.5986      0.00000
    147       3.6076      0.00000
    148       3.6697      0.00000
    149       3.6763      0.00000
    150       3.6874      0.00000
    151       3.6923      0.00000
    152       3.7198      0.00000
    153       3.7215      0.00000
    154       3.7292      0.00000
    155       3.7337      0.00000
    156       3.7466      0.00000
    157       3.7487      0.00000
    158       3.7571      0.00000
    159       3.7710      0.00000
    160       3.7739      0.00000
    161       3.7991      0.00000
    162       3.8043      0.00000
    163       3.8066      0.00000
    164       3.8083      0.00000
    165       3.8126      0.00000
    166       3.8156      0.00000
    167       3.9047      0.00000
    168       3.9137      0.00000
    169       3.9679      0.00000
    170       4.0513      0.00000
    171       4.0526      0.00000
    172       4.0597      0.00000
    173       4.0682      0.00000
    174       4.0859      0.00000
    175       4.0867      0.00000
    176       4.0913      0.00000
    177       4.0976      0.00000
    178       4.1027      0.00000
    179       4.1087      0.00000
    180       4.1090      0.00000
    181       4.1168      0.00000
    182       4.1196      0.00000
    183       4.1298      0.00000
    184       4.1308      0.00000
    185       4.1360      0.00000
    186       4.1507      0.00000
    187       4.1589      0.00000
    188       4.1667      0.00000
    189       4.1682      0.00000
    190       4.1705      0.00000
    191       4.2656      0.00000
    192       4.2994      0.00000
    193       4.3394      0.00000
    194       4.4202      0.00000
    195       4.4467      0.00000
    196       4.4622      0.00000
    197       4.4626      0.00000
    198       4.4885      0.00000
    199       4.5055      0.00000
    200       4.5349      0.00000
    201       4.5578      0.00000
    202       4.6179      0.00000
    203       4.6483      0.00000
    204       4.6859      0.00000
    205       4.7064      0.00000
    206       4.7093      0.00000
    207       4.7378      0.00000
    208       4.7712      0.00000
    209       4.8063      0.00000
    210       4.8248      0.00000
    211       4.8274      0.00000
    212       4.8487      0.00000
    213       4.8694      0.00000
    214       4.8790      0.00000
    215       4.8810      0.00000
    216       4.8963      0.00000
    217       4.9032      0.00000
    218       4.9102      0.00000
    219       4.9160      0.00000
    220       4.9175      0.00000
    221       4.9204      0.00000
    222       4.9309      0.00000
    223       4.9575      0.00000
    224       4.9824      0.00000
    225       5.0211      0.00000
    226       5.0736      0.00000
    227       5.0884      0.00000
    228       5.1040      0.00000
    229       5.1303      0.00000
    230       5.1331      0.00000
    231       5.1506      0.00000
    232       5.1682      0.00000
    233       5.1698      0.00000
    234       5.1738      0.00000
    235       5.1883      0.00000
    236       5.1950      0.00000
    237       5.2010      0.00000
    238       5.2024      0.00000
    239       5.2056      0.00000
    240       5.2136      0.00000
    241       5.2229      0.00000
    242       5.2230      0.00000
    243       5.2313      0.00000
    244       5.2360      0.00000
    245       5.2397      0.00000
    246       5.2612      0.00000
    247       5.2742      0.00000
    248       5.2836      0.00000
    249       5.2849      0.00000
    250       5.2888      0.00000
    251       5.2928      0.00000
    252       5.3005      0.00000
    253       5.3040      0.00000
    254       5.3246      0.00000
    255       5.4654      0.00000
    256       5.6159      0.00000


--------------------------------------------------------------------------------------------------------


 soft charge-density along one line, spin component           1
         0         1         2         3         4         5         6         7         8         9
 total charge-density along one line

 pseudopotential strength for first ion, spin component:           1
 12.903  21.718  -0.011  -0.005   0.000  -0.019  -0.008   0.001
 21.718  36.555  -0.018  -0.008   0.001  -0.032  -0.014   0.001
 -0.011  -0.018  -3.152   0.001  -0.000  -5.655   0.001  -0.001
 -0.005  -0.008   0.001  -3.152  -0.001   0.001  -5.654  -0.001
  0.000   0.001  -0.000  -0.001  -3.152  -0.001  -0.001  -5.656
 -0.019  -0.032  -5.655   0.001  -0.001 -10.124   0.003  -0.002
 -0.008  -0.014   0.001  -5.654  -0.001   0.003 -10.122  -0.002
  0.001   0.001  -0.001  -0.001  -5.656  -0.002  -0.002 -10.124
 total augmentation occupancy for first ion, spin component:           1
  9.437  -3.662   0.054  -1.656   1.573  -0.005   0.769  -0.722
 -3.662   1.534   0.052   0.833  -0.762  -0.016  -0.372   0.343
  0.054   0.052   7.949  -0.461   2.115  -2.937   0.236  -0.946
 -1.656   0.833  -0.461   6.163  -2.796   0.235  -2.114   1.166
  1.573  -0.762   2.115  -2.796   6.770  -0.945   1.167  -2.407
 -0.005  -0.016  -2.937   0.235  -0.945   1.115  -0.114   0.414
  0.769  -0.372   0.236  -2.114   1.167  -0.114   0.756  -0.490
 -0.722   0.343  -0.946   1.166  -2.407   0.414  -0.490   0.891


------------------------ aborting loop because EDIFF is reached ----------------------------------------


    FORLOC:  cpu time      0.0113: real time      0.0113
    FORNL :  cpu time      0.1799: real time      0.1801
    FORCOR:  cpu time      0.1903: real time      0.1906
    OFIELD:  cpu time      0.0018: real time      0.0018

 ---------------------------------------------------------------------------------------------

         DFTD3 V3.0 Rev 1        
 IVDW         = 11
 DF rpbe      
 parameters
 VDW_S6       =    1.0000
 VDW_S8       =    0.5140
 VDW_SR       =    0.8720
 rs18     =    1.0000
 alpha6   =   14.0000
 alpha8   =   16.0000
 k1-k3    =   16.0000    1.3333   -4.0000
 VDW_RADIUS   =   50.2022 A
 VDW_CNRADIUS =   21.1671 A
 Edisp (eV)   -0.22558

 E6    (eV) :    -0.2002
 E8    (eV) :    -0.0253
 % E8        : 11.23
    FORVDW:  cpu time      0.0510: real time      0.0510

 VOLUME and BASIS-vectors are now :
 -----------------------------------------------------------------------------
  energy-cutoff  :     1000.00
  volume of cell :     8000.00
      direct lattice vectors                 reciprocal lattice vectors
    20.000000000  0.000000000  0.000000000     0.050000000  0.000000000  0.000000000
     0.000000000 20.000000000  0.000000000     0.000000000  0.050000000  0.000000000
     0.000000000  0.000000000 20.000000000     0.000000000  0.000000000  0.050000000

  length of vectors
    20.000000000 20.000000000 20.000000000     0.050000000  0.050000000  0.050000000


 FORCES acting on ions:
    Electron-Ion                     Ewald-Force                    Non-Local-Force
 -----------------------------------------------------------------------------------------------
   0.642E+01 0.276E+02 0.364E+01   -.588E+01 -.210E+02 -.165E+01   -.828E+00 -.683E+01 -.180E+01
   -.660E+01 -.274E+02 -.371E+01   0.607E+01 0.209E+02 0.172E+01   0.832E+00 0.684E+01 0.178E+01
   0.714E+02 0.603E+02 -.527E+02   -.771E+02 -.615E+02 0.583E+02   0.573E+01 0.120E+01 -.565E+01
   -.714E+02 -.604E+02 0.527E+02   0.771E+02 0.615E+02 -.583E+02   -.574E+01 -.120E+01 0.566E+01
   -.290E+03 -.101E+03 0.270E+03   0.329E+03 0.122E+03 -.302E+03   -.382E+02 -.210E+02 0.324E+02
   0.290E+03 0.101E+03 -.270E+03   -.329E+03 -.122E+03 0.302E+03   0.382E+02 0.209E+02 -.325E+02
   0.306E+02 0.351E+03 0.105E+03   -.155E+02 -.389E+03 -.136E+03   -.153E+02 0.378E+02 0.312E+02
   -.305E+02 -.351E+03 -.105E+03   0.153E+02 0.390E+03 0.136E+03   0.153E+02 -.378E+02 -.311E+02
 -----------------------------------------------------------------------------------------------
   -.505E-01 0.304E-01 -.120E-01   -.107E-13 0.568E-13 0.000E+00   0.505E-01 -.304E-01 0.120E-01


 POSITION                                       TOTAL-FORCE (eV/Angst)
 -----------------------------------------------------------------------------------
     10.36587      9.59569      9.45312        -0.087748     -0.087333      0.051539
      9.63408     10.40374     10.54674         0.094143      0.091088     -0.061826
      9.27416      8.21411     10.07710         0.015843     -0.014232     -0.026100
     10.72505     11.78589      9.92217        -0.011484      0.012421      0.020736
     11.21197     10.09969      8.74899         0.382072      0.153106     -0.346188
      8.78803      9.90032     11.25101        -0.391481     -0.164162      0.354050
      9.96469      8.32590      9.38345        -0.079628     -0.388803     -0.060234
     10.03446     11.67365     10.61543         0.078283      0.397915      0.068023
 -----------------------------------------------------------------------------------
    total drift:                               -0.000007     -0.000016      0.000005


--------------------------------------------------------------------------------------------------------



  FREE ENERGIE OF THE ION-ELECTRON SYSTEM (eV)
  ---------------------------------------------------
  free  energy   TOTEN  =       -51.59479186 eV

  energy  without entropy=      -51.59479186  energy(sigma->0) =      -51.59479186



--------------------------------------------------------------------------------------------------------


    POTLOK:  cpu time      0.3673: real time      0.3673


--------------------------------------------------------------------------------------------------------


 stress matrix after NEB project (eV)
      0.07285      0.03271     -0.06481
      0.03271      0.27512      0.07237
     -0.06481      0.07237      0.09706
  FORCES: max atom, RMS     0.552773    0.347468
  FORCE total and by dimension    0.982787    0.397915
  Stress total and by dimension    0.333819    0.275121
     LOOP+:  cpu time    147.5280: real time    147.9298
    4ORBIT:  cpu time      0.0000: real time      0.0000

 total amount of memory used by VASP MPI-rank0   382402. kBytes
=======================================================================

   base      :      30000. kBytes
   nonl-proj :      45957. kBytes
   fftplans  :     102640. kBytes
   grid      :     196902. kBytes
   one-center:          6. kBytes
   wavefun   :       6897. kBytes

  
  
 General timing and accounting informations for this job:
 ========================================================
  
                  Total CPU time used (sec):      206.339
                            User time (sec):      181.150
                          System time (sec):       25.190
                         Elapsed time (sec):      224.498
  
                   Maximum memory used (kb):      630012.
                   Average memory used (kb):          N/A
  
                          Minor page faults:      1077222
                          Major page faults:         1160
                 Voluntary context switches:        12202
