 vasp.6.4.1 05Apr23 (build Jun  6 2023 14:46:38) gamma-only                      
 executed on        HPECrayEX_GCC date 2024.08.22  10:02:22
 running  512 mpi-ranks, with    1 threads/rank, on    4 nodes
 distrk:  each k-point on  256 cores,    2 groups
 distr:  one band on NCORE=  32 cores,    8 groups


--------------------------------------------------------------------------------------------------------


 INCAR:
   ALGO = Conjugate
   KPAR = 2
   NCORE = 32
   ISMEAR = 0
   SIGMA = 0.01
   PREC = Accurate
   EDIFF = 1E-7
   ENCUT = 1000
   ISIF = 0
   METAGGA = SCAN
   LUSE_VDW = .TRUE.
   BPARAM = 15.7
   LASPH = .TRUE.
   SYMPREC = 1E-7
   NELM = 200
   LWAVE = .FALSE.
   LCHARG = .FALSE.

 POTCAR:    PAW_PBE C_h 06Feb2004                 
 POTCAR:    PAW_PBE H_h 06Feb2004                 
 POTCAR:    PAW_PBE N_h 06Feb2004                 
 POTCAR:    PAW_PBE O_h 06Feb2004                 
 -----------------------------------------------------------------------------
|                                                                             |
|               ----> ADVICE to this user running VASP <----                  |
|                                                                             |
|     You have switched on vdW-DFT.                                           |
|     This routine was written and supplied by Jiri Klimes. We recommend      |
|     that you carefully read and cite the following publications:            |
|       J. Klimes, D.R. Bowler, A. Michelides                                 |
|          J. Phys.: Cond Matt. 22 022201 (2010)                              |
|       J. Klimes, D.R. Bowler, A. Michelides                                 |
|          Phys. Rev. B. 83, 195131 (2011)                                    |
|     and references therein.                                                 |
|                                                                             |
 -----------------------------------------------------------------------------

 POTCAR:    PAW_PBE C_h 06Feb2004                 
   VRHFIN =C: s2p2                                                                                  
   LEXCH  = PE                                                                                      
   EATOM  =   147.1560 eV,   10.8157 Ry                                                             
                                                                                                    
   TITEL  = PAW_PBE C_h 06Feb2004                                                                   
   LULTRA =        F    use ultrasoft PP ?                                                          
   IUNSCR =        1    unscreen: 0-lin 1-nonlin 2-no                                               
   RPACOR =    0.800    partial core radius                                                         
   POMASS =   12.011; ZVAL   =    4.000    mass and valenz                                          
   RCORE  =    1.100    outmost cutoff radius                                                       
   RWIGS  =    1.630; RWIGS  =    0.863    wigner-seitz radius (au A)                               
   ENMAX  =  700.000; ENMIN  =  500.000 eV                                                          
   ICORE  =        2    local potential                                                             
   LCOR   =        T    correct aug charges                                                         
   LPAW   =        T    paw PP                                                                      
   EAUG   =  946.768                                                                                
   DEXC   =    0.000                                                                                
   RMAX   =    1.128    core radius for proj-oper                                                   
   RAUG   =    1.300    factor for augmentation sphere                                              
   RDEP   =    1.162    radius for radial grids                                                     
   RDEPT  =    1.088    core radius for aug-charge                                                  
                                                                                                    
   Atomic configuration                                                                             
    4 entries                                                                                       
     n  l   j            E        occ.                                                              
     1  0  0.50      -273.3789   2.0000                                                             
     2  0  0.50       -13.7508   2.0000                                                             
     2  1  0.50        -5.2854   2.0000                                                             
     3  2  1.50        -5.4423   0.0000                                                             
   Description                                                                                      
     l       E           TYP  RCUT    TYP  RCUT                                                     
     0    -13.7508458     23  1.100                                                                 
     0     -8.2022199     23  1.100                                                                 
     1     -5.2854383     23  1.100                                                                 
     1      1.1560700     23  1.100                                                                 
     2     -5.4423304      7  1.100                                                                 
  local pseudopotential read in
  partial core-charges read in
  partial kinetic energy density read in
  atomic valenz-charges read in
  non local Contribution for L=           0  read in
    real space projection operators read in
  non local Contribution for L=           0  read in
    real space projection operators read in
  non local Contribution for L=           1  read in
    real space projection operators read in
  non local Contribution for L=           1  read in
    real space projection operators read in
    PAW grid and wavefunctions read in

   number of l-projection  operators is LMAX  =           4
   number of lm-projection operators is LMMAX =           8

 POTCAR:    PAW_PBE H_h 06Feb2004                 
   VRHFIN =H: ultrasoft test                                                                        
   LEXCH  = PE                                                                                      
   EATOM  =    12.4884 eV,    0.9179 Ry                                                             
                                                                                                    
   TITEL  = PAW_PBE H_h 06Feb2004                                                                   
   LULTRA =        F    use ultrasoft PP ?                                                          
   IUNSCR =        0    unscreen: 0-lin 1-nonlin 2-no                                               
   RPACOR =    0.000    partial core radius                                                         
   POMASS =    1.000; ZVAL   =    1.000    mass and valenz                                          
   RCORE  =    0.800    outmost cutoff radius                                                       
   RWIGS  =    0.700; RWIGS  =    0.370    wigner-seitz radius (au A)                               
   ENMAX  =  700.000; ENMIN  =  350.000 eV                                                          
   RCLOC  =    0.701    cutoff for local pot                                                        
   LCOR   =        T    correct aug charges                                                         
   LPAW   =        T    paw PP                                                                      
   EAUG   = 1000.000                                                                                
   RMAX   =    0.819    core radius for proj-oper                                                   
   RAUG   =    1.000    factor for augmentation sphere                                              
   RDEP   =    0.817    radius for radial grids                                                     
   RDEPT  =    0.817    core radius for aug-charge                                                  
                                                                                                    
   Atomic configuration                                                                             
    2 entries                                                                                       
     n  l   j            E        occ.                                                              
     1  0  0.50        -6.4927   1.0000                                                             
     2  1  0.50        -3.4015   0.0000                                                             
   Description                                                                                      
     l       E           TYP  RCUT    TYP  RCUT                                                     
     0     -6.4927493     23  0.800                                                                 
     0      6.8029130     23  0.800                                                                 
     1     -6.8029130     23  0.800                                                                 
  local pseudopotential read in
  atomic valenz-charges read in
  non local Contribution for L=           0  read in
    real space projection operators read in
  non local Contribution for L=           0  read in
    real space projection operators read in
  non local Contribution for L=           1  read in
    real space projection operators read in
    PAW grid and wavefunctions read in

   number of l-projection  operators is LMAX  =           3
   number of lm-projection operators is LMMAX =           5

 POTCAR:    PAW_PBE N_h 06Feb2004                 
   VRHFIN =N: s2p3                                                                                  
   LEXCH  = PE                                                                                      
   EATOM  =   264.5486 eV,   19.4438 Ry                                                             
                                                                                                    
   TITEL  = PAW_PBE N_h 06Feb2004                                                                   
   LULTRA =        F    use ultrasoft PP ?                                                          
   IUNSCR =        1    unscreen: 0-lin 1-nonlin 2-no                                               
   RPACOR =    0.800    partial core radius                                                         
   POMASS =   14.001; ZVAL   =    5.000    mass and valenz                                          
   RCORE  =    1.100    outmost cutoff radius                                                       
   RWIGS  =    1.480; RWIGS  =    0.783    wigner-seitz radius (au A)                               
   ENMAX  =  700.000; ENMIN  =  500.000 eV                                                          
   ICORE  =        2    local potential                                                             
   LCOR   =        T    correct aug charges                                                         
   LPAW   =        T    paw PP                                                                      
   EAUG   =  904.640                                                                                
   DEXC   =    0.000                                                                                
   RMAX   =    1.127    core radius for proj-oper                                                   
   RAUG   =    1.300    factor for augmentation sphere                                              
   RDEP   =    1.115    radius for radial grids                                                     
   RDEPT  =    1.106    core radius for aug-charge                                                  
                                                                                                    
   Atomic configuration                                                                             
    4 entries                                                                                       
     n  l   j            E        occ.                                                              
     1  0  0.50      -384.7179   2.0000                                                             
     2  0  0.50       -18.5828   2.0000                                                             
     2  1  0.50        -7.0898   3.0000                                                             
     3  2  1.50        -6.8029   0.0000                                                             
   Description                                                                                      
     l       E           TYP  RCUT    TYP  RCUT                                                     
     0    -18.5828117     23  1.100                                                                 
     0    -15.0750597     23  1.100                                                                 
     1     -7.0897851     23  1.100                                                                 
     1     -1.9663412     23  1.100                                                                 
     2     -6.8029130      7  1.100                                                                 
  local pseudopotential read in
  partial core-charges read in
  partial kinetic energy density read in
  kinetic energy density of atom read in
  atomic valenz-charges read in
  non local Contribution for L=           0  read in
    real space projection operators read in
  non local Contribution for L=           0  read in
    real space projection operators read in
  non local Contribution for L=           1  read in
    real space projection operators read in
  non local Contribution for L=           1  read in
    real space projection operators read in
    PAW grid and wavefunctions read in

   number of l-projection  operators is LMAX  =           4
   number of lm-projection operators is LMMAX =           8

 POTCAR:    PAW_PBE O_h 06Feb2004                 
   VRHFIN =O: s2p4                                                                                  
   LEXCH  = PE                                                                                      
   EATOM  =   432.3788 eV,   31.7789 Ry                                                             
                                                                                                    
   TITEL  = PAW_PBE O_h 06Feb2004                                                                   
   LULTRA =        F    use ultrasoft PP ?                                                          
   IUNSCR =        1    unscreen: 0-lin 1-nonlin 2-no                                               
   RPACOR =    0.800    partial core radius                                                         
   POMASS =   16.000; ZVAL   =    6.000    mass and valenz                                          
   RCORE  =    1.100    outmost cutoff radius                                                       
   RWIGS  =    1.400; RWIGS  =    0.741    wigner-seitz radius (au A)                               
   ENMAX  =  700.000; ENMIN  =  500.000 eV                                                          
   ICORE  =        2    local potential                                                             
   LCOR   =        T    correct aug charges                                                         
   LPAW   =        T    paw PP                                                                      
   EAUG   =  888.804                                                                                
   DEXC   =    0.000                                                                                
   RMAX   =    1.128    core radius for proj-oper                                                   
   RAUG   =    1.300    factor for augmentation sphere                                              
   RDEP   =    1.125    radius for radial grids                                                     
   RDEPT  =    1.088    core radius for aug-charge                                                  
                                                                                                    
   Atomic configuration                                                                             
    4 entries                                                                                       
     n  l   j            E        occ.                                                              
     1  0  0.50      -514.6923   2.0000                                                             
     2  0  0.50       -23.9615   2.0000                                                             
     2  1  0.50        -9.0305   4.0000                                                             
     3  2  1.50        -9.5241   0.0000                                                             
   Description                                                                                      
     l       E           TYP  RCUT    TYP  RCUT                                                     
     0    -23.9615319     23  1.100                                                                 
     0    -25.3221145     23  1.100                                                                 
     1     -9.0304911     23  1.100                                                                 
     1     -5.4802209     23  1.100                                                                 
     2     -9.5240782      7  1.100                                                                 
  local pseudopotential read in
  partial core-charges read in
  partial kinetic energy density read in
  atomic valenz-charges read in
  non local Contribution for L=           0  read in
    real space projection operators read in
  non local Contribution for L=           0  read in
    real space projection operators read in
  non local Contribution for L=           1  read in
    real space projection operators read in
  non local Contribution for L=           1  read in
    real space projection operators read in
    PAW grid and wavefunctions read in

   number of l-projection  operators is LMAX  =           4
   number of lm-projection operators is LMMAX =           8

  PAW_PBE C_h 06Feb2004                 :
 energy of atom  1       EATOM= -147.1560
 kinetic energy error for atom=    0.0031 (will be added to EATOM!!)
  PAW_PBE H_h 06Feb2004                 :
 energy of atom  2       EATOM=  -12.4884
 kinetic energy error for atom=    0.0006 (will be added to EATOM!!)
  PAW_PBE N_h 06Feb2004                 :
 energy of atom  3       EATOM= -264.5486
 kinetic energy error for atom=    0.0081 (will be added to EATOM!!)
  PAW_PBE O_h 06Feb2004                 :
 energy of atom  4       EATOM= -432.3788
 kinetic energy error for atom=    0.0171 (will be added to EATOM!!)


 POSCAR:  C  H  N  O
  positions in cartesian coordinates
  No initial velocities read in

 METAGGA = SCAN                                        LMAXTAU =  6    LMIXTAU =  F

 exchange correlation table for  LEXCH =        8
   RHO(1)=    0.500       N(1)  =     2000
   RHO(2)=  100.500       N(2)  =     4000

 VTST: version 4.1, (05/19/21)

 CHAIN: initializing optimizer
 
 OPT: Using VASP Dynamics algorithm
 CHAIN: Read ICHAIN            0

 POSCAR:  C  H  N  O
  positions in cartesian coordinates
  No initial velocities read in



--------------------------------------------------------------------------------------------------------


 ion  position               nearest neighbor table
   1  0.463  0.444  0.500-  12 1.22  10 1.38   9 1.40
   2  0.559  0.507  0.500-  11 1.22  10 1.42   3 1.45
   3  0.520  0.561  0.500-   7 1.08   4 1.35   2 1.45
   4  0.459  0.555  0.500-   8 1.09   3 1.35   9 1.37
   5  0.551  0.413  0.500-  10 1.02
   6  0.386  0.495  0.500-   9 1.01
   7  0.542  0.605  0.500-   3 1.08
   8  0.429  0.594  0.500-   4 1.09
   9  0.432  0.499  0.500-   6 1.01   4 1.37   1 1.40
  10  0.526  0.452  0.500-   5 1.02   1 1.38   2 1.42
  11  0.614  0.506  0.500-   2 1.22
  12  0.438  0.395  0.500-   1 1.22

  LATTYP: Found a simple cubic cell.
 ALAT       =    22.0000000000
  
  Lattice vectors:
  
 A1 = (  22.0000000000,   0.0000000000,   0.0000000000)
 A2 = (   0.0000000000,  22.0000000000,   0.0000000000)
 A3 = (   0.0000000000,   0.0000000000,  22.0000000000)


Analysis of symmetry for initial positions (statically):
=====================================================================
 Subroutine PRICEL returns:
 Original cell was already a primitive cell.
 

 Routine SETGRP: Setting up the symmetry group for a 
 simple cubic supercell.


 Subroutine GETGRP returns: Found  1 space group operations
 (whereof  1 operations were pure point group operations)
 out of a pool of 48 trial point group operations.


The static configuration has the point symmetry C_1 .


Analysis of symmetry for dynamics (positions and initial velocities):
=====================================================================
 Subroutine PRICEL returns:
 Original cell was already a primitive cell.
 

 Routine SETGRP: Setting up the symmetry group for a 
 simple cubic supercell.


 Subroutine GETGRP returns: Found  1 space group operations
 (whereof  1 operations were pure point group operations)
 out of a pool of 48 trial point group operations.


The dynamic configuration has the point symmetry C_1 .


 Subroutine INISYM returns: Found  1 space group operations
 (whereof  1 operations are pure point group operations),
 and found     1 'primitive' translations


----------------------------------------------------------------------------------------

                                     Primitive cell                                     

  volume of cell :   10648.0000

  direct lattice vectors                    reciprocal lattice vectors
    22.000000000  0.000000000  0.000000000     0.045454545  0.000000000  0.000000000
     0.000000000 22.000000000  0.000000000     0.000000000  0.045454545  0.000000000
     0.000000000  0.000000000 22.000000000     0.000000000  0.000000000  0.045454545

  length of vectors
    22.000000000 22.000000000 22.000000000     0.045454545  0.045454545  0.045454545

  position of ions in fractional coordinates (direct lattice)
     0.463129545  0.444143864  0.500009545
     0.558807273  0.507095682  0.500002727
     0.520470909  0.560906591  0.499960909
     0.459307727  0.555119773  0.499958636
     0.550632727  0.413032045  0.499973636
     0.385612727  0.495340227  0.499958182
     0.542304091  0.605017045  0.499956364
     0.428770909  0.593928864  0.499947727
     0.431513636  0.499239318  0.499996364
     0.525593182  0.451918409  0.500009091
     0.614387273  0.506160682  0.500052273
     0.437569545  0.394982955  0.500035455

  ion indices of the primitive-cell ions
   primitive index   ion index
                 1           1
                 2           2
                 3           3
                 4           4
                 5           5
                 6           6
                 7           7
                 8           8
                 9           9
                10          10
                11          11
                12          12

----------------------------------------------------------------------------------------



 KPOINTS: auto                                    

Automatic generation of k-mesh.
 Grid dimensions read from file:
 generate k-points for:    1    1    1

 Generating k-lattice:

  Cartesian coordinates                     Fractional coordinates (reciprocal lattice)
     0.045454545  0.000000000  0.000000000     1.000000000  0.000000000  0.000000000
     0.000000000  0.045454545  0.000000000     0.000000000  1.000000000  0.000000000
     0.000000000  0.000000000  0.045454545     0.000000000  0.000000000  1.000000000

  Length of vectors
     0.045454545  0.045454545  0.045454545

  Shift w.r.t. Gamma in fractional coordinates (k-lattice)
     0.000000000  0.000000000  0.000000000

 
 Subroutine IBZKPT returns following result:
 ===========================================
 
 Found      1 irreducible k-points:
 
 Following reciprocal coordinates:
            Coordinates               Weight
  0.000000  0.000000  0.000000      1.000000
 
 Following cartesian coordinates:
            Coordinates               Weight
  0.000000  0.000000  0.000000      1.000000
 


--------------------------------------------------------------------------------------------------------




 Dimension of arrays:
   k-points           NKPTS =      1   k-points in BZ     NKDIM =      1   number of bands    NBANDS=     32
   number of dos      NEDOS =    301   number of ions     NIONS =     12
   non local maximal  LDIM  =      4   non local SUM 2l+1 LMDIM =      8
   total plane-waves  NPLWV = ******
   max r-space proj   IRMAX =      1   max aug-charges    IRDMAX=   9667
   dimension x,y,z NGX =   240 NGY =  240 NGZ =  240
   dimension x,y,z NGXF=   480 NGYF=  480 NGZF=  480
   support grid    NGXF=   480 NGYF=  480 NGZF=  480
   ions per type =               4   4   2   2
   NGX,Y,Z   is equivalent  to a cutoff of  18.14, 18.14, 18.14 a.u.
   NGXF,Y,Z  is equivalent  to a cutoff of  36.27, 36.27, 36.27 a.u.

 SYSTEM =  unknown system                          
 POSCAR =   C  H  N  O                             

 Startparameter for this run:
   NWRITE =      2    write-flag & timer
   PREC   = accura    normal or accurate (medium, high low for compatibility)
   ISTART =      0    job   : 0-new  1-cont  2-samecut
   ICHARG =      2    charge: 1-file 2-atom 10-const
   ISPIN  =      1    spin polarized calculation?
   LNONCOLLINEAR =      F non collinear calculations
   LSORBIT =      F    spin-orbit coupling
   INIWAV =      1    electr: 0-lowe 1-rand  2-diag
   LASPH  =      T    aspherical Exc in radial PAW
 Electronic Relaxation 1
   ENCUT  = 1000.0 eV  73.50 Ry    8.57 a.u.  56.73 56.73 56.73*2*pi/ulx,y,z
   ENINI  = 1000.0     initial cutoff
   ENAUG  = 1000.0 eV  augmentation charge cutoff
   NELM   =    200;   NELMIN=  2; NELMDL= -5     # of ELM steps 
   EDIFF  = 0.1E-06   stopping-criterion for ELM
   LREAL  =      F    real-space projection
   NLSPLINE    = F    spline interpolate recip. space projectors
   LCOMPAT=      F    compatible to vasp.4.4
   GGA_COMPAT  = T    GGA compatible to vasp.4.4-vasp.4.6
   LMAXPAW     = -100 max onsite density
   LMAXMIX     =    2 max onsite mixed and CHGCAR
   VOSKOWN=      0    Vosko Wilk Nusair interpolation
   ROPT   =    0.00000   0.00000   0.00000   0.00000
 Ionic relaxation
   EDIFFG = 0.1E-05   stopping-criterion for IOM
   NSW    =      0    number of steps for IOM
   NBLOCK =      1;   KBLOCK =      1    inner block; outer block 
   IBRION =     -1    ionic relax: 0-MD 1-quasi-New 2-CG
   NFREE  =      0    steps in history (QN), initial steepest desc. (CG)
   ISIF   =      0    stress and relaxation
   IWAVPR =     10    prediction:  0-non 1-charg 2-wave 3-comb
   ISYM   =      2    0-nonsym 1-usesym 2-fastsym
   LCORR  =      T    Harris-Foulkes like correction to forces

   POTIM  = 0.5000    time-step for ionic-motion
   TEIN   =    0.0    initial temperature
   TEBEG  =    0.0;   TEEND  =   0.0 temperature during run
   SMASS  =  -3.00    Nose mass-parameter (am)
   estimated Nose-frequenzy (Omega)   =  0.10E-29 period in steps = 0.13E+47 mass=  -0.111E-25a.u.
   SCALEE = 1.0000    scale energy and forces
   NPACO  =    256;   APACO  = 10.0  distance and # of slots for P.C.
   PSTRESS=    0.0 pullay stress

  Mass of Ions in am
   POMASS =  12.01  1.00 14.00 16.00
  Ionic Valenz
   ZVAL   =   4.00  1.00  5.00  6.00
  Atomic Wigner-Seitz radii
   RWIGS  =  -1.00 -1.00 -1.00 -1.00
  virtual crystal weights 
   VCA    =   1.00  1.00  1.00  1.00
   NELECT =      42.0000    total number of electrons
   NUPDOWN=      -1.0000    fix difference up-down

 DOS related values:
   EMIN   =  10.00;   EMAX   =-10.00  energy-range for DOS
   EFERMI =   0.00;   METHOD = LEGACY      
   ISMEAR =     0;   SIGMA  =   0.01  broadening in eV -4-tet -1-fermi 0-gaus

 Electronic relaxation 2 (details)
   IALGO  =     58    algorithm
   LDIAG  =      T    sub-space diagonalisation (order eigenvalues)
   LSUBROT=      F    optimize rotation matrix (better conditioning)
   TURBO    =      0    0=normal 1=particle mesh
   IRESTART =      0    0=no restart 2=restart with 2 vectors
   NREBOOT  =      0    no. of reboots
   NMIN     =      0    reboot dimension
   EREF     =   0.00    reference energy to select bands
   IMIX   =      4    mixing-type and parameters
     AMIX     =   0.40;   BMIX     =  1.00
     AMIX_MAG =   1.60;   BMIX_MAG =  1.00
     AMIN     =   0.10
     WC   =   100.;   INIMIX=   1;  MIXPRE=   1;  MAXMIX= -45

 Intra band minimization:
   WEIMIN = 0.0000     energy-eigenvalue tresh-hold
   EBREAK =  0.78E-09  absolut break condition
   DEPER  =   0.30     relativ break condition  

   TIME   =   0.40     timestep for ELM

  volume/ion in A,a.u.               =     887.33      5988.02
  Fermi-wavevector in a.u.,A,eV,Ry     =   0.258664  0.488803  0.910323  0.066907
  Thomas-Fermi vector in A             =   1.084480

 Write flags
   LWAVE        =      F    write WAVECAR
   LDOWNSAMPLE  =      F    k-point downsampling of WAVECAR
   LCHARG       =      F    write CHGCAR
   LVTOT        =      F    write LOCPOT, total local potential
   LVHAR        =      F    write LOCPOT, Hartree potential only
   LELF         =      F    write electronic localiz. function (ELF)
   LORBIT       =      0    0 simple, 1 ext, 2 COOP (PROOUT), +10 PAW based schemes


 Dipole corrections
   LMONO  =      F    monopole corrections only (constant potential shift)
   LDIPOL =      F    correct potential (dipole corrections)
   IDIPOL =      0    1-x, 2-y, 3-z, 4-all directions 
   EPSILON=  1.0000000 bulk dielectric constant

 Exchange correlation treatment:
   GGA     =    --    GGA type
   LEXCH   =     8    internal setting for exchange type
   LIBXC   =     F    Libxc                    
   VOSKOWN =     0    Vosko Wilk Nusair interpolation
   LHFCALC =     F    Hartree Fock is set to
   LHFONE  =     F    Hartree Fock one center treatment
   AEXX    =    0.0000 exact exchange contribution

 vdW DFT:
   LUSE_VDW   =     T    switch on vdW DFT
   IVDW_NL    =     2    kernel type
   LSPIN_VDW  =     F    use spin-polarized vdW DFT
   Zab_VDW    =-.8491    correlation parameter
   PARAM1     =0.1234
   PARAM2     =1.0000
   PARAM3     =0.0000
   -- rVV10 --
   BPARAM     =15.7000
   CPARAM     = 0.0093

 Linear response parameters
   LEPSILON=     F    determine dielectric tensor
   LRPA    =     F    only Hartree local field effects (RPA)
   LNABLA  =     F    use nabla operator in PAW spheres
   LVEL    =     F    velocity operator in full k-point grid
   CSHIFT  =0.1000    complex shift for real part using Kramers Kronig
   OMEGAMAX=  -1.0    maximum frequency
   DEG_THRESHOLD= 0.2000000E-02 threshold for treating states as degnerate
   RTIME   =   -0.100 relaxation time in fs
  (WPLASMAI=    0.000 imaginary part of plasma frequency in eV, 0.658/RTIME)
   DFIELD  = 0.0000000 0.0000000 0.0000000 field for delta impulse in time

  Optional k-point grid parameters
   LKPOINTS_OPT  =     F    use optional k-point grid
   KPOINTS_OPT_MODE=     1    mode for optional k-point grid

 Orbital magnetization related:
   ORBITALMAG=     F  switch on orbital magnetization
   LCHIMAG   =     F  perturbation theory with respect to B field
   DQ        =  0.001000  dq finite difference perturbation B field
   LLRAUG    =     F  two centre corrections for induced B field
   LBONE     =     F  B-component reconstruction in AE one-centre
   LVGVCALC  =     T  calculate vGv susceptibility
   LVGVAPPL  =     F  apply vGv susceptibility instead of pGv for G=0

 Random number generation:
   RANDOM_GENERATOR = DEFAULT
   PCG_SEED         = not used


--------------------------------------------------------------------------------------------------------


 Static calculation
 charge density and potential will be updated during run
 non-spin polarized calculation
 Conjugate gradient for all bands (Freysoldt, et al. PRB 79, 241103 (2009))
 preconditioned conjugated gradient                                        
 perform sub-space diagonalisation
    before iterative eigenvector-optimisation
 modified Broyden-mixing scheme, WC =      100.0
 initial mixing is a Kerker type mixing with AMIX =  0.4000 and BMIX =      1.0000
 Hartree-type preconditioning will be used
 using additional bands           11
 reciprocal scheme for non local part
 use partial core corrections
 no Harris-corrections to forces 
 use gradient corrections 
 use of overlap-Matrix (Vanderbilt PP)
 Gauss-broadening in eV      SIGMA  =   0.01


--------------------------------------------------------------------------------------------------------


  energy-cutoff  :     1000.00
  volume of cell :    10648.00
      direct lattice vectors                 reciprocal lattice vectors
    22.000000000  0.000000000  0.000000000     0.045454545  0.000000000  0.000000000
     0.000000000 22.000000000  0.000000000     0.000000000  0.045454545  0.000000000
     0.000000000  0.000000000 22.000000000     0.000000000  0.000000000  0.045454545

  length of vectors
    22.000000000 22.000000000 22.000000000     0.045454545  0.045454545  0.045454545



 k-points in units of 2pi/SCALE and weight: auto                                    
   0.00000000  0.00000000  0.00000000       1.000

 k-points in reciprocal lattice and weights: auto                                    
   0.00000000  0.00000000  0.00000000       1.000

 position of ions in fractional coordinates (direct lattice) 
   0.46312955  0.44414386  0.50000955
   0.55880727  0.50709568  0.50000273
   0.52047091  0.56090659  0.49996091
   0.45930773  0.55511977  0.49995864
   0.55063273  0.41303205  0.49997364
   0.38561273  0.49534023  0.49995818
   0.54230409  0.60501705  0.49995636
   0.42877091  0.59392886  0.49994773
   0.43151364  0.49923932  0.49999636
   0.52559318  0.45191841  0.50000909
   0.61438727  0.50616068  0.50005227
   0.43756955  0.39498295  0.50003545

 position of ions in cartesian coordinates  (Angst):
  10.18885000  9.77116500 11.00021000
  12.29376000 11.15610500 11.00006000
  11.45036000 12.33994500 10.99914000
  10.10477000 12.21263500 10.99909000
  12.11392000  9.08670500 10.99942000
   8.48348000 10.89748500 10.99908000
  11.93069000 13.31037500 10.99904000
   9.43296000 13.06643500 10.99885000
   9.49330000 10.98326500 10.99992000
  11.56305000  9.94220500 11.00020000
  13.51652000 11.13553500 11.00115000
   9.62653000  8.68962500 11.00078000



--------------------------------------------------------------------------------------------------------


 use parallel FFT for orbitals z direction half grid
 k-point   1 :   0.0000 0.0000 0.0000  plane waves:  381993

 maximum and minimum number of plane-waves per node :     11948    11928

 maximum number of plane-waves:    381993
 maximum index in each direction: 
   IXMAX=   56   IYMAX=   56   IZMAX=   56
   IXMIN=  -56   IYMIN=  -56   IZMIN=    0


 parallel 3D FFT for wavefunctions:
    minimum data exchange during FFTs selected (reduces bandwidth)
 parallel 3D FFT for charge:
    minimum data exchange during FFTs selected (reduces bandwidth)


 total amount of memory used by VASP MPI-rank0   132714. kBytes
=======================================================================

   base      :      30000. kBytes
   nonl-proj :       5347. kBytes
   fftplans  :      24880. kBytes
   grid      :      70194. kBytes
   one-center:          1. kBytes
   wavefun   :       2292. kBytes

     INWAV:  cpu time      0.0001: real time      0.0003
 Broyden mixing: mesh for mixing (old mesh)
   NGX =113   NGY =113   NGZ =113
  (NGX  =480   NGY  =480   NGZ  =480)
  gives a total of ****** points

 initial charge density was supplied:
 charge density of overlapping atoms calculated
 number of electron      42.0000000 magnetization 
 keeping initial charge density in first step


--------------------------------------------------------------------------------------------------------


 Maximum index for augmentation-charges          483 (set IRDMAX)


--------------------------------------------------------------------------------------------------------


 First call to EWALD:  gamma=   0.081
 Maximum number of real-space cells 3x 3x 3
 Maximum number of reciprocal cells 3x 3x 3

    FEWALD:  cpu time      0.0054: real time      0.0054


--------------------------------------- Ionic step        1  -------------------------------------------




--------------------------------------- Iteration      1(   1)  ---------------------------------------


    POTLOK:  cpu time     16.0645: real time     16.0687
    SETDIJ:  cpu time      0.2852: real time      0.2859
    TRIAL :  cpu time      3.9625: real time      3.9648
    CORREC:  cpu time      0.0029: real time      0.0029
    --------------------------------------------
      LOOP:  cpu time     20.3249: real time     20.3322

 eigenvalue-minimisations  :    80
 total energy-change (2. order) : 0.4578715E+03  (-0.1130672E+04)
 number of electron      42.0000000 magnetization 
 augmentation part       42.0000000 magnetization 

 Free energy of the ion-electron system (eV)
  ---------------------------------------------------
  alpha Z        PSCENC =         0.49439650
  Ewald energy   TEWEN  =      3396.28928168
  -Hartree energ DENC   =     -4906.76837444
  -exchange      EXHF   =         0.00000000
  -V(xc)+E(xc)   XCENC  =       159.22095484
  PAW double counting   =      1533.09791624    -1530.51488402
  entropy T*S    EENTRO =        -0.00000000
  eigenvalues    EBANDS =      -226.31510090
  atomic energy  EATOM  =      2032.36727914
  ---------------------------------------------------
  free energy    TOTEN  =       457.87146904 eV

  energy without entropy =      457.87146904  energy(sigma->0) =      457.87146904


--------------------------------------------------------------------------------------------------------




--------------------------------------- Iteration      1(   2)  ---------------------------------------


    TRIAL :  cpu time      5.3286: real time      5.3303
    CORREC:  cpu time      0.0004: real time      0.0004
    --------------------------------------------
      LOOP:  cpu time      5.3449: real time      5.3592

 eigenvalue-minimisations  :   128
 total energy-change (2. order) :-0.2350854E+03  (-0.2248730E+03)
 number of electron      42.0000000 magnetization 
 augmentation part       42.0000000 magnetization 

 Free energy of the ion-electron system (eV)
  ---------------------------------------------------
  alpha Z        PSCENC =         0.49439650
  Ewald energy   TEWEN  =      3396.28928168
  -Hartree energ DENC   =     -4906.76837444
  -exchange      EXHF   =         0.00000000
  -V(xc)+E(xc)   XCENC  =       159.22095484
  PAW double counting   =      1533.09791624    -1530.51488402
  entropy T*S    EENTRO =        -0.00000007
  eigenvalues    EBANDS =      -461.40051589
  atomic energy  EATOM  =      2032.36727914
  ---------------------------------------------------
  free energy    TOTEN  =       222.78605398 eV

  energy without entropy =      222.78605405  energy(sigma->0) =      222.78605401


--------------------------------------------------------------------------------------------------------




--------------------------------------- Iteration      1(   3)  ---------------------------------------


    TRIAL :  cpu time      4.6275: real time      4.6295
    CORREC:  cpu time      0.0002: real time      0.0002
    --------------------------------------------
      LOOP:  cpu time      4.6402: real time      4.6590

 eigenvalue-minimisations  :   104
 total energy-change (2. order) :-0.2206665E+03  (-0.2104630E+03)
 number of electron      42.0000000 magnetization 
 augmentation part       42.0000000 magnetization 

 Free energy of the ion-electron system (eV)
  ---------------------------------------------------
  alpha Z        PSCENC =         0.49439650
  Ewald energy   TEWEN  =      3396.28928168
  -Hartree energ DENC   =     -4906.76837444
  -exchange      EXHF   =         0.00000000
  -V(xc)+E(xc)   XCENC  =       159.22095484
  PAW double counting   =      1533.09791624    -1530.51488402
  entropy T*S    EENTRO =        -0.00000000
  eigenvalues    EBANDS =      -682.06701841
  atomic energy  EATOM  =      2032.36727914
  ---------------------------------------------------
  free energy    TOTEN  =         2.11955153 eV

  energy without entropy =        2.11955153  energy(sigma->0) =        2.11955153


--------------------------------------------------------------------------------------------------------




--------------------------------------- Iteration      1(   4)  ---------------------------------------


    TRIAL :  cpu time      3.9372: real time      3.9389
    CORREC:  cpu time      0.0002: real time      0.0002
    --------------------------------------------
      LOOP:  cpu time      3.9669: real time      3.9688

 eigenvalue-minimisations  :    80
 total energy-change (2. order) :-0.9464769E+02  (-0.9423579E+02)
 number of electron      42.0000000 magnetization 
 augmentation part       42.0000000 magnetization 

 Free energy of the ion-electron system (eV)
  ---------------------------------------------------
  alpha Z        PSCENC =         0.49439650
  Ewald energy   TEWEN  =      3396.28928168
  -Hartree energ DENC   =     -4906.76837444
  -exchange      EXHF   =         0.00000000
  -V(xc)+E(xc)   XCENC  =       159.22095484
  PAW double counting   =      1533.09791624    -1530.51488402
  entropy T*S    EENTRO =        -0.00000000
  eigenvalues    EBANDS =      -776.71470594
  atomic energy  EATOM  =      2032.36727914
  ---------------------------------------------------
  free energy    TOTEN  =       -92.52813601 eV

  energy without entropy =      -92.52813601  energy(sigma->0) =      -92.52813601


--------------------------------------------------------------------------------------------------------




--------------------------------------- Iteration      1(   5)  ---------------------------------------


    TRIAL :  cpu time      4.3996: real time      4.4009
    CORREC:  cpu time      0.0001: real time      0.0001
    CHARGE:  cpu time      0.7081: real time      0.7100
    --------------------------------------------
      LOOP:  cpu time      5.1205: real time      5.1407

 eigenvalue-minimisations  :    96
 total energy-change (2. order) :-0.1631000E+02  (-0.1624219E+02)
 number of electron      42.0000000 magnetization 
 augmentation part        0.0565510 magnetization 

 Free energy of the ion-electron system (eV)
  ---------------------------------------------------
  alpha Z        PSCENC =         0.49439650
  Ewald energy   TEWEN  =      3396.28928168
  -Hartree energ DENC   =     -4906.76837444
  -exchange      EXHF   =         0.00000000
  -V(xc)+E(xc)   XCENC  =       159.22095484
  PAW double counting   =      1533.09791624    -1530.51488402
  entropy T*S    EENTRO =        -0.00000000
  eigenvalues    EBANDS =      -793.02470471
  atomic energy  EATOM  =      2032.36727914
  ---------------------------------------------------
  free energy    TOTEN  =      -108.83813477 eV

  energy without entropy =     -108.83813477  energy(sigma->0) =     -108.83813477


--------------------------------------------------------------------------------------------------------




--------------------------------------- Iteration      1(   6)  ---------------------------------------


    POTLOK:  cpu time     15.9341: real time     15.9370
    SETDIJ:  cpu time      0.3016: real time      0.3016
    TRIAL :  cpu time      3.4032: real time      3.4053
    CORREC:  cpu time     17.7460: real time     17.7508
    CHARGE:  cpu time      0.6687: real time      0.6692
    --------------------------------------------
      LOOP:  cpu time     38.0668: real time     38.0935

 eigenvalue-minimisations  :     0
 total energy-change (2. order) : 0.2656760E+02  (-0.5135136E+01)
 number of electron      42.0000000 magnetization 
 augmentation part        0.0250027 magnetization 

 Free energy of the ion-electron system (eV)
  ---------------------------------------------------
  alpha Z        PSCENC =         0.49439650
  Ewald energy   TEWEN  =      3396.28928168
  -Hartree energ DENC   =     -5194.05806314
  -exchange      EXHF   =         0.00000000
  -V(xc)+E(xc)   XCENC  =       178.98064344
  PAW double counting   =     22257.71461197   -22257.21839820
  entropy T*S    EENTRO =        -0.00000000
  eigenvalues    EBANDS =      -496.84028553
  atomic energy  EATOM  =      2032.36727914
  ---------------------------------------------------
  free energy    TOTEN  =       -82.27053413 eV

  energy without entropy =      -82.27053413  energy(sigma->0) =      -82.27053413


--------------------------------------------------------------------------------------------------------




--------------------------------------- Iteration      1(   7)  ---------------------------------------


    POTLOK:  cpu time     15.9534: real time     15.9567
    SETDIJ:  cpu time      0.2427: real time      0.2427
    TRIAL :  cpu time      3.3878: real time      3.3888
    CORREC:  cpu time     17.8646: real time     17.8686
    CHARGE:  cpu time      0.6656: real time      0.6660
    --------------------------------------------
      LOOP:  cpu time     38.1288: real time     38.1526

 eigenvalue-minimisations  :     0
 total energy-change (2. order) :-0.5188629E+01  (-0.8339896E+00)
 number of electron      42.0000000 magnetization 
 augmentation part        0.0001938 magnetization 

 Free energy of the ion-electron system (eV)
  ---------------------------------------------------
  alpha Z        PSCENC =         0.49439650
  Ewald energy   TEWEN  =      3396.28928168
  -Hartree energ DENC   =     -5068.28932713
  -exchange      EXHF   =         0.00000000
  -V(xc)+E(xc)   XCENC  =       171.56880256
  PAW double counting   =     25380.84512624   -25379.22860702
  entropy T*S    EENTRO =        -0.00000000
  eigenvalues    EBANDS =      -621.50611481
  atomic energy  EATOM  =      2032.36727914
  ---------------------------------------------------
  free energy    TOTEN  =       -87.45916284 eV

  energy without entropy =      -87.45916284  energy(sigma->0) =      -87.45916284


--------------------------------------------------------------------------------------------------------




--------------------------------------- Iteration      1(   8)  ---------------------------------------


    POTLOK:  cpu time     15.9206: real time     15.9260
    SETDIJ:  cpu time      0.2953: real time      0.2954
    TRIAL :  cpu time      3.3889: real time      3.3914
    CORREC:  cpu time     17.8656: real time     17.8745
    CHARGE:  cpu time      0.6650: real time      0.6656
    --------------------------------------------
      LOOP:  cpu time     38.1518: real time     38.1844

 eigenvalue-minimisations  :     0
 total energy-change (2. order) :-0.8362669E+00  (-0.3102090E+00)
 number of electron      42.0000000 magnetization 
 augmentation part        0.0045555 magnetization 

 Free energy of the ion-electron system (eV)
  ---------------------------------------------------
  alpha Z        PSCENC =         0.49439650
  Ewald energy   TEWEN  =      3396.28928168
  -Hartree energ DENC   =     -5068.77279944
  -exchange      EXHF   =         0.00000000
  -V(xc)+E(xc)   XCENC  =       171.24093384
  PAW double counting   =     26679.48759888   -26677.69743479
  entropy T*S    EENTRO =        -0.00000000
  eigenvalues    EBANDS =      -621.70468557
  atomic energy  EATOM  =      2032.36727914
  ---------------------------------------------------
  free energy    TOTEN  =       -88.29542976 eV

  energy without entropy =      -88.29542976  energy(sigma->0) =      -88.29542976


--------------------------------------------------------------------------------------------------------




--------------------------------------- Iteration      1(   9)  ---------------------------------------


    POTLOK:  cpu time     15.9206: real time     15.9290
    SETDIJ:  cpu time      0.3047: real time      0.3048
    TRIAL :  cpu time      3.4013: real time      3.4039
    CORREC:  cpu time     17.7893: real time     17.7971
    CHARGE:  cpu time      0.6657: real time      0.6660
    --------------------------------------------
      LOOP:  cpu time     38.0978: real time     38.1317

 eigenvalue-minimisations  :     0
 total energy-change (2. order) :-0.3098882E+00  (-0.1334316E+00)
 number of electron      42.0000000 magnetization 
 augmentation part        0.0087257 magnetization 

 Free energy of the ion-electron system (eV)
  ---------------------------------------------------
  alpha Z        PSCENC =         0.49439650
  Ewald energy   TEWEN  =      3396.28928168
  -Hartree energ DENC   =     -5075.85540744
  -exchange      EXHF   =         0.00000000
  -V(xc)+E(xc)   XCENC  =       171.34936747
  PAW double counting   =     28038.60602626   -28036.80349784
  entropy T*S    EENTRO =        -0.00000000
  eigenvalues    EBANDS =      -615.05276369
  atomic energy  EATOM  =      2032.36727914
  ---------------------------------------------------
  free energy    TOTEN  =       -88.60531792 eV

  energy without entropy =      -88.60531792  energy(sigma->0) =      -88.60531792


--------------------------------------------------------------------------------------------------------




--------------------------------------- Iteration      1(  10)  ---------------------------------------


    POTLOK:  cpu time     15.9620: real time     15.9684
    SETDIJ:  cpu time      0.3099: real time      0.3102
    TRIAL :  cpu time      3.3898: real time      3.3915
    CORREC:  cpu time     17.7245: real time     17.7324
    CHARGE:  cpu time      0.6669: real time      0.6672
    --------------------------------------------
      LOOP:  cpu time     38.0860: real time     38.1026

 eigenvalue-minimisations  :     0
 total energy-change (2. order) :-0.1329725E+00  (-0.5247223E-01)
 number of electron      42.0000000 magnetization 
 augmentation part        0.0110117 magnetization 

 Free energy of the ion-electron system (eV)
  ---------------------------------------------------
  alpha Z        PSCENC =         0.49439650
  Ewald energy   TEWEN  =      3396.28928168
  -Hartree energ DENC   =     -5072.33934239
  -exchange      EXHF   =         0.00000000
  -V(xc)+E(xc)   XCENC  =       171.20432949
  PAW double counting   =     28634.01714082   -28632.20398683
  entropy T*S    EENTRO =        -0.00000000
  eigenvalues    EBANDS =      -618.56738879
  atomic energy  EATOM  =      2032.36727914
  ---------------------------------------------------
  free energy    TOTEN  =       -88.73829038 eV

  energy without entropy =      -88.73829038  energy(sigma->0) =      -88.73829038


--------------------------------------------------------------------------------------------------------




--------------------------------------- Iteration      1(  11)  ---------------------------------------


    POTLOK:  cpu time     15.9196: real time     15.9254
    SETDIJ:  cpu time      0.2714: real time      0.2716
    TRIAL :  cpu time      3.3915: real time      3.3929
    CORREC:  cpu time     17.8102: real time     17.8159
    CHARGE:  cpu time      0.6671: real time      0.6673
    --------------------------------------------
      LOOP:  cpu time     38.0791: real time     38.1051

 eigenvalue-minimisations  :     0
 total energy-change (2. order) :-0.5231633E-01  (-0.2023996E-01)
 number of electron      42.0000000 magnetization 
 augmentation part        0.0124549 magnetization 

 Free energy of the ion-electron system (eV)
  ---------------------------------------------------
  alpha Z        PSCENC =         0.49439650
  Ewald energy   TEWEN  =      3396.28928168
  -Hartree energ DENC   =     -5069.21174917
  -exchange      EXHF   =         0.00000000
  -V(xc)+E(xc)   XCENC  =       171.16743536
  PAW double counting   =     28499.79570631   -28497.99864184
  entropy T*S    EENTRO =        -0.00000000
  eigenvalues    EBANDS =      -621.69431470
  atomic energy  EATOM  =      2032.36727914
  ---------------------------------------------------
  free energy    TOTEN  =       -88.79060670 eV

  energy without entropy =      -88.79060670  energy(sigma->0) =      -88.79060670


--------------------------------------------------------------------------------------------------------




--------------------------------------- Iteration      1(  12)  ---------------------------------------


    POTLOK:  cpu time     15.8655: real time     15.8704
    SETDIJ:  cpu time      0.4012: real time      0.4015
    TRIAL :  cpu time      3.3957: real time      3.3972
    CORREC:  cpu time     17.7744: real time     17.7802
    CHARGE:  cpu time      0.6671: real time      0.6676
    --------------------------------------------
      LOOP:  cpu time     38.1182: real time     38.1474

 eigenvalue-minimisations  :     0
 total energy-change (2. order) :-0.2019031E-01  (-0.7236557E-02)
 number of electron      42.0000000 magnetization 
 augmentation part        0.0122385 magnetization 

 Free energy of the ion-electron system (eV)
  ---------------------------------------------------
  alpha Z        PSCENC =         0.49439650
  Ewald energy   TEWEN  =      3396.28928168
  -Hartree energ DENC   =     -5068.66929805
  -exchange      EXHF   =         0.00000000
  -V(xc)+E(xc)   XCENC  =       171.15685115
  PAW double counting   =     28321.51228968   -28319.72609195
  entropy T*S    EENTRO =        -0.00000000
  eigenvalues    EBANDS =      -622.23550517
  atomic energy  EATOM  =      2032.36727914
  ---------------------------------------------------
  free energy    TOTEN  =       -88.81079702 eV

  energy without entropy =      -88.81079702  energy(sigma->0) =      -88.81079702


--------------------------------------------------------------------------------------------------------




--------------------------------------- Iteration      1(  13)  ---------------------------------------


    POTLOK:  cpu time     15.9951: real time     15.9995
    SETDIJ:  cpu time      0.2517: real time      0.2517
    TRIAL :  cpu time      3.3912: real time      3.3923
    CORREC:  cpu time     17.7738: real time     17.7788
    CHARGE:  cpu time      0.6679: real time      0.6684
    --------------------------------------------
      LOOP:  cpu time     38.0942: real time     38.1202

 eigenvalue-minimisations  :     0
 total energy-change (2. order) :-0.7240277E-02  (-0.3185037E-02)
 number of electron      42.0000000 magnetization 
 augmentation part        0.0118983 magnetization 

 Free energy of the ion-electron system (eV)
  ---------------------------------------------------
  alpha Z        PSCENC =         0.49439650
  Ewald energy   TEWEN  =      3396.28928168
  -Hartree energ DENC   =     -5068.34777593
  -exchange      EXHF   =         0.00000000
  -V(xc)+E(xc)   XCENC  =       171.12750245
  PAW double counting   =     28210.95915641   -28209.17025632
  entropy T*S    EENTRO =        -0.00000000
  eigenvalues    EBANDS =      -622.53762122
  atomic energy  EATOM  =      2032.36727914
  ---------------------------------------------------
  free energy    TOTEN  =       -88.81803729 eV

  energy without entropy =      -88.81803729  energy(sigma->0) =      -88.81803729


--------------------------------------------------------------------------------------------------------




--------------------------------------- Iteration      1(  14)  ---------------------------------------


    POTLOK:  cpu time     15.8835: real time     15.8875
    SETDIJ:  cpu time      0.3719: real time      0.3719
    TRIAL :  cpu time      3.4020: real time      3.4030
    CORREC:  cpu time     17.8282: real time     17.8330
    CHARGE:  cpu time      0.6673: real time      0.6678
    --------------------------------------------
      LOOP:  cpu time     38.1680: real time     38.1940

 eigenvalue-minimisations  :     0
 total energy-change (2. order) :-0.3188808E-02  (-0.1715245E-02)
 number of electron      42.0000000 magnetization 
 augmentation part        0.0117468 magnetization 

 Free energy of the ion-electron system (eV)
  ---------------------------------------------------
  alpha Z        PSCENC =         0.49439650
  Ewald energy   TEWEN  =      3396.28928168
  -Hartree energ DENC   =     -5068.19039986
  -exchange      EXHF   =         0.00000000
  -V(xc)+E(xc)   XCENC  =       171.12102455
  PAW double counting   =     28086.72152185   -28084.93172416
  entropy T*S    EENTRO =        -0.00000000
  eigenvalues    EBANDS =      -622.69260580
  atomic energy  EATOM  =      2032.36727914
  ---------------------------------------------------
  free energy    TOTEN  =       -88.82122610 eV

  energy without entropy =      -88.82122610  energy(sigma->0) =      -88.82122610


--------------------------------------------------------------------------------------------------------




--------------------------------------- Iteration      1(  15)  ---------------------------------------


    POTLOK:  cpu time     15.9298: real time     15.9326
    SETDIJ:  cpu time      0.2945: real time      0.2945
    TRIAL :  cpu time      3.3915: real time      3.3930
    CORREC:  cpu time     17.8037: real time     17.8075
    CHARGE:  cpu time      0.6646: real time      0.6652
    --------------------------------------------
      LOOP:  cpu time     38.1148: real time     38.1236

 eigenvalue-minimisations  :     0
 total energy-change (2. order) :-0.1719546E-02  (-0.9558787E-03)
 number of electron      42.0000000 magnetization 
 augmentation part        0.0118565 magnetization 

 Free energy of the ion-electron system (eV)
  ---------------------------------------------------
  alpha Z        PSCENC =         0.49439650
  Ewald energy   TEWEN  =      3396.28928168
  -Hartree energ DENC   =     -5068.24802156
  -exchange      EXHF   =         0.00000000
  -V(xc)+E(xc)   XCENC  =       171.11949786
  PAW double counting   =     27964.95010590   -27963.15969890
  entropy T*S    EENTRO =        -0.00000000
  eigenvalues    EBANDS =      -622.63578627
  atomic energy  EATOM  =      2032.36727914
  ---------------------------------------------------
  free energy    TOTEN  =       -88.82294565 eV

  energy without entropy =      -88.82294565  energy(sigma->0) =      -88.82294565


--------------------------------------------------------------------------------------------------------




--------------------------------------- Iteration      1(  16)  ---------------------------------------


    POTLOK:  cpu time     15.9411: real time     15.9453
    SETDIJ:  cpu time      0.2899: real time      0.2899
    TRIAL :  cpu time      3.3873: real time      3.3891
    CORREC:  cpu time     17.7425: real time     17.7473
    CHARGE:  cpu time      0.6657: real time      0.6663
    --------------------------------------------
      LOOP:  cpu time     38.0424: real time     38.0683

 eigenvalue-minimisations  :     0
 total energy-change (2. order) :-0.9575339E-03  (-0.4410572E-03)
 number of electron      42.0000000 magnetization 
 augmentation part        0.0119336 magnetization 

 Free energy of the ion-electron system (eV)
  ---------------------------------------------------
  alpha Z        PSCENC =         0.49439650
  Ewald energy   TEWEN  =      3396.28928168
  -Hartree energ DENC   =     -5068.44030730
  -exchange      EXHF   =         0.00000000
  -V(xc)+E(xc)   XCENC  =       171.12656394
  PAW double counting   =     27885.26765611   -27883.47800626
  entropy T*S    EENTRO =        -0.00000000
  eigenvalues    EBANDS =      -622.45076700
  atomic energy  EATOM  =      2032.36727914
  ---------------------------------------------------
  free energy    TOTEN  =       -88.82390318 eV

  energy without entropy =      -88.82390318  energy(sigma->0) =      -88.82390318


--------------------------------------------------------------------------------------------------------




--------------------------------------- Iteration      1(  17)  ---------------------------------------


    POTLOK:  cpu time     15.9767: real time     15.9816
    SETDIJ:  cpu time      0.2711: real time      0.2711
    TRIAL :  cpu time      3.3948: real time      3.3965
    CORREC:  cpu time     17.8370: real time     17.8427
    CHARGE:  cpu time      0.6656: real time      0.6659
    --------------------------------------------
      LOOP:  cpu time     38.1591: real time     38.1901

 eigenvalue-minimisations  :     0
 total energy-change (2. order) :-0.4418430E-03  (-0.1588227E-03)
 number of electron      42.0000000 magnetization 
 augmentation part        0.0119279 magnetization 

 Free energy of the ion-electron system (eV)
  ---------------------------------------------------
  alpha Z        PSCENC =         0.49439650
  Ewald energy   TEWEN  =      3396.28928168
  -Hartree energ DENC   =     -5068.45381949
  -exchange      EXHF   =         0.00000000
  -V(xc)+E(xc)   XCENC  =       171.12796417
  PAW double counting   =     27872.92382203   -27871.13403079
  entropy T*S    EENTRO =        -0.00000000
  eigenvalues    EBANDS =      -622.43923826
  atomic energy  EATOM  =      2032.36727914
  ---------------------------------------------------
  free energy    TOTEN  =       -88.82434502 eV

  energy without entropy =      -88.82434502  energy(sigma->0) =      -88.82434502


--------------------------------------------------------------------------------------------------------




--------------------------------------- Iteration      1(  18)  ---------------------------------------


    POTLOK:  cpu time     15.9780: real time     15.9824
    SETDIJ:  cpu time      0.2498: real time      0.2500
    TRIAL :  cpu time      3.3910: real time      3.3924
    CORREC:  cpu time     17.7814: real time     17.7873
    CHARGE:  cpu time      0.6653: real time      0.6655
    --------------------------------------------
      LOOP:  cpu time     38.0739: real time     38.1075

 eigenvalue-minimisations  :     0
 total energy-change (2. order) :-0.1591575E-03  (-0.5420543E-04)
 number of electron      42.0000000 magnetization 
 augmentation part        0.0119567 magnetization 

 Free energy of the ion-electron system (eV)
  ---------------------------------------------------
  alpha Z        PSCENC =         0.49439650
  Ewald energy   TEWEN  =      3396.28928168
  -Hartree energ DENC   =     -5068.49411037
  -exchange      EXHF   =         0.00000000
  -V(xc)+E(xc)   XCENC  =       171.12890909
  PAW double counting   =     27900.80871742   -27899.01842969
  entropy T*S    EENTRO =        -0.00000000
  eigenvalues    EBANDS =      -622.40054795
  atomic energy  EATOM  =      2032.36727914
  ---------------------------------------------------
  free energy    TOTEN  =       -88.82450418 eV

  energy without entropy =      -88.82450418  energy(sigma->0) =      -88.82450418


--------------------------------------------------------------------------------------------------------




--------------------------------------- Iteration      1(  19)  ---------------------------------------


    POTLOK:  cpu time     15.9085: real time     15.9133
    SETDIJ:  cpu time      0.3133: real time      0.3135
    TRIAL :  cpu time      3.3877: real time      3.3891
    CORREC:  cpu time     17.8276: real time     17.8331
    CHARGE:  cpu time      0.6649: real time      0.6654
    --------------------------------------------
      LOOP:  cpu time     38.1157: real time     38.1464

 eigenvalue-minimisations  :     0
 total energy-change (2. order) :-0.5403933E-04  (-0.1628138E-04)
 number of electron      42.0000000 magnetization 
 augmentation part        0.0119570 magnetization 

 Free energy of the ion-electron system (eV)
  ---------------------------------------------------
  alpha Z        PSCENC =         0.49439650
  Ewald energy   TEWEN  =      3396.28928168
  -Hartree energ DENC   =     -5068.54806320
  -exchange      EXHF   =         0.00000000
  -V(xc)+E(xc)   XCENC  =       171.13170745
  PAW double counting   =     27933.25471218   -27931.46456760
  entropy T*S    EENTRO =        -0.00000000
  eigenvalues    EBANDS =      -622.34930438
  atomic energy  EATOM  =      2032.36727914
  ---------------------------------------------------
  free energy    TOTEN  =       -88.82455822 eV

  energy without entropy =      -88.82455822  energy(sigma->0) =      -88.82455822


--------------------------------------------------------------------------------------------------------




--------------------------------------- Iteration      1(  20)  ---------------------------------------


    POTLOK:  cpu time     15.9352: real time     15.9388
    SETDIJ:  cpu time      0.4093: real time      0.4095
    TRIAL :  cpu time      3.4201: real time      3.4215
    CORREC:  cpu time     17.8632: real time     17.8678
    CHARGE:  cpu time      0.6675: real time      0.6682
    --------------------------------------------
      LOOP:  cpu time     38.3116: real time     38.3366

 eigenvalue-minimisations  :     0
 total energy-change (2. order) :-0.1672815E-04  (-0.7875774E-05)
 number of electron      42.0000000 magnetization 
 augmentation part        0.0119873 magnetization 

 Free energy of the ion-electron system (eV)
  ---------------------------------------------------
  alpha Z        PSCENC =         0.49439650
  Ewald energy   TEWEN  =      3396.28928168
  -Hartree energ DENC   =     -5068.51238070
  -exchange      EXHF   =         0.00000000
  -V(xc)+E(xc)   XCENC  =       171.12985950
  PAW double counting   =     27953.95606789   -27952.16563317
  entropy T*S    EENTRO =        -0.00000000
  eigenvalues    EBANDS =      -622.38344580
  atomic energy  EATOM  =      2032.36727914
  ---------------------------------------------------
  free energy    TOTEN  =       -88.82457495 eV

  energy without entropy =      -88.82457495  energy(sigma->0) =      -88.82457495


--------------------------------------------------------------------------------------------------------




--------------------------------------- Iteration      1(  21)  ---------------------------------------


    POTLOK:  cpu time     15.9525: real time     15.9568
    SETDIJ:  cpu time      0.3155: real time      0.3155
    TRIAL :  cpu time      3.3923: real time      3.3941
    CORREC:  cpu time     17.7612: real time     17.7659
    CHARGE:  cpu time      0.6653: real time      0.6657
    --------------------------------------------
      LOOP:  cpu time     38.1178: real time     38.1290

 eigenvalue-minimisations  :     0
 total energy-change (2. order) :-0.7561084E-05  (-0.2561925E-05)
 number of electron      42.0000000 magnetization 
 augmentation part        0.0119902 magnetization 

 Free energy of the ion-electron system (eV)
  ---------------------------------------------------
  alpha Z        PSCENC =         0.49439650
  Ewald energy   TEWEN  =      3396.28928168
  -Hartree energ DENC   =     -5068.52419834
  -exchange      EXHF   =         0.00000000
  -V(xc)+E(xc)   XCENC  =       171.13058362
  PAW double counting   =     27968.52224516   -27966.73204425
  entropy T*S    EENTRO =        -0.00000000
  eigenvalues    EBANDS =      -622.37212601
  atomic energy  EATOM  =      2032.36727914
  ---------------------------------------------------
  free energy    TOTEN  =       -88.82458251 eV

  energy without entropy =      -88.82458251  energy(sigma->0) =      -88.82458251


--------------------------------------------------------------------------------------------------------




--------------------------------------- Iteration      1(  22)  ---------------------------------------


    POTLOK:  cpu time     15.9005: real time     15.9048
    SETDIJ:  cpu time      0.3411: real time      0.3411
    TRIAL :  cpu time      3.4013: real time      3.4036
    CORREC:  cpu time     17.8202: real time     17.8256
    CHARGE:  cpu time      0.6678: real time      0.6684
    --------------------------------------------
      LOOP:  cpu time     38.1454: real time     38.1760

 eigenvalue-minimisations  :     0
 total energy-change (2. order) :-0.2620698E-05  (-0.1098256E-05)
 number of electron      42.0000000 magnetization 
 augmentation part        0.0119867 magnetization 

 Free energy of the ion-electron system (eV)
  ---------------------------------------------------
  alpha Z        PSCENC =         0.49439650
  Ewald energy   TEWEN  =      3396.28928168
  -Hartree energ DENC   =     -5068.51619190
  -exchange      EXHF   =         0.00000000
  -V(xc)+E(xc)   XCENC  =       171.13021028
  PAW double counting   =     27975.50475974   -27973.71455234
  entropy T*S    EENTRO =        -0.00000000
  eigenvalues    EBANDS =      -622.37976823
  atomic energy  EATOM  =      2032.36727914
  ---------------------------------------------------
  free energy    TOTEN  =       -88.82458513 eV

  energy without entropy =      -88.82458513  energy(sigma->0) =      -88.82458513


--------------------------------------------------------------------------------------------------------




--------------------------------------- Iteration      1(  23)  ---------------------------------------


    POTLOK:  cpu time     15.8930: real time     15.8979
    SETDIJ:  cpu time      0.3712: real time      0.3712
    TRIAL :  cpu time      3.3951: real time      3.3970
    CORREC:  cpu time     17.8179: real time     17.8231
    CHARGE:  cpu time      0.6688: real time      0.6690
    --------------------------------------------
      LOOP:  cpu time     38.1608: real time     38.1895

 eigenvalue-minimisations  :     0
 total energy-change (2. order) :-0.1112163E-05  (-0.1173548E-05)
 number of electron      42.0000000 magnetization 
 augmentation part        0.0119845 magnetization 

 Free energy of the ion-electron system (eV)
  ---------------------------------------------------
  alpha Z        PSCENC =         0.49439650
  Ewald energy   TEWEN  =      3396.28928168
  -Hartree energ DENC   =     -5068.51109785
  -exchange      EXHF   =         0.00000000
  -V(xc)+E(xc)   XCENC  =       171.13000014
  PAW double counting   =     27976.99012130   -27975.19989524
  entropy T*S    EENTRO =        -0.00000000
  eigenvalues    EBANDS =      -622.38467192
  atomic energy  EATOM  =      2032.36727914
  ---------------------------------------------------
  free energy    TOTEN  =       -88.82458624 eV

  energy without entropy =      -88.82458624  energy(sigma->0) =      -88.82458624


--------------------------------------------------------------------------------------------------------




--------------------------------------- Iteration      1(  24)  ---------------------------------------


    POTLOK:  cpu time     15.9406: real time     15.9441
    SETDIJ:  cpu time      0.2942: real time      0.2944
    TRIAL :  cpu time      3.3907: real time      3.3918
    CORREC:  cpu time     17.7483: real time     17.7531
    CHARGE:  cpu time      0.6653: real time      0.6654
    --------------------------------------------
      LOOP:  cpu time     38.0559: real time     38.0822

 eigenvalue-minimisations  :     0
 total energy-change (2. order) :-0.2049601E-06  (-0.7313242E-06)
 number of electron      42.0000000 magnetization 
 augmentation part        0.0119821 magnetization 

 Free energy of the ion-electron system (eV)
  ---------------------------------------------------
  alpha Z        PSCENC =         0.49439650
  Ewald energy   TEWEN  =      3396.28928168
  -Hartree energ DENC   =     -5068.51685913
  -exchange      EXHF   =         0.00000000
  -V(xc)+E(xc)   XCENC  =       171.13029422
  PAW double counting   =     27974.55818626   -27972.76802876
  entropy T*S    EENTRO =        -0.00000000
  eigenvalues    EBANDS =      -622.37913636
  atomic energy  EATOM  =      2032.36727914
  ---------------------------------------------------
  free energy    TOTEN  =       -88.82458645 eV

  energy without entropy =      -88.82458645  energy(sigma->0) =      -88.82458645


--------------------------------------------------------------------------------------------------------




--------------------------------------- Iteration      1(  25)  ---------------------------------------


    POTLOK:  cpu time     15.9630: real time     15.9672
    SETDIJ:  cpu time      0.2831: real time      0.2833
    TRIAL :  cpu time      3.3959: real time      3.3974
    CORREC:  cpu time     71.2538: real time     71.2741
    CHARGE:  cpu time      0.6657: real time      0.6663
    --------------------------------------------
      LOOP:  cpu time     91.5787: real time     91.6191

 eigenvalue-minimisations  :     0
 total energy-change (2. order) :-0.6818445E-06  (-0.1328401E-05)
 number of electron      42.0000000 magnetization 
 augmentation part        0.0120066 magnetization 

 Free energy of the ion-electron system (eV)
  ---------------------------------------------------
  alpha Z        PSCENC =         0.49439650
  Ewald energy   TEWEN  =      3396.28928168
  -Hartree energ DENC   =     -5068.50902278
  -exchange      EXHF   =         0.00000000
  -V(xc)+E(xc)   XCENC  =       171.12987154
  PAW double counting   =     27974.10283986   -27972.31262456
  entropy T*S    EENTRO =        -0.00000000
  eigenvalues    EBANDS =      -622.38660852
  atomic energy  EATOM  =      2032.36727914
  ---------------------------------------------------
  free energy    TOTEN  =       -88.82458713 eV

  energy without entropy =      -88.82458713  energy(sigma->0) =      -88.82458713


--------------------------------------------------------------------------------------------------------




--------------------------------------- Iteration      1(  26)  ---------------------------------------


    POTLOK:  cpu time     15.9397: real time     15.9440
    SETDIJ:  cpu time      0.3549: real time      0.3549
    TRIAL :  cpu time      3.3874: real time      3.3891
    CORREC:  cpu time     17.8361: real time     17.8411
    CHARGE:  cpu time      0.6662: real time      0.6664
    --------------------------------------------
      LOOP:  cpu time     38.2155: real time     38.2268

 eigenvalue-minimisations  :     0
 total energy-change (2. order) : 0.2462755E-05  (-0.2485894E-05)
 number of electron      42.0000000 magnetization 
 augmentation part        0.0119830 magnetization 

 Free energy of the ion-electron system (eV)
  ---------------------------------------------------
  alpha Z        PSCENC =         0.49439650
  Ewald energy   TEWEN  =      3396.28928168
  -Hartree energ DENC   =     -5068.52762965
  -exchange      EXHF   =         0.00000000
  -V(xc)+E(xc)   XCENC  =       171.13092871
  PAW double counting   =     27970.15642059   -27968.36642708
  entropy T*S    EENTRO =        -0.00000000
  eigenvalues    EBANDS =      -622.36883456
  atomic energy  EATOM  =      2032.36727914
  ---------------------------------------------------
  free energy    TOTEN  =       -88.82458467 eV

  energy without entropy =      -88.82458467  energy(sigma->0) =      -88.82458467


--------------------------------------------------------------------------------------------------------




--------------------------------------- Iteration      1(  27)  ---------------------------------------


    POTLOK:  cpu time     15.9181: real time     15.9225
    SETDIJ:  cpu time      0.3507: real time      0.3509
    TRIAL :  cpu time      3.3916: real time      3.3930
    CORREC:  cpu time     17.7952: real time     17.8004
    CHARGE:  cpu time      0.6665: real time      0.6666
    --------------------------------------------
      LOOP:  cpu time     38.1390: real time     38.1642

 eigenvalue-minimisations  :     0
 total energy-change (2. order) :-0.2010598E-05  (-0.8206789E-06)
 number of electron      42.0000000 magnetization 
 augmentation part        0.0119935 magnetization 

 Free energy of the ion-electron system (eV)
  ---------------------------------------------------
  alpha Z        PSCENC =         0.49439650
  Ewald energy   TEWEN  =      3396.28928168
  -Hartree energ DENC   =     -5068.50446883
  -exchange      EXHF   =         0.00000000
  -V(xc)+E(xc)   XCENC  =       171.12954435
  PAW double counting   =     27970.93372288   -27969.14344764
  entropy T*S    EENTRO =        -0.00000000
  eigenvalues    EBANDS =      -622.39089476
  atomic energy  EATOM  =      2032.36727914
  ---------------------------------------------------
  free energy    TOTEN  =       -88.82458668 eV

  energy without entropy =      -88.82458668  energy(sigma->0) =      -88.82458668


--------------------------------------------------------------------------------------------------------




--------------------------------------- Iteration      1(  28)  ---------------------------------------


    POTLOK:  cpu time     15.9353: real time     15.9396
    SETDIJ:  cpu time      0.3404: real time      0.3406
    TRIAL :  cpu time      3.3944: real time      3.3960
    CORREC:  cpu time     17.8012: real time     17.8066
    CHARGE:  cpu time      0.6666: real time      0.6672
    --------------------------------------------
      LOOP:  cpu time     38.1542: real time     38.1813

 eigenvalue-minimisations  :     0
 total energy-change (2. order) :-0.7759263E-06  (-0.2001653E-06)
 number of electron      42.0000000 magnetization 
 augmentation part        0.0119866 magnetization 

 Free energy of the ion-electron system (eV)
  ---------------------------------------------------
  alpha Z        PSCENC =         0.49439650
  Ewald energy   TEWEN  =      3396.28928168
  -Hartree energ DENC   =     -5068.52666983
  -exchange      EXHF   =         0.00000000
  -V(xc)+E(xc)   XCENC  =       171.13087515
  PAW double counting   =     27971.27673381   -27969.48665661
  entropy T*S    EENTRO =        -0.00000000
  eigenvalues    EBANDS =      -622.36982730
  atomic energy  EATOM  =      2032.36727914
  ---------------------------------------------------
  free energy    TOTEN  =       -88.82458745 eV

  energy without entropy =      -88.82458745  energy(sigma->0) =      -88.82458745


--------------------------------------------------------------------------------------------------------




--------------------------------------- Iteration      1(  29)  ---------------------------------------


    POTLOK:  cpu time     15.9832: real time     15.9877
    SETDIJ:  cpu time      0.2567: real time      0.2567
    TRIAL :  cpu time      3.3913: real time      3.3927
    CORREC:  cpu time     17.8339: real time     17.8390
    EDDIAG:  cpu time      0.8820: real time      0.8828
    CHARGE:  cpu time      0.6645: real time      0.6651
    --------------------------------------------
      LOOP:  cpu time     39.0420: real time     39.0546

 eigenvalue-minimisations  :     0
 total energy-change (2. order) : 0.4935282E-07  (-0.4831067E-07)
 number of electron      42.0000000 magnetization 
 augmentation part        0.0119846 magnetization 

 Free energy of the ion-electron system (eV)
  ---------------------------------------------------
  alpha Z        PSCENC =         0.49439650
  Ewald energy   TEWEN  =      3396.28928168
  -Hartree energ DENC   =     -5068.51621333
  -exchange      EXHF   =         0.00000000
  -V(xc)+E(xc)   XCENC  =       171.13024711
  PAW double counting   =     27971.32163543   -27969.53145624
  entropy T*S    EENTRO =        -0.00000000
  eigenvalues    EBANDS =      -622.37975769
  atomic energy  EATOM  =      2032.36727914
  ---------------------------------------------------
  free energy    TOTEN  =       -88.82458740 eV

  energy without entropy =      -88.82458740  energy(sigma->0) =      -88.82458740


--------------------------------------------------------------------------------------------------------


  average scaling for gradient   0.7909


 average (electrostatic) potential at core
  the test charge radii are     0.5770  0.4325  0.5902  0.5955
  (the norm of the test charge is              1.0000)
       1 -92.3826       2 -91.4630       3 -89.0570       4 -90.7447       5 -50.0366
       6 -50.6484       7 -47.8215       8 -48.7189       9-108.6830      10-108.1767
      11-122.7817      12-123.0209



 E-fermi :  -6.4537     XC(G=0):  -0.1059     alpha+bet : -0.0826

 Fermi energy:        -6.4536760388

 k-point     1 :       0.0000    0.0000    0.0000
  band No.  band energies     occupation 
      1     -28.4752      2.00000
      2     -27.5369      2.00000
      3     -25.9277      2.00000
      4     -24.4786      2.00000
      5     -20.9855      2.00000
      6     -18.0300      2.00000
      7     -17.2618      2.00000
      8     -15.5193      2.00000
      9     -14.4605      2.00000
     10     -13.4743      2.00000
     11     -12.3542      2.00000
     12     -12.1326      2.00000
     13     -11.5535      2.00000
     14     -10.7908      2.00000
     15     -10.6298      2.00000
     16     -10.3340      2.00000
     17      -9.5167      2.00000
     18      -7.3588      2.00000
     19      -7.3389      2.00000
     20      -6.5337      2.00000
     21      -6.5058      2.00000
     22      -2.1787      0.00000
     23      -0.7329      0.00000
     24      -0.3688      0.00000
     25       0.1451      0.00000
     26       0.2617      0.00000
     27       0.3173      0.00000
     28       0.3384      0.00000
     29       0.4002      0.00000
     30       0.4284      0.00000
     31       0.5017      0.00000
     32       0.6671      0.00000


--------------------------------------------------------------------------------------------------------


 soft charge-density along one line, spin component           1
         0         1         2         3         4         5         6         7         8         9
 total charge-density along one line

 pseudopotential strength for first ion, spin component:           1
 12.793  21.529   0.008   0.000   0.003   0.014   0.000   0.005
 21.529  36.231   0.013   0.000   0.005   0.024   0.000   0.009
  0.008   0.013  -3.305  -0.000   0.002  -5.927  -0.000   0.003
  0.000   0.000  -0.000  -3.310  -0.000  -0.000  -5.935  -0.000
  0.003   0.005   0.002  -0.000  -3.307   0.003  -0.000  -5.929
  0.014   0.024  -5.927  -0.000   0.003 -10.606  -0.000   0.004
  0.000   0.000  -0.000  -5.935  -0.000  -0.000 -10.619  -0.000
  0.005   0.009   0.003  -0.000  -5.929   0.004  -0.000 -10.610
 total augmentation occupancy for first ion, spin component:           1
 10.482  -4.142  -1.395   0.001  -0.702   0.657  -0.001   0.333
 -4.142   1.718   0.652  -0.001   0.338  -0.321   0.000  -0.165
 -1.395   0.652  10.025  -0.003   1.290  -3.816   0.001  -0.563
  0.001  -0.001  -0.003   3.487  -0.001   0.001  -1.008   0.000
 -0.702   0.338   1.290  -0.001   8.436  -0.563   0.000  -3.111
  0.657  -0.321  -3.816   0.001  -0.563   1.487  -0.000   0.251
 -0.001   0.000   0.001  -1.008   0.000  -0.000   0.294  -0.000
  0.333  -0.165  -0.563   0.000  -3.111   0.251  -0.000   1.170


------------------------ aborting loop because EDIFF is reached ----------------------------------------


    FORLOC:  cpu time      0.0483: real time      0.0483
    FORNL :  cpu time      0.0390: real time      0.0390
    FORCOR:  cpu time     15.9993: real time     16.0037
    OFIELD:  cpu time      0.0063: real time      0.0063

 VOLUME and BASIS-vectors are now :
 -----------------------------------------------------------------------------
  energy-cutoff  :     1000.00
  volume of cell :    10648.00
      direct lattice vectors                 reciprocal lattice vectors
    22.000000000  0.000000000  0.000000000     0.045454545  0.000000000  0.000000000
     0.000000000 22.000000000  0.000000000     0.000000000  0.045454545  0.000000000
     0.000000000  0.000000000 22.000000000     0.000000000  0.000000000  0.045454545

  length of vectors
    22.000000000 22.000000000 22.000000000     0.045454545  0.045454545  0.045454545


 FORCES acting on ions:
    Electron-Ion                     Ewald-Force                    Non-Local-Force
 -----------------------------------------------------------------------------------------------
   0.334E+02 0.383E+02 0.383E-01   -.357E+02 -.443E+02 -.377E-01   0.216E+01 0.590E+01 0.159E-02
   -.349E+02 -.525E+02 0.129E+00   0.373E+02 0.596E+02 -.129E+00   -.218E+01 -.725E+01 0.267E-02
   -.637E+02 -.210E+03 0.165E+00   0.645E+02 0.211E+03 -.166E+00   -.882E+00 -.200E+01 0.180E-02
   0.115E+03 -.207E+03 0.158E+00   -.109E+03 0.214E+03 -.163E+00   -.617E+01 -.785E+01 0.664E-02
   -.608E+02 0.936E+02 0.762E-01   0.648E+02 -.998E+02 -.798E-01   -.417E+01 0.639E+01 0.612E-02
   0.111E+03 -.335E+01 0.748E-01   -.119E+03 0.260E+01 -.799E-01   0.768E+01 0.768E+00 0.629E-02
   -.320E+02 -.846E+02 0.247E-01   0.347E+02 0.898E+02 -.255E-01   -.276E+01 -.541E+01 0.470E-03
   0.521E+02 -.746E+02 0.291E-01   -.557E+02 0.793E+02 -.309E-01   0.369E+01 -.492E+01 0.125E-02
   0.248E+03 -.610E+02 -.651E-01   -.249E+03 0.595E+02 0.991E-01   0.138E+01 0.132E+01 -.361E-01
   -.124E+03 0.171E+03 -.431E-01   0.127E+03 -.170E+03 0.644E-01   -.323E+01 -.118E+01 -.245E-01
   -.416E+03 -.239E+02 -.289E+00   0.470E+03 0.245E+02 0.345E+00   -.549E+02 -.631E+00 -.601E-01
   0.205E+03 0.378E+03 -.174E+00   -.230E+03 -.428E+03 0.203E+00   0.257E+02 0.501E+02 -.306E-01
 -----------------------------------------------------------------------------------------------
   0.337E+02 -.353E+02 0.121E+00   -.284E-13 -.114E-12 -.278E-16   -.336E+02 0.353E+02 -.124E+00


 POSITION                                       TOTAL-FORCE (eV/Angst)
 -----------------------------------------------------------------------------------
     10.18885      9.77116     11.00021        -0.158166     -0.291822      0.002457
     12.29376     11.15610     11.00006         0.427549     -0.092381      0.003589
     11.45036     12.33995     10.99914        -0.158851     -0.142271      0.000610
     10.10477     12.21264     10.99909         0.229098     -0.179617      0.000944
     12.11392      9.08670     10.99942        -0.177494      0.249134      0.002797
      8.48348     10.89749     10.99908         0.304854      0.018507      0.001512
     11.93069     13.31037     10.99904        -0.099868     -0.180973     -0.000115
      9.43296     13.06644     10.99885         0.121991     -0.188275     -0.000256
      9.49330     10.98327     10.99992         0.122015     -0.143702     -0.001781
     11.56305      9.94220     11.00020        -0.089463      0.046790     -0.003017
     13.51652     11.13553     11.00115        -0.973327     -0.001848     -0.006501
      9.62653      8.68963     11.00078         0.451661      0.906458     -0.000239
 -----------------------------------------------------------------------------------
    total drift:                                0.064790      0.013088     -0.003164


--------------------------------------------------------------------------------------------------------



  FREE ENERGIE OF THE ION-ELECTRON SYSTEM (eV)
  ---------------------------------------------------
  free  energy   TOTEN  =       -88.82458740 eV

  energy  without entropy=      -88.82458740  energy(sigma->0) =      -88.82458740



--------------------------------------------------------------------------------------------------------


    POTLOK:  cpu time     16.2150: real time     16.2190


--------------------------------------------------------------------------------------------------------


 stress matrix after NEB project (eV)
      0.00000      0.00000      0.00000
      0.00000      0.00000      0.00000
      0.00000      0.00000      0.00000
  FORCES: max atom, RMS     1.012750    0.477012
  FORCE total and by dimension    1.652418    0.973327
  Stress total and by dimension    0.000000    0.000000
     LOOP+:  cpu time   1041.1711: real time   1041.8564
    4ORBIT:  cpu time      0.0000: real time      0.0000

 total amount of memory used by VASP MPI-rank0   132714. kBytes
=======================================================================

   base      :      30000. kBytes
   nonl-proj :       5347. kBytes
   fftplans  :      24880. kBytes
   grid      :      70194. kBytes
   one-center:          1. kBytes
   wavefun   :       2292. kBytes

  
  
 General timing and accounting informations for this job:
 ========================================================
  
                  Total CPU time used (sec):     1070.581
                            User time (sec):     1033.802
                          System time (sec):       36.779
                         Elapsed time (sec):     1078.411
  
                   Maximum memory used (kb):      545596.
                   Average memory used (kb):          N/A
  
                          Minor page faults:       915641
                          Major page faults:          612
                 Voluntary context switches:         8023
