 vasp.6.4.1 05Apr23 (build Jun  6 2023 14:46:38) gamma-only                      
 executed on        HPECrayEX_GCC date 2024.08.22  09:53:34
 running  512 mpi-ranks, with    1 threads/rank, on    4 nodes
 distrk:  each k-point on  256 cores,    2 groups
 distr:  one band on NCORE=  32 cores,    8 groups


--------------------------------------------------------------------------------------------------------


 INCAR:
   ALGO = Conjugate
   KPAR = 2
   NCORE = 32
   ISMEAR = 0
   SIGMA = 0.01
   PREC = Accurate
   EDIFF = 1E-7
   ENCUT = 1000
   ISIF = 0
   METAGGA = RSCAN
   LASPH = .TRUE.
   SYMPREC = 1E-7
   LWAVE = .FALSE.
   LCHARG = .FALSE.
   LWAVE = .FALSE.
   LCHARG = .FALSE.

 POTCAR:    PAW_PBE C_h 06Feb2004                 
 POTCAR:    PAW_PBE H_h 06Feb2004                 
 POTCAR:    PAW_PBE N_h 06Feb2004                 
 POTCAR:    PAW_PBE O_h 06Feb2004                 
 POTCAR:    PAW_PBE C_h 06Feb2004                 
   VRHFIN =C: s2p2                                                                                  
   LEXCH  = PE                                                                                      
   EATOM  =   147.1560 eV,   10.8157 Ry                                                             
                                                                                                    
   TITEL  = PAW_PBE C_h 06Feb2004                                                                   
   LULTRA =        F    use ultrasoft PP ?                                                          
   IUNSCR =        1    unscreen: 0-lin 1-nonlin 2-no                                               
   RPACOR =    0.800    partial core radius                                                         
   POMASS =   12.011; ZVAL   =    4.000    mass and valenz                                          
   RCORE  =    1.100    outmost cutoff radius                                                       
   RWIGS  =    1.630; RWIGS  =    0.863    wigner-seitz radius (au A)                               
   ENMAX  =  700.000; ENMIN  =  500.000 eV                                                          
   ICORE  =        2    local potential                                                             
   LCOR   =        T    correct aug charges                                                         
   LPAW   =        T    paw PP                                                                      
   EAUG   =  946.768                                                                                
   DEXC   =    0.000                                                                                
   RMAX   =    1.128    core radius for proj-oper                                                   
   RAUG   =    1.300    factor for augmentation sphere                                              
   RDEP   =    1.162    radius for radial grids                                                     
   RDEPT  =    1.088    core radius for aug-charge                                                  
                                                                                                    
   Atomic configuration                                                                             
    4 entries                                                                                       
     n  l   j            E        occ.                                                              
     1  0  0.50      -273.3789   2.0000                                                             
     2  0  0.50       -13.7508   2.0000                                                             
     2  1  0.50        -5.2854   2.0000                                                             
     3  2  1.50        -5.4423   0.0000                                                             
   Description                                                                                      
     l       E           TYP  RCUT    TYP  RCUT                                                     
     0    -13.7508458     23  1.100                                                                 
     0     -8.2022199     23  1.100                                                                 
     1     -5.2854383     23  1.100                                                                 
     1      1.1560700     23  1.100                                                                 
     2     -5.4423304      7  1.100                                                                 
  local pseudopotential read in
  partial core-charges read in
  partial kinetic energy density read in
  atomic valenz-charges read in
  non local Contribution for L=           0  read in
    real space projection operators read in
  non local Contribution for L=           0  read in
    real space projection operators read in
  non local Contribution for L=           1  read in
    real space projection operators read in
  non local Contribution for L=           1  read in
    real space projection operators read in
    PAW grid and wavefunctions read in

   number of l-projection  operators is LMAX  =           4
   number of lm-projection operators is LMMAX =           8

 POTCAR:    PAW_PBE H_h 06Feb2004                 
   VRHFIN =H: ultrasoft test                                                                        
   LEXCH  = PE                                                                                      
   EATOM  =    12.4884 eV,    0.9179 Ry                                                             
                                                                                                    
   TITEL  = PAW_PBE H_h 06Feb2004                                                                   
   LULTRA =        F    use ultrasoft PP ?                                                          
   IUNSCR =        0    unscreen: 0-lin 1-nonlin 2-no                                               
   RPACOR =    0.000    partial core radius                                                         
   POMASS =    1.000; ZVAL   =    1.000    mass and valenz                                          
   RCORE  =    0.800    outmost cutoff radius                                                       
   RWIGS  =    0.700; RWIGS  =    0.370    wigner-seitz radius (au A)                               
   ENMAX  =  700.000; ENMIN  =  350.000 eV                                                          
   RCLOC  =    0.701    cutoff for local pot                                                        
   LCOR   =        T    correct aug charges                                                         
   LPAW   =        T    paw PP                                                                      
   EAUG   = 1000.000                                                                                
   RMAX   =    0.819    core radius for proj-oper                                                   
   RAUG   =    1.000    factor for augmentation sphere                                              
   RDEP   =    0.817    radius for radial grids                                                     
   RDEPT  =    0.817    core radius for aug-charge                                                  
                                                                                                    
   Atomic configuration                                                                             
    2 entries                                                                                       
     n  l   j            E        occ.                                                              
     1  0  0.50        -6.4927   1.0000                                                             
     2  1  0.50        -3.4015   0.0000                                                             
   Description                                                                                      
     l       E           TYP  RCUT    TYP  RCUT                                                     
     0     -6.4927493     23  0.800                                                                 
     0      6.8029130     23  0.800                                                                 
     1     -6.8029130     23  0.800                                                                 
  local pseudopotential read in
  atomic valenz-charges read in
  non local Contribution for L=           0  read in
    real space projection operators read in
  non local Contribution for L=           0  read in
    real space projection operators read in
  non local Contribution for L=           1  read in
    real space projection operators read in
    PAW grid and wavefunctions read in

   number of l-projection  operators is LMAX  =           3
   number of lm-projection operators is LMMAX =           5

 POTCAR:    PAW_PBE N_h 06Feb2004                 
   VRHFIN =N: s2p3                                                                                  
   LEXCH  = PE                                                                                      
   EATOM  =   264.5486 eV,   19.4438 Ry                                                             
                                                                                                    
   TITEL  = PAW_PBE N_h 06Feb2004                                                                   
   LULTRA =        F    use ultrasoft PP ?                                                          
   IUNSCR =        1    unscreen: 0-lin 1-nonlin 2-no                                               
   RPACOR =    0.800    partial core radius                                                         
   POMASS =   14.001; ZVAL   =    5.000    mass and valenz                                          
   RCORE  =    1.100    outmost cutoff radius                                                       
   RWIGS  =    1.480; RWIGS  =    0.783    wigner-seitz radius (au A)                               
   ENMAX  =  700.000; ENMIN  =  500.000 eV                                                          
   ICORE  =        2    local potential                                                             
   LCOR   =        T    correct aug charges                                                         
   LPAW   =        T    paw PP                                                                      
   EAUG   =  904.640                                                                                
   DEXC   =    0.000                                                                                
   RMAX   =    1.127    core radius for proj-oper                                                   
   RAUG   =    1.300    factor for augmentation sphere                                              
   RDEP   =    1.115    radius for radial grids                                                     
   RDEPT  =    1.106    core radius for aug-charge                                                  
                                                                                                    
   Atomic configuration                                                                             
    4 entries                                                                                       
     n  l   j            E        occ.                                                              
     1  0  0.50      -384.7179   2.0000                                                             
     2  0  0.50       -18.5828   2.0000                                                             
     2  1  0.50        -7.0898   3.0000                                                             
     3  2  1.50        -6.8029   0.0000                                                             
   Description                                                                                      
     l       E           TYP  RCUT    TYP  RCUT                                                     
     0    -18.5828117     23  1.100                                                                 
     0    -15.0750597     23  1.100                                                                 
     1     -7.0897851     23  1.100                                                                 
     1     -1.9663412     23  1.100                                                                 
     2     -6.8029130      7  1.100                                                                 
  local pseudopotential read in
  partial core-charges read in
  partial kinetic energy density read in
  kinetic energy density of atom read in
  atomic valenz-charges read in
  non local Contribution for L=           0  read in
    real space projection operators read in
  non local Contribution for L=           0  read in
    real space projection operators read in
  non local Contribution for L=           1  read in
    real space projection operators read in
  non local Contribution for L=           1  read in
    real space projection operators read in
    PAW grid and wavefunctions read in

   number of l-projection  operators is LMAX  =           4
   number of lm-projection operators is LMMAX =           8

 POTCAR:    PAW_PBE O_h 06Feb2004                 
   VRHFIN =O: s2p4                                                                                  
   LEXCH  = PE                                                                                      
   EATOM  =   432.3788 eV,   31.7789 Ry                                                             
                                                                                                    
   TITEL  = PAW_PBE O_h 06Feb2004                                                                   
   LULTRA =        F    use ultrasoft PP ?                                                          
   IUNSCR =        1    unscreen: 0-lin 1-nonlin 2-no                                               
   RPACOR =    0.800    partial core radius                                                         
   POMASS =   16.000; ZVAL   =    6.000    mass and valenz                                          
   RCORE  =    1.100    outmost cutoff radius                                                       
   RWIGS  =    1.400; RWIGS  =    0.741    wigner-seitz radius (au A)                               
   ENMAX  =  700.000; ENMIN  =  500.000 eV                                                          
   ICORE  =        2    local potential                                                             
   LCOR   =        T    correct aug charges                                                         
   LPAW   =        T    paw PP                                                                      
   EAUG   =  888.804                                                                                
   DEXC   =    0.000                                                                                
   RMAX   =    1.128    core radius for proj-oper                                                   
   RAUG   =    1.300    factor for augmentation sphere                                              
   RDEP   =    1.125    radius for radial grids                                                     
   RDEPT  =    1.088    core radius for aug-charge                                                  
                                                                                                    
   Atomic configuration                                                                             
    4 entries                                                                                       
     n  l   j            E        occ.                                                              
     1  0  0.50      -514.6923   2.0000                                                             
     2  0  0.50       -23.9615   2.0000                                                             
     2  1  0.50        -9.0305   4.0000                                                             
     3  2  1.50        -9.5241   0.0000                                                             
   Description                                                                                      
     l       E           TYP  RCUT    TYP  RCUT                                                     
     0    -23.9615319     23  1.100                                                                 
     0    -25.3221145     23  1.100                                                                 
     1     -9.0304911     23  1.100                                                                 
     1     -5.4802209     23  1.100                                                                 
     2     -9.5240782      7  1.100                                                                 
  local pseudopotential read in
  partial core-charges read in
  partial kinetic energy density read in
  atomic valenz-charges read in
  non local Contribution for L=           0  read in
    real space projection operators read in
  non local Contribution for L=           0  read in
    real space projection operators read in
  non local Contribution for L=           1  read in
    real space projection operators read in
  non local Contribution for L=           1  read in
    real space projection operators read in
    PAW grid and wavefunctions read in

   number of l-projection  operators is LMAX  =           4
   number of lm-projection operators is LMMAX =           8

  PAW_PBE C_h 06Feb2004                 :
 energy of atom  1       EATOM= -147.1560
 kinetic energy error for atom=    0.0031 (will be added to EATOM!!)
  PAW_PBE H_h 06Feb2004                 :
 energy of atom  2       EATOM=  -12.4884
 kinetic energy error for atom=    0.0006 (will be added to EATOM!!)
  PAW_PBE N_h 06Feb2004                 :
 energy of atom  3       EATOM= -264.5486
 kinetic energy error for atom=    0.0081 (will be added to EATOM!!)
  PAW_PBE O_h 06Feb2004                 :
 energy of atom  4       EATOM= -432.3788
 kinetic energy error for atom=    0.0171 (will be added to EATOM!!)


 POSCAR:  C  H  N  O
  positions in cartesian coordinates
  No initial velocities read in

 METAGGA = RSCAN                                       LMAXTAU =  6    LMIXTAU =  F

 exchange correlation table for  LEXCH =        8
   RHO(1)=    0.500       N(1)  =     2000
   RHO(2)=  100.500       N(2)  =     4000

 VTST: version 4.1, (05/19/21)

 CHAIN: initializing optimizer
 
 OPT: Using VASP Dynamics algorithm
 CHAIN: Read ICHAIN            0

 POSCAR:  C  H  N  O
  positions in cartesian coordinates
  No initial velocities read in



--------------------------------------------------------------------------------------------------------


 ion  position               nearest neighbor table
   1  0.463  0.444  0.500-  12 1.22  10 1.38   9 1.40
   2  0.559  0.507  0.500-  11 1.22  10 1.42   3 1.45
   3  0.520  0.561  0.500-   7 1.08   4 1.35   2 1.45
   4  0.459  0.555  0.500-   8 1.09   3 1.35   9 1.37
   5  0.551  0.413  0.500-  10 1.02
   6  0.386  0.495  0.500-   9 1.01
   7  0.542  0.605  0.500-   3 1.08
   8  0.429  0.594  0.500-   4 1.09
   9  0.432  0.499  0.500-   6 1.01   4 1.37   1 1.40
  10  0.526  0.452  0.500-   5 1.02   1 1.38   2 1.42
  11  0.614  0.506  0.500-   2 1.22
  12  0.438  0.395  0.500-   1 1.22

  LATTYP: Found a simple cubic cell.
 ALAT       =    22.0000000000
  
  Lattice vectors:
  
 A1 = (  22.0000000000,   0.0000000000,   0.0000000000)
 A2 = (   0.0000000000,  22.0000000000,   0.0000000000)
 A3 = (   0.0000000000,   0.0000000000,  22.0000000000)


Analysis of symmetry for initial positions (statically):
=====================================================================
 Subroutine PRICEL returns:
 Original cell was already a primitive cell.
 

 Routine SETGRP: Setting up the symmetry group for a 
 simple cubic supercell.


 Subroutine GETGRP returns: Found  1 space group operations
 (whereof  1 operations were pure point group operations)
 out of a pool of 48 trial point group operations.


The static configuration has the point symmetry C_1 .


Analysis of symmetry for dynamics (positions and initial velocities):
=====================================================================
 Subroutine PRICEL returns:
 Original cell was already a primitive cell.
 

 Routine SETGRP: Setting up the symmetry group for a 
 simple cubic supercell.


 Subroutine GETGRP returns: Found  1 space group operations
 (whereof  1 operations were pure point group operations)
 out of a pool of 48 trial point group operations.


The dynamic configuration has the point symmetry C_1 .


 Subroutine INISYM returns: Found  1 space group operations
 (whereof  1 operations are pure point group operations),
 and found     1 'primitive' translations


----------------------------------------------------------------------------------------

                                     Primitive cell                                     

  volume of cell :   10648.0000

  direct lattice vectors                    reciprocal lattice vectors
    22.000000000  0.000000000  0.000000000     0.045454545  0.000000000  0.000000000
     0.000000000 22.000000000  0.000000000     0.000000000  0.045454545  0.000000000
     0.000000000  0.000000000 22.000000000     0.000000000  0.000000000  0.045454545

  length of vectors
    22.000000000 22.000000000 22.000000000     0.045454545  0.045454545  0.045454545

  position of ions in fractional coordinates (direct lattice)
     0.463129545  0.444143864  0.500009545
     0.558807273  0.507095682  0.500002727
     0.520470909  0.560906591  0.499960909
     0.459307727  0.555119773  0.499958636
     0.550632727  0.413032045  0.499973636
     0.385612727  0.495340227  0.499958182
     0.542304091  0.605017045  0.499956364
     0.428770909  0.593928864  0.499947727
     0.431513636  0.499239318  0.499996364
     0.525593182  0.451918409  0.500009091
     0.614387273  0.506160682  0.500052273
     0.437569545  0.394982955  0.500035455

  ion indices of the primitive-cell ions
   primitive index   ion index
                 1           1
                 2           2
                 3           3
                 4           4
                 5           5
                 6           6
                 7           7
                 8           8
                 9           9
                10          10
                11          11
                12          12

----------------------------------------------------------------------------------------



 KPOINTS: auto                                    

Automatic generation of k-mesh.
 Grid dimensions read from file:
 generate k-points for:    1    1    1

 Generating k-lattice:

  Cartesian coordinates                     Fractional coordinates (reciprocal lattice)
     0.045454545  0.000000000  0.000000000     1.000000000  0.000000000  0.000000000
     0.000000000  0.045454545  0.000000000     0.000000000  1.000000000  0.000000000
     0.000000000  0.000000000  0.045454545     0.000000000  0.000000000  1.000000000

  Length of vectors
     0.045454545  0.045454545  0.045454545

  Shift w.r.t. Gamma in fractional coordinates (k-lattice)
     0.000000000  0.000000000  0.000000000

 
 Subroutine IBZKPT returns following result:
 ===========================================
 
 Found      1 irreducible k-points:
 
 Following reciprocal coordinates:
            Coordinates               Weight
  0.000000  0.000000  0.000000      1.000000
 
 Following cartesian coordinates:
            Coordinates               Weight
  0.000000  0.000000  0.000000      1.000000
 


--------------------------------------------------------------------------------------------------------




 Dimension of arrays:
   k-points           NKPTS =      1   k-points in BZ     NKDIM =      1   number of bands    NBANDS=     32
   number of dos      NEDOS =    301   number of ions     NIONS =     12
   non local maximal  LDIM  =      4   non local SUM 2l+1 LMDIM =      8
   total plane-waves  NPLWV = ******
   max r-space proj   IRMAX =      1   max aug-charges    IRDMAX=   9667
   dimension x,y,z NGX =   240 NGY =  240 NGZ =  240
   dimension x,y,z NGXF=   480 NGYF=  480 NGZF=  480
   support grid    NGXF=   480 NGYF=  480 NGZF=  480
   ions per type =               4   4   2   2
   NGX,Y,Z   is equivalent  to a cutoff of  18.14, 18.14, 18.14 a.u.
   NGXF,Y,Z  is equivalent  to a cutoff of  36.27, 36.27, 36.27 a.u.

 SYSTEM =  unknown system                          
 POSCAR =   C  H  N  O                             

 Startparameter for this run:
   NWRITE =      2    write-flag & timer
   PREC   = accura    normal or accurate (medium, high low for compatibility)
   ISTART =      0    job   : 0-new  1-cont  2-samecut
   ICHARG =      2    charge: 1-file 2-atom 10-const
   ISPIN  =      1    spin polarized calculation?
   LNONCOLLINEAR =      F non collinear calculations
   LSORBIT =      F    spin-orbit coupling
   INIWAV =      1    electr: 0-lowe 1-rand  2-diag
   LASPH  =      T    aspherical Exc in radial PAW
 Electronic Relaxation 1
   ENCUT  = 1000.0 eV  73.50 Ry    8.57 a.u.  56.73 56.73 56.73*2*pi/ulx,y,z
   ENINI  = 1000.0     initial cutoff
   ENAUG  = 1000.0 eV  augmentation charge cutoff
   NELM   =     60;   NELMIN=  2; NELMDL= -5     # of ELM steps 
   EDIFF  = 0.1E-06   stopping-criterion for ELM
   LREAL  =      F    real-space projection
   NLSPLINE    = F    spline interpolate recip. space projectors
   LCOMPAT=      F    compatible to vasp.4.4
   GGA_COMPAT  = T    GGA compatible to vasp.4.4-vasp.4.6
   LMAXPAW     = -100 max onsite density
   LMAXMIX     =    2 max onsite mixed and CHGCAR
   VOSKOWN=      0    Vosko Wilk Nusair interpolation
   ROPT   =    0.00000   0.00000   0.00000   0.00000
 Ionic relaxation
   EDIFFG = 0.1E-05   stopping-criterion for IOM
   NSW    =      0    number of steps for IOM
   NBLOCK =      1;   KBLOCK =      1    inner block; outer block 
   IBRION =     -1    ionic relax: 0-MD 1-quasi-New 2-CG
   NFREE  =      0    steps in history (QN), initial steepest desc. (CG)
   ISIF   =      0    stress and relaxation
   IWAVPR =     10    prediction:  0-non 1-charg 2-wave 3-comb
   ISYM   =      2    0-nonsym 1-usesym 2-fastsym
   LCORR  =      T    Harris-Foulkes like correction to forces

   POTIM  = 0.5000    time-step for ionic-motion
   TEIN   =    0.0    initial temperature
   TEBEG  =    0.0;   TEEND  =   0.0 temperature during run
   SMASS  =  -3.00    Nose mass-parameter (am)
   estimated Nose-frequenzy (Omega)   =  0.10E-29 period in steps = 0.13E+47 mass=  -0.111E-25a.u.
   SCALEE = 1.0000    scale energy and forces
   NPACO  =    256;   APACO  = 10.0  distance and # of slots for P.C.
   PSTRESS=    0.0 pullay stress

  Mass of Ions in am
   POMASS =  12.01  1.00 14.00 16.00
  Ionic Valenz
   ZVAL   =   4.00  1.00  5.00  6.00
  Atomic Wigner-Seitz radii
   RWIGS  =  -1.00 -1.00 -1.00 -1.00
  virtual crystal weights 
   VCA    =   1.00  1.00  1.00  1.00
   NELECT =      42.0000    total number of electrons
   NUPDOWN=      -1.0000    fix difference up-down

 DOS related values:
   EMIN   =  10.00;   EMAX   =-10.00  energy-range for DOS
   EFERMI =   0.00;   METHOD = LEGACY      
   ISMEAR =     0;   SIGMA  =   0.01  broadening in eV -4-tet -1-fermi 0-gaus

 Electronic relaxation 2 (details)
   IALGO  =     58    algorithm
   LDIAG  =      T    sub-space diagonalisation (order eigenvalues)
   LSUBROT=      F    optimize rotation matrix (better conditioning)
   TURBO    =      0    0=normal 1=particle mesh
   IRESTART =      0    0=no restart 2=restart with 2 vectors
   NREBOOT  =      0    no. of reboots
   NMIN     =      0    reboot dimension
   EREF     =   0.00    reference energy to select bands
   IMIX   =      4    mixing-type and parameters
     AMIX     =   0.40;   BMIX     =  1.00
     AMIX_MAG =   1.60;   BMIX_MAG =  1.00
     AMIN     =   0.10
     WC   =   100.;   INIMIX=   1;  MIXPRE=   1;  MAXMIX= -45

 Intra band minimization:
   WEIMIN = 0.0000     energy-eigenvalue tresh-hold
   EBREAK =  0.78E-09  absolut break condition
   DEPER  =   0.30     relativ break condition  

   TIME   =   0.40     timestep for ELM

  volume/ion in A,a.u.               =     887.33      5988.02
  Fermi-wavevector in a.u.,A,eV,Ry     =   0.258664  0.488803  0.910323  0.066907
  Thomas-Fermi vector in A             =   1.084480

 Write flags
   LWAVE        =      F    write WAVECAR
   LDOWNSAMPLE  =      F    k-point downsampling of WAVECAR
   LCHARG       =      F    write CHGCAR
   LVTOT        =      F    write LOCPOT, total local potential
   LVHAR        =      F    write LOCPOT, Hartree potential only
   LELF         =      F    write electronic localiz. function (ELF)
   LORBIT       =      0    0 simple, 1 ext, 2 COOP (PROOUT), +10 PAW based schemes


 Dipole corrections
   LMONO  =      F    monopole corrections only (constant potential shift)
   LDIPOL =      F    correct potential (dipole corrections)
   IDIPOL =      0    1-x, 2-y, 3-z, 4-all directions 
   EPSILON=  1.0000000 bulk dielectric constant

 Exchange correlation treatment:
   GGA     =    --    GGA type
   LEXCH   =     8    internal setting for exchange type
   LIBXC   =     F    Libxc                    
   VOSKOWN =     0    Vosko Wilk Nusair interpolation
   LHFCALC =     F    Hartree Fock is set to
   LHFONE  =     F    Hartree Fock one center treatment
   AEXX    =    0.0000 exact exchange contribution

 Linear response parameters
   LEPSILON=     F    determine dielectric tensor
   LRPA    =     F    only Hartree local field effects (RPA)
   LNABLA  =     F    use nabla operator in PAW spheres
   LVEL    =     F    velocity operator in full k-point grid
   CSHIFT  =0.1000    complex shift for real part using Kramers Kronig
   OMEGAMAX=  -1.0    maximum frequency
   DEG_THRESHOLD= 0.2000000E-02 threshold for treating states as degnerate
   RTIME   =   -0.100 relaxation time in fs
  (WPLASMAI=    0.000 imaginary part of plasma frequency in eV, 0.658/RTIME)
   DFIELD  = 0.0000000 0.0000000 0.0000000 field for delta impulse in time

  Optional k-point grid parameters
   LKPOINTS_OPT  =     F    use optional k-point grid
   KPOINTS_OPT_MODE=     1    mode for optional k-point grid

 Orbital magnetization related:
   ORBITALMAG=     F  switch on orbital magnetization
   LCHIMAG   =     F  perturbation theory with respect to B field
   DQ        =  0.001000  dq finite difference perturbation B field
   LLRAUG    =     F  two centre corrections for induced B field
   LBONE     =     F  B-component reconstruction in AE one-centre
   LVGVCALC  =     T  calculate vGv susceptibility
   LVGVAPPL  =     F  apply vGv susceptibility instead of pGv for G=0

 Random number generation:
   RANDOM_GENERATOR = DEFAULT
   PCG_SEED         = not used


--------------------------------------------------------------------------------------------------------


 Static calculation
 charge density and potential will be updated during run
 non-spin polarized calculation
 Conjugate gradient for all bands (Freysoldt, et al. PRB 79, 241103 (2009))
 preconditioned conjugated gradient                                        
 perform sub-space diagonalisation
    before iterative eigenvector-optimisation
 modified Broyden-mixing scheme, WC =      100.0
 initial mixing is a Kerker type mixing with AMIX =  0.4000 and BMIX =      1.0000
 Hartree-type preconditioning will be used
 using additional bands           11
 reciprocal scheme for non local part
 use partial core corrections
 no Harris-corrections to forces 
 use gradient corrections 
 use of overlap-Matrix (Vanderbilt PP)
 Gauss-broadening in eV      SIGMA  =   0.01


--------------------------------------------------------------------------------------------------------


  energy-cutoff  :     1000.00
  volume of cell :    10648.00
      direct lattice vectors                 reciprocal lattice vectors
    22.000000000  0.000000000  0.000000000     0.045454545  0.000000000  0.000000000
     0.000000000 22.000000000  0.000000000     0.000000000  0.045454545  0.000000000
     0.000000000  0.000000000 22.000000000     0.000000000  0.000000000  0.045454545

  length of vectors
    22.000000000 22.000000000 22.000000000     0.045454545  0.045454545  0.045454545



 k-points in units of 2pi/SCALE and weight: auto                                    
   0.00000000  0.00000000  0.00000000       1.000

 k-points in reciprocal lattice and weights: auto                                    
   0.00000000  0.00000000  0.00000000       1.000

 position of ions in fractional coordinates (direct lattice) 
   0.46312955  0.44414386  0.50000955
   0.55880727  0.50709568  0.50000273
   0.52047091  0.56090659  0.49996091
   0.45930773  0.55511977  0.49995864
   0.55063273  0.41303205  0.49997364
   0.38561273  0.49534023  0.49995818
   0.54230409  0.60501705  0.49995636
   0.42877091  0.59392886  0.49994773
   0.43151364  0.49923932  0.49999636
   0.52559318  0.45191841  0.50000909
   0.61438727  0.50616068  0.50005227
   0.43756955  0.39498295  0.50003545

 position of ions in cartesian coordinates  (Angst):
  10.18885000  9.77116500 11.00021000
  12.29376000 11.15610500 11.00006000
  11.45036000 12.33994500 10.99914000
  10.10477000 12.21263500 10.99909000
  12.11392000  9.08670500 10.99942000
   8.48348000 10.89748500 10.99908000
  11.93069000 13.31037500 10.99904000
   9.43296000 13.06643500 10.99885000
   9.49330000 10.98326500 10.99992000
  11.56305000  9.94220500 11.00020000
  13.51652000 11.13553500 11.00115000
   9.62653000  8.68962500 11.00078000



--------------------------------------------------------------------------------------------------------


 use parallel FFT for orbitals z direction half grid
 k-point   1 :   0.0000 0.0000 0.0000  plane waves:  381993

 maximum and minimum number of plane-waves per node :     11948    11928

 maximum number of plane-waves:    381993
 maximum index in each direction: 
   IXMAX=   56   IYMAX=   56   IZMAX=   56
   IXMIN=  -56   IYMIN=  -56   IZMIN=    0


 parallel 3D FFT for wavefunctions:
    minimum data exchange during FFTs selected (reduces bandwidth)
 parallel 3D FFT for charge:
    minimum data exchange during FFTs selected (reduces bandwidth)


 total amount of memory used by VASP MPI-rank0   132714. kBytes
=======================================================================

   base      :      30000. kBytes
   nonl-proj :       5347. kBytes
   fftplans  :      24880. kBytes
   grid      :      70194. kBytes
   one-center:          1. kBytes
   wavefun   :       2292. kBytes

     INWAV:  cpu time      0.0001: real time      0.0002
 Broyden mixing: mesh for mixing (old mesh)
   NGX =113   NGY =113   NGZ =113
  (NGX  =480   NGY  =480   NGZ  =480)
  gives a total of ****** points

 initial charge density was supplied:
 charge density of overlapping atoms calculated
 number of electron      42.0000000 magnetization 
 keeping initial charge density in first step


--------------------------------------------------------------------------------------------------------


 Maximum index for augmentation-charges          483 (set IRDMAX)


--------------------------------------------------------------------------------------------------------


 First call to EWALD:  gamma=   0.081
 Maximum number of real-space cells 3x 3x 3
 Maximum number of reciprocal cells 3x 3x 3

    FEWALD:  cpu time      0.0052: real time      0.0052


--------------------------------------- Ionic step        1  -------------------------------------------




--------------------------------------- Iteration      1(   1)  ---------------------------------------


    POTLOK:  cpu time      1.6357: real time      1.6378
    SETDIJ:  cpu time      0.3235: real time      0.3236
    TRIAL :  cpu time      3.9791: real time      3.9825
    CORREC:  cpu time      0.0027: real time      0.0027
    --------------------------------------------
      LOOP:  cpu time      5.9506: real time      5.9563

 eigenvalue-minimisations  :    80
 total energy-change (2. order) : 0.4561310E+03  (-0.1130777E+04)
 number of electron      42.0000000 magnetization 
 augmentation part       42.0000000 magnetization 

 Free energy of the ion-electron system (eV)
  ---------------------------------------------------
  alpha Z        PSCENC =         0.49439650
  Ewald energy   TEWEN  =      3396.28928168
  -Hartree energ DENC   =     -4906.76837444
  -exchange      EXHF   =         0.00000000
  -V(xc)+E(xc)   XCENC  =       159.25097364
  PAW double counting   =      1533.81865214    -1531.92240201
  entropy T*S    EENTRO =        -0.00000000
  eigenvalues    EBANDS =      -227.39877267
  atomic energy  EATOM  =      2032.36727914
  ---------------------------------------------------
  free energy    TOTEN  =       456.13103398 eV

  energy without entropy =      456.13103398  energy(sigma->0) =      456.13103398


--------------------------------------------------------------------------------------------------------




--------------------------------------- Iteration      1(   2)  ---------------------------------------


    TRIAL :  cpu time      5.3256: real time      5.3280
    CORREC:  cpu time      0.0003: real time      0.0003
    --------------------------------------------
      LOOP:  cpu time      5.3544: real time      5.3569

 eigenvalue-minimisations  :   128
 total energy-change (2. order) :-0.2361154E+03  (-0.2251468E+03)
 number of electron      42.0000000 magnetization 
 augmentation part       42.0000000 magnetization 

 Free energy of the ion-electron system (eV)
  ---------------------------------------------------
  alpha Z        PSCENC =         0.49439650
  Ewald energy   TEWEN  =      3396.28928168
  -Hartree energ DENC   =     -4906.76837444
  -exchange      EXHF   =         0.00000000
  -V(xc)+E(xc)   XCENC  =       159.25097364
  PAW double counting   =      1533.81865214    -1531.92240201
  entropy T*S    EENTRO =        -0.00000000
  eigenvalues    EBANDS =      -463.51415773
  atomic energy  EATOM  =      2032.36727914
  ---------------------------------------------------
  free energy    TOTEN  =       220.01564892 eV

  energy without entropy =      220.01564892  energy(sigma->0) =      220.01564892


--------------------------------------------------------------------------------------------------------




--------------------------------------- Iteration      1(   3)  ---------------------------------------


    TRIAL :  cpu time      4.6457: real time      4.6479
    CORREC:  cpu time      0.0001: real time      0.0001
    --------------------------------------------
      LOOP:  cpu time      4.6608: real time      4.6778

 eigenvalue-minimisations  :   104
 total energy-change (2. order) :-0.2235708E+03  (-0.2110379E+03)
 number of electron      42.0000000 magnetization 
 augmentation part       42.0000000 magnetization 

 Free energy of the ion-electron system (eV)
  ---------------------------------------------------
  alpha Z        PSCENC =         0.49439650
  Ewald energy   TEWEN  =      3396.28928168
  -Hartree energ DENC   =     -4906.76837444
  -exchange      EXHF   =         0.00000000
  -V(xc)+E(xc)   XCENC  =       159.25097364
  PAW double counting   =      1533.81865214    -1531.92240201
  entropy T*S    EENTRO =        -0.00000000
  eigenvalues    EBANDS =      -687.08498805
  atomic energy  EATOM  =      2032.36727914
  ---------------------------------------------------
  free energy    TOTEN  =        -3.55518140 eV

  energy without entropy =       -3.55518140  energy(sigma->0) =       -3.55518140


--------------------------------------------------------------------------------------------------------




--------------------------------------- Iteration      1(   4)  ---------------------------------------


    TRIAL :  cpu time      4.1792: real time      4.1813
    CORREC:  cpu time      0.0001: real time      0.0001
    --------------------------------------------
      LOOP:  cpu time      4.2091: real time      4.2113

 eigenvalue-minimisations  :    88
 total energy-change (2. order) :-0.9335861E+02  (-0.9304654E+02)
 number of electron      42.0000000 magnetization 
 augmentation part       42.0000000 magnetization 

 Free energy of the ion-electron system (eV)
  ---------------------------------------------------
  alpha Z        PSCENC =         0.49439650
  Ewald energy   TEWEN  =      3396.28928168
  -Hartree energ DENC   =     -4906.76837444
  -exchange      EXHF   =         0.00000000
  -V(xc)+E(xc)   XCENC  =       159.25097364
  PAW double counting   =      1533.81865214    -1531.92240201
  entropy T*S    EENTRO =        -0.00000000
  eigenvalues    EBANDS =      -780.44360015
  atomic energy  EATOM  =      2032.36727914
  ---------------------------------------------------
  free energy    TOTEN  =       -96.91379350 eV

  energy without entropy =      -96.91379350  energy(sigma->0) =      -96.91379350


--------------------------------------------------------------------------------------------------------




--------------------------------------- Iteration      1(   5)  ---------------------------------------


    TRIAL :  cpu time      4.4229: real time      4.4254
    CORREC:  cpu time      0.0002: real time      0.0002
    CHARGE:  cpu time      0.7039: real time      0.7065
    --------------------------------------------
      LOOP:  cpu time      5.1457: real time      5.1619

 eigenvalue-minimisations  :    96
 total energy-change (2. order) :-0.1433893E+02  (-0.1428806E+02)
 number of electron      42.0000000 magnetization 
 augmentation part        0.0599949 magnetization 

 Free energy of the ion-electron system (eV)
  ---------------------------------------------------
  alpha Z        PSCENC =         0.49439650
  Ewald energy   TEWEN  =      3396.28928168
  -Hartree energ DENC   =     -4906.76837444
  -exchange      EXHF   =         0.00000000
  -V(xc)+E(xc)   XCENC  =       159.25097364
  PAW double counting   =      1533.81865214    -1531.92240201
  entropy T*S    EENTRO =        -0.00000000
  eigenvalues    EBANDS =      -794.78253057
  atomic energy  EATOM  =      2032.36727914
  ---------------------------------------------------
  free energy    TOTEN  =      -111.25272392 eV

  energy without entropy =     -111.25272392  energy(sigma->0) =     -111.25272392


--------------------------------------------------------------------------------------------------------




--------------------------------------- Iteration      1(   6)  ---------------------------------------


    POTLOK:  cpu time      1.6026: real time      1.6031
    SETDIJ:  cpu time      0.3051: real time      0.3052
    TRIAL :  cpu time      3.4037: real time      3.4064
    CORREC:  cpu time      3.4479: real time      3.4509
    CHARGE:  cpu time      0.6665: real time      0.6668
    --------------------------------------------
      LOOP:  cpu time      9.4416: real time      9.4632

 eigenvalue-minimisations  :     0
 total energy-change (2. order) : 0.2572787E+02  (-0.5297406E+01)
 number of electron      42.0000000 magnetization 
 augmentation part        0.0265160 magnetization 

 Free energy of the ion-electron system (eV)
  ---------------------------------------------------
  alpha Z        PSCENC =         0.49439650
  Ewald energy   TEWEN  =      3396.28928168
  -Hartree energ DENC   =     -5197.25779851
  -exchange      EXHF   =         0.00000000
  -V(xc)+E(xc)   XCENC  =       179.40987299
  PAW double counting   =     22153.64322619   -22154.03040386
  entropy T*S    EENTRO =        -0.00000000
  eigenvalues    EBANDS =      -496.44070818
  atomic energy  EATOM  =      2032.36727914
  ---------------------------------------------------
  free energy    TOTEN  =       -85.52485405 eV

  energy without entropy =      -85.52485405  energy(sigma->0) =      -85.52485405


--------------------------------------------------------------------------------------------------------




--------------------------------------- Iteration      1(   7)  ---------------------------------------


    POTLOK:  cpu time      1.5895: real time      1.5908
    SETDIJ:  cpu time      0.3046: real time      0.3046
    TRIAL :  cpu time      3.3880: real time      3.3899
    CORREC:  cpu time      3.4480: real time      3.4499
    CHARGE:  cpu time      0.6656: real time      0.6657
    --------------------------------------------
      LOOP:  cpu time      9.4243: real time      9.4297

 eigenvalue-minimisations  :     0
 total energy-change (2. order) :-0.5351697E+01  (-0.8715251E+00)
 number of electron      42.0000000 magnetization 
 augmentation part       -0.0009757 magnetization 

 Free energy of the ion-electron system (eV)
  ---------------------------------------------------
  alpha Z        PSCENC =         0.49439650
  Ewald energy   TEWEN  =      3396.28928168
  -Hartree energ DENC   =     -5068.86139445
  -exchange      EXHF   =         0.00000000
  -V(xc)+E(xc)   XCENC  =       171.94934686
  PAW double counting   =     25402.94775667   -25402.10222426
  entropy T*S    EENTRO =        -0.00000000
  eigenvalues    EBANDS =      -623.96099366
  atomic energy  EATOM  =      2032.36727914
  ---------------------------------------------------
  free energy    TOTEN  =       -90.87655152 eV

  energy without entropy =      -90.87655152  energy(sigma->0) =      -90.87655152


--------------------------------------------------------------------------------------------------------




--------------------------------------- Iteration      1(   8)  ---------------------------------------


    POTLOK:  cpu time      1.5964: real time      1.5973
    SETDIJ:  cpu time      0.3038: real time      0.3039
    TRIAL :  cpu time      3.3946: real time      3.3963
    CORREC:  cpu time      3.4635: real time      3.4652
    CHARGE:  cpu time      0.6669: real time      0.6675
    --------------------------------------------
      LOOP:  cpu time      9.4404: real time      9.4602

 eigenvalue-minimisations  :     0
 total energy-change (2. order) :-0.8740150E+00  (-0.3228398E+00)
 number of electron      42.0000000 magnetization 
 augmentation part        0.0017714 magnetization 

 Free energy of the ion-electron system (eV)
  ---------------------------------------------------
  alpha Z        PSCENC =         0.49439650
  Ewald energy   TEWEN  =      3396.28928168
  -Hartree energ DENC   =     -5069.60859260
  -exchange      EXHF   =         0.00000000
  -V(xc)+E(xc)   XCENC  =       171.69185381
  PAW double counting   =     26808.18479753   -26807.16429434
  entropy T*S    EENTRO =        -0.00000000
  eigenvalues    EBANDS =      -624.00528828
  atomic energy  EATOM  =      2032.36727914
  ---------------------------------------------------
  free energy    TOTEN  =       -91.75056656 eV

  energy without entropy =      -91.75056656  energy(sigma->0) =      -91.75056656


--------------------------------------------------------------------------------------------------------




--------------------------------------- Iteration      1(   9)  ---------------------------------------


    POTLOK:  cpu time      1.6032: real time      1.6039
    SETDIJ:  cpu time      0.3092: real time      0.3093
    TRIAL :  cpu time      3.3917: real time      3.3938
    CORREC:  cpu time      3.4648: real time      3.4667
    CHARGE:  cpu time      0.6658: real time      0.6659
    --------------------------------------------
      LOOP:  cpu time      9.4561: real time      9.4699

 eigenvalue-minimisations  :     0
 total energy-change (2. order) :-0.3223913E+00  (-0.1375993E+00)
 number of electron      42.0000000 magnetization 
 augmentation part        0.0051012 magnetization 

 Free energy of the ion-electron system (eV)
  ---------------------------------------------------
  alpha Z        PSCENC =         0.49439650
  Ewald energy   TEWEN  =      3396.28928168
  -Hartree energ DENC   =     -5076.65691599
  -exchange      EXHF   =         0.00000000
  -V(xc)+E(xc)   XCENC  =       171.81401527
  PAW double counting   =     28203.84675618   -28202.81629922
  entropy T*S    EENTRO =        -0.00000000
  eigenvalues    EBANDS =      -617.41147139
  atomic energy  EATOM  =      2032.36727914
  ---------------------------------------------------
  free energy    TOTEN  =       -92.07295783 eV

  energy without entropy =      -92.07295783  energy(sigma->0) =      -92.07295783


--------------------------------------------------------------------------------------------------------




--------------------------------------- Iteration      1(  10)  ---------------------------------------


    POTLOK:  cpu time      1.6095: real time      1.6103
    SETDIJ:  cpu time      0.3081: real time      0.3082
    TRIAL :  cpu time      3.3938: real time      3.3958
    CORREC:  cpu time      3.4685: real time      3.4702
    CHARGE:  cpu time      0.6646: real time      0.6651
    --------------------------------------------
      LOOP:  cpu time      9.4741: real time      9.4792

 eigenvalue-minimisations  :     0
 total energy-change (2. order) :-0.1370420E+00  (-0.5309616E-01)
 number of electron      42.0000000 magnetization 
 augmentation part        0.0072554 magnetization 

 Free energy of the ion-electron system (eV)
  ---------------------------------------------------
  alpha Z        PSCENC =         0.49439650
  Ewald energy   TEWEN  =      3396.28928168
  -Hartree energ DENC   =     -5073.03686563
  -exchange      EXHF   =         0.00000000
  -V(xc)+E(xc)   XCENC  =       171.66776314
  PAW double counting   =     28768.97367813   -28767.93435942
  entropy T*S    EENTRO =        -0.00000000
  eigenvalues    EBANDS =      -621.03117336
  atomic energy  EATOM  =      2032.36727914
  ---------------------------------------------------
  free energy    TOTEN  =       -92.20999982 eV

  energy without entropy =      -92.20999982  energy(sigma->0) =      -92.20999982


--------------------------------------------------------------------------------------------------------




--------------------------------------- Iteration      1(  11)  ---------------------------------------


    POTLOK:  cpu time      1.6141: real time      1.6149
    SETDIJ:  cpu time      0.3013: real time      0.3013
    TRIAL :  cpu time      3.3917: real time      3.3933
    CORREC:  cpu time      3.4668: real time      3.4685
    CHARGE:  cpu time      0.6690: real time      0.6691
    --------------------------------------------
      LOOP:  cpu time      9.4585: real time      9.4769

 eigenvalue-minimisations  :     0
 total energy-change (2. order) :-0.5293858E-01  (-0.1987645E-01)
 number of electron      42.0000000 magnetization 
 augmentation part        0.0088134 magnetization 

 Free energy of the ion-electron system (eV)
  ---------------------------------------------------
  alpha Z        PSCENC =         0.49439650
  Ewald energy   TEWEN  =      3396.28928168
  -Hartree energ DENC   =     -5069.90068467
  -exchange      EXHF   =         0.00000000
  -V(xc)+E(xc)   XCENC  =       171.63116873
  PAW double counting   =     28611.21665349   -28610.19558247
  entropy T*S    EENTRO =        -0.00000000
  eigenvalues    EBANDS =      -624.16545079
  atomic energy  EATOM  =      2032.36727914
  ---------------------------------------------------
  free energy    TOTEN  =       -92.26293840 eV

  energy without entropy =      -92.26293840  energy(sigma->0) =      -92.26293840


--------------------------------------------------------------------------------------------------------




--------------------------------------- Iteration      1(  12)  ---------------------------------------


    POTLOK:  cpu time      1.6077: real time      1.6087
    SETDIJ:  cpu time      0.3454: real time      0.3455
    TRIAL :  cpu time      3.3882: real time      3.3900
    CORREC:  cpu time      3.4689: real time      3.4703
    CHARGE:  cpu time      0.6656: real time      0.6661
    --------------------------------------------
      LOOP:  cpu time      9.4899: real time      9.5106

 eigenvalue-minimisations  :     0
 total energy-change (2. order) :-0.1983651E-01  (-0.6929582E-02)
 number of electron      42.0000000 magnetization 
 augmentation part        0.0087147 magnetization 

 Free energy of the ion-electron system (eV)
  ---------------------------------------------------
  alpha Z        PSCENC =         0.49439650
  Ewald energy   TEWEN  =      3396.28928168
  -Hartree energ DENC   =     -5069.29568591
  -exchange      EXHF   =         0.00000000
  -V(xc)+E(xc)   XCENC  =       171.62120576
  PAW double counting   =     28425.82247168   -28424.81364260
  entropy T*S    EENTRO =        -0.00000000
  eigenvalues    EBANDS =      -624.76808116
  atomic energy  EATOM  =      2032.36727914
  ---------------------------------------------------
  free energy    TOTEN  =       -92.28277490 eV

  energy without entropy =      -92.28277490  energy(sigma->0) =      -92.28277490


--------------------------------------------------------------------------------------------------------




--------------------------------------- Iteration      1(  13)  ---------------------------------------


    POTLOK:  cpu time      1.6162: real time      1.6168
    SETDIJ:  cpu time      0.3342: real time      0.3344
    TRIAL :  cpu time      3.3894: real time      3.3907
    CORREC:  cpu time      3.4695: real time      3.4711
    CHARGE:  cpu time      0.6711: real time      0.6713
    --------------------------------------------
      LOOP:  cpu time      9.4991: real time      9.5140

 eigenvalue-minimisations  :     0
 total energy-change (2. order) :-0.6925861E-02  (-0.2924779E-02)
 number of electron      42.0000000 magnetization 
 augmentation part        0.0083983 magnetization 

 Free energy of the ion-electron system (eV)
  ---------------------------------------------------
  alpha Z        PSCENC =         0.49439650
  Ewald energy   TEWEN  =      3396.28928168
  -Hartree energ DENC   =     -5068.92849859
  -exchange      EXHF   =         0.00000000
  -V(xc)+E(xc)   XCENC  =       171.59496386
  PAW double counting   =     28318.48833190   -28317.47775464
  entropy T*S    EENTRO =        -0.00000000
  eigenvalues    EBANDS =      -625.11770063
  atomic energy  EATOM  =      2032.36727914
  ---------------------------------------------------
  free energy    TOTEN  =       -92.28970077 eV

  energy without entropy =      -92.28970077  energy(sigma->0) =      -92.28970077


--------------------------------------------------------------------------------------------------------




--------------------------------------- Iteration      1(  14)  ---------------------------------------


    POTLOK:  cpu time      1.6166: real time      1.6175
    SETDIJ:  cpu time      0.3139: real time      0.3140
    TRIAL :  cpu time      3.3878: real time      3.3898
    CORREC:  cpu time      3.4669: real time      3.4687
    CHARGE:  cpu time      0.6666: real time      0.6673
    --------------------------------------------
      LOOP:  cpu time      9.4661: real time      9.4871

 eigenvalue-minimisations  :     0
 total energy-change (2. order) :-0.2924679E-02  (-0.1516325E-02)
 number of electron      42.0000000 magnetization 
 augmentation part        0.0082140 magnetization 

 Free energy of the ion-electron system (eV)
  ---------------------------------------------------
  alpha Z        PSCENC =         0.49439650
  Ewald energy   TEWEN  =      3396.28928168
  -Hartree energ DENC   =     -5068.76507012
  -exchange      EXHF   =         0.00000000
  -V(xc)+E(xc)   XCENC  =       171.59123509
  PAW double counting   =     28205.39629032   -28204.38511978
  entropy T*S    EENTRO =        -0.00000000
  eigenvalues    EBANDS =      -625.28091828
  atomic energy  EATOM  =      2032.36727914
  ---------------------------------------------------
  free energy    TOTEN  =       -92.29262544 eV

  energy without entropy =      -92.29262544  energy(sigma->0) =      -92.29262544


--------------------------------------------------------------------------------------------------------




--------------------------------------- Iteration      1(  15)  ---------------------------------------


    POTLOK:  cpu time      1.6988: real time      1.6997
    SETDIJ:  cpu time      0.2338: real time      0.2338
    TRIAL :  cpu time      3.3888: real time      3.3902
    CORREC:  cpu time      3.4903: real time      3.4923
    CHARGE:  cpu time      0.6658: real time      0.6660
    --------------------------------------------
      LOOP:  cpu time      9.5069: real time      9.5118

 eigenvalue-minimisations  :     0
 total energy-change (2. order) :-0.1517303E-02  (-0.8342543E-03)
 number of electron      42.0000000 magnetization 
 augmentation part        0.0082758 magnetization 

 Free energy of the ion-electron system (eV)
  ---------------------------------------------------
  alpha Z        PSCENC =         0.49439650
  Ewald energy   TEWEN  =      3396.28928168
  -Hartree energ DENC   =     -5068.82395803
  -exchange      EXHF   =         0.00000000
  -V(xc)+E(xc)   XCENC  =       171.59085440
  PAW double counting   =     28093.43562307   -28092.42368558
  entropy T*S    EENTRO =        -0.00000000
  eigenvalues    EBANDS =      -625.22393393
  atomic energy  EATOM  =      2032.36727914
  ---------------------------------------------------
  free energy    TOTEN  =       -92.29414275 eV

  energy without entropy =      -92.29414275  energy(sigma->0) =      -92.29414275


--------------------------------------------------------------------------------------------------------




--------------------------------------- Iteration      1(  16)  ---------------------------------------


    POTLOK:  cpu time      1.6143: real time      1.6151
    SETDIJ:  cpu time      0.3066: real time      0.3066
    TRIAL :  cpu time      3.3890: real time      3.3908
    CORREC:  cpu time      3.4733: real time      3.4747
    CHARGE:  cpu time      0.6648: real time      0.6654
    --------------------------------------------
      LOOP:  cpu time      9.4645: real time      9.4824

 eigenvalue-minimisations  :     0
 total energy-change (2. order) :-0.8347023E-03  (-0.4036726E-03)
 number of electron      42.0000000 magnetization 
 augmentation part        0.0083514 magnetization 

 Free energy of the ion-electron system (eV)
  ---------------------------------------------------
  alpha Z        PSCENC =         0.49439650
  Ewald energy   TEWEN  =      3396.28928168
  -Hartree energ DENC   =     -5068.98968173
  -exchange      EXHF   =         0.00000000
  -V(xc)+E(xc)   XCENC  =       171.59651342
  PAW double counting   =     28012.62916194   -28011.61777518
  entropy T*S    EENTRO =        -0.00000000
  eigenvalues    EBANDS =      -625.06415321
  atomic energy  EATOM  =      2032.36727914
  ---------------------------------------------------
  free energy    TOTEN  =       -92.29497745 eV

  energy without entropy =      -92.29497745  energy(sigma->0) =      -92.29497745


--------------------------------------------------------------------------------------------------------




--------------------------------------- Iteration      1(  17)  ---------------------------------------


    POTLOK:  cpu time      1.6172: real time      1.6177
    SETDIJ:  cpu time      0.3039: real time      0.3041
    TRIAL :  cpu time      3.3880: real time      3.3895
    CORREC:  cpu time      3.4699: real time      3.4716
    CHARGE:  cpu time      0.6640: real time      0.6642
    --------------------------------------------
      LOOP:  cpu time      9.4597: real time      9.4784

 eigenvalue-minimisations  :     0
 total energy-change (2. order) :-0.4035410E-03  (-0.1501821E-03)
 number of electron      42.0000000 magnetization 
 augmentation part        0.0083467 magnetization 

 Free energy of the ion-electron system (eV)
  ---------------------------------------------------
  alpha Z        PSCENC =         0.49439650
  Ewald energy   TEWEN  =      3396.28928168
  -Hartree energ DENC   =     -5069.01740477
  -exchange      EXHF   =         0.00000000
  -V(xc)+E(xc)   XCENC  =       171.59792947
  PAW double counting   =     27991.81426286   -27990.80297429
  entropy T*S    EENTRO =        -0.00000000
  eigenvalues    EBANDS =      -625.03815159
  atomic energy  EATOM  =      2032.36727914
  ---------------------------------------------------
  free energy    TOTEN  =       -92.29538099 eV

  energy without entropy =      -92.29538099  energy(sigma->0) =      -92.29538099


--------------------------------------------------------------------------------------------------------




--------------------------------------- Iteration      1(  18)  ---------------------------------------


    POTLOK:  cpu time      1.6169: real time      1.6175
    SETDIJ:  cpu time      0.3059: real time      0.3059
    TRIAL :  cpu time      3.3923: real time      3.3940
    CORREC:  cpu time      3.4761: real time      3.4776
    CHARGE:  cpu time      0.6646: real time      0.6652
    --------------------------------------------
      LOOP:  cpu time      9.4850: real time      9.4896

 eigenvalue-minimisations  :     0
 total energy-change (2. order) :-0.1502236E-03  (-0.5090350E-04)
 number of electron      42.0000000 magnetization 
 augmentation part        0.0083698 magnetization 

 Free energy of the ion-electron system (eV)
  ---------------------------------------------------
  alpha Z        PSCENC =         0.49439650
  Ewald energy   TEWEN  =      3396.28928168
  -Hartree energ DENC   =     -5069.05855318
  -exchange      EXHF   =         0.00000000
  -V(xc)+E(xc)   XCENC  =       171.59840620
  PAW double counting   =     28015.27479950   -28014.26306269
  entropy T*S    EENTRO =        -0.00000000
  eigenvalues    EBANDS =      -624.99807837
  atomic energy  EATOM  =      2032.36727914
  ---------------------------------------------------
  free energy    TOTEN  =       -92.29553121 eV

  energy without entropy =      -92.29553121  energy(sigma->0) =      -92.29553121


--------------------------------------------------------------------------------------------------------




--------------------------------------- Iteration      1(  19)  ---------------------------------------


    POTLOK:  cpu time      1.6139: real time      1.6143
    SETDIJ:  cpu time      0.3039: real time      0.3040
    TRIAL :  cpu time      3.3943: real time      3.3957
    CORREC:  cpu time      3.4700: real time      3.4716
    CHARGE:  cpu time      0.6657: real time      0.6659
    --------------------------------------------
      LOOP:  cpu time      9.4640: real time      9.4818

 eigenvalue-minimisations  :     0
 total energy-change (2. order) :-0.5105837E-04  (-0.1662851E-04)
 number of electron      42.0000000 magnetization 
 augmentation part        0.0083659 magnetization 

 Free energy of the ion-electron system (eV)
  ---------------------------------------------------
  alpha Z        PSCENC =         0.49439650
  Ewald energy   TEWEN  =      3396.28928168
  -Hartree energ DENC   =     -5069.10506177
  -exchange      EXHF   =         0.00000000
  -V(xc)+E(xc)   XCENC  =       171.60082414
  PAW double counting   =     28046.11695830   -28045.10534584
  entropy T*S    EENTRO =        -0.00000000
  eigenvalues    EBANDS =      -624.95391443
  atomic energy  EATOM  =      2032.36727914
  ---------------------------------------------------
  free energy    TOTEN  =       -92.29558227 eV

  energy without entropy =      -92.29558227  energy(sigma->0) =      -92.29558227


--------------------------------------------------------------------------------------------------------




--------------------------------------- Iteration      1(  20)  ---------------------------------------


    POTLOK:  cpu time      1.6108: real time      1.6115
    SETDIJ:  cpu time      0.3100: real time      0.3101
    TRIAL :  cpu time      3.3887: real time      3.3907
    CORREC:  cpu time      3.4720: real time      3.4732
    CHARGE:  cpu time      0.6667: real time      0.6673
    --------------------------------------------
      LOOP:  cpu time      9.4648: real time      9.4849

 eigenvalue-minimisations  :     0
 total energy-change (2. order) :-0.1681431E-04  (-0.6291324E-05)
 number of electron      42.0000000 magnetization 
 augmentation part        0.0083920 magnetization 

 Free energy of the ion-electron system (eV)
  ---------------------------------------------------
  alpha Z        PSCENC =         0.49439650
  Ewald energy   TEWEN  =      3396.28928168
  -Hartree energ DENC   =     -5069.06728222
  -exchange      EXHF   =         0.00000000
  -V(xc)+E(xc)   XCENC  =       171.59891215
  PAW double counting   =     28068.31533024   -28067.30340269
  entropy T*S    EENTRO =        -0.00000000
  eigenvalues    EBANDS =      -624.99011388
  atomic energy  EATOM  =      2032.36727914
  ---------------------------------------------------
  free energy    TOTEN  =       -92.29559909 eV

  energy without entropy =      -92.29559909  energy(sigma->0) =      -92.29559909


--------------------------------------------------------------------------------------------------------




--------------------------------------- Iteration      1(  21)  ---------------------------------------


    POTLOK:  cpu time      1.6150: real time      1.6154
    SETDIJ:  cpu time      0.3031: real time      0.3033
    TRIAL :  cpu time      3.4032: real time      3.4046
    CORREC:  cpu time      3.4728: real time      3.4744
    CHARGE:  cpu time      0.6654: real time      0.6658
    --------------------------------------------
      LOOP:  cpu time      9.4890: real time      9.4930

 eigenvalue-minimisations  :     0
 total energy-change (2. order) :-0.6368584E-05  (-0.2389183E-05)
 number of electron      42.0000000 magnetization 
 augmentation part        0.0083932 magnetization 

 Free energy of the ion-electron system (eV)
  ---------------------------------------------------
  alpha Z        PSCENC =         0.49439650
  Ewald energy   TEWEN  =      3396.28928168
  -Hartree energ DENC   =     -5069.08310697
  -exchange      EXHF   =         0.00000000
  -V(xc)+E(xc)   XCENC  =       171.59992914
  PAW double counting   =     28080.98297197   -28079.97129437
  entropy T*S    EENTRO =        -0.00000000
  eigenvalues    EBANDS =      -624.97506255
  atomic energy  EATOM  =      2032.36727914
  ---------------------------------------------------
  free energy    TOTEN  =       -92.29560545 eV

  energy without entropy =      -92.29560545  energy(sigma->0) =      -92.29560545


--------------------------------------------------------------------------------------------------------




--------------------------------------- Iteration      1(  22)  ---------------------------------------


    POTLOK:  cpu time      1.6120: real time      1.6127
    SETDIJ:  cpu time      0.3093: real time      0.3093
    TRIAL :  cpu time      3.3881: real time      3.3901
    CORREC:  cpu time      3.4731: real time      3.4744
    CHARGE:  cpu time      0.6666: real time      0.6670
    --------------------------------------------
      LOOP:  cpu time      9.4674: real time      9.4835

 eigenvalue-minimisations  :     0
 total energy-change (2. order) :-0.2428151E-05  (-0.1037398E-05)
 number of electron      42.0000000 magnetization 
 augmentation part        0.0083937 magnetization 

 Free energy of the ion-electron system (eV)
  ---------------------------------------------------
  alpha Z        PSCENC =         0.49439650
  Ewald energy   TEWEN  =      3396.28928168
  -Hartree energ DENC   =     -5069.07238503
  -exchange      EXHF   =         0.00000000
  -V(xc)+E(xc)   XCENC  =       171.59944132
  PAW double counting   =     28086.95086091   -28085.93916080
  entropy T*S    EENTRO =        -0.00000000
  eigenvalues    EBANDS =      -624.98532160
  atomic energy  EATOM  =      2032.36727914
  ---------------------------------------------------
  free energy    TOTEN  =       -92.29560788 eV

  energy without entropy =      -92.29560788  energy(sigma->0) =      -92.29560788


--------------------------------------------------------------------------------------------------------




--------------------------------------- Iteration      1(  23)  ---------------------------------------


    POTLOK:  cpu time      1.6142: real time      1.6146
    SETDIJ:  cpu time      0.3078: real time      0.3081
    TRIAL :  cpu time      3.4017: real time      3.4032
    CORREC:  cpu time      3.4755: real time      3.4770
    CHARGE:  cpu time      0.6670: real time      0.6672
    --------------------------------------------
      LOOP:  cpu time      9.4805: real time      9.4992

 eigenvalue-minimisations  :     0
 total energy-change (2. order) :-0.1023418E-05  (-0.4811130E-06)
 number of electron      42.0000000 magnetization 
 augmentation part        0.0083924 magnetization 

 Free energy of the ion-electron system (eV)
  ---------------------------------------------------
  alpha Z        PSCENC =         0.49439650
  Ewald energy   TEWEN  =      3396.28928168
  -Hartree energ DENC   =     -5069.06987554
  -exchange      EXHF   =         0.00000000
  -V(xc)+E(xc)   XCENC  =       171.59940069
  PAW double counting   =     28088.60627102   -28087.59459348
  entropy T*S    EENTRO =        -0.00000000
  eigenvalues    EBANDS =      -624.98776891
  atomic energy  EATOM  =      2032.36727914
  ---------------------------------------------------
  free energy    TOTEN  =       -92.29560891 eV

  energy without entropy =      -92.29560891  energy(sigma->0) =      -92.29560891


--------------------------------------------------------------------------------------------------------




--------------------------------------- Iteration      1(  24)  ---------------------------------------


    POTLOK:  cpu time      1.6142: real time      1.6148
    SETDIJ:  cpu time      0.3064: real time      0.3064
    TRIAL :  cpu time      3.3873: real time      3.3895
    CORREC:  cpu time      3.4740: real time      3.4753
    CHARGE:  cpu time      0.6653: real time      0.6658
    --------------------------------------------
      LOOP:  cpu time      9.4636: real time      9.4835

 eigenvalue-minimisations  :     0
 total energy-change (2. order) :-0.4443318E-06  (-0.2246481E-06)
 number of electron      42.0000000 magnetization 
 augmentation part        0.0083936 magnetization 

 Free energy of the ion-electron system (eV)
  ---------------------------------------------------
  alpha Z        PSCENC =         0.49439650
  Ewald energy   TEWEN  =      3396.28928168
  -Hartree energ DENC   =     -5069.07044643
  -exchange      EXHF   =         0.00000000
  -V(xc)+E(xc)   XCENC  =       171.59937211
  PAW double counting   =     28087.87487948   -28086.86320318
  entropy T*S    EENTRO =        -0.00000000
  eigenvalues    EBANDS =      -624.98716865
  atomic energy  EATOM  =      2032.36727914
  ---------------------------------------------------
  free energy    TOTEN  =       -92.29560935 eV

  energy without entropy =      -92.29560935  energy(sigma->0) =      -92.29560935


--------------------------------------------------------------------------------------------------------




--------------------------------------- Iteration      1(  25)  ---------------------------------------


    POTLOK:  cpu time      1.6287: real time      1.6291
    SETDIJ:  cpu time      0.2965: real time      0.2966
    TRIAL :  cpu time      3.3883: real time      3.3895
    CORREC:  cpu time      3.4739: real time      3.4754
    CHARGE:  cpu time      0.6658: real time      0.6659
    --------------------------------------------
      LOOP:  cpu time      9.4656: real time      9.4864

 eigenvalue-minimisations  :     0
 total energy-change (2. order) :-0.1963417E-06  (-0.9066153E-07)
 number of electron      42.0000000 magnetization 
 augmentation part        0.0083949 magnetization 

 Free energy of the ion-electron system (eV)
  ---------------------------------------------------
  alpha Z        PSCENC =         0.49439650
  Ewald energy   TEWEN  =      3396.28928168
  -Hartree energ DENC   =     -5069.06876128
  -exchange      EXHF   =         0.00000000
  -V(xc)+E(xc)   XCENC  =       171.59930843
  PAW double counting   =     28086.37454475   -28085.36287272
  entropy T*S    EENTRO =        -0.00000000
  eigenvalues    EBANDS =      -624.98878605
  atomic energy  EATOM  =      2032.36727914
  ---------------------------------------------------
  free energy    TOTEN  =       -92.29560955 eV

  energy without entropy =      -92.29560955  energy(sigma->0) =      -92.29560955


--------------------------------------------------------------------------------------------------------




--------------------------------------- Iteration      1(  26)  ---------------------------------------


    POTLOK:  cpu time      1.6140: real time      1.6147
    SETDIJ:  cpu time      0.3428: real time      0.3428
    TRIAL :  cpu time      3.3920: real time      3.3937
    CORREC:  cpu time      3.4691: real time      3.4703
    EDDIAG:  cpu time      0.8912: real time      0.8923
    CHARGE:  cpu time      0.6651: real time      0.6657
    --------------------------------------------
      LOOP:  cpu time     10.3893: real time     10.4106

 eigenvalue-minimisations  :     0
 total energy-change (2. order) :-0.8449206E-07  (-0.4003064E-07)
 number of electron      42.0000000 magnetization 
 augmentation part        0.0083963 magnetization 

 Free energy of the ion-electron system (eV)
  ---------------------------------------------------
  alpha Z        PSCENC =         0.49439650
  Ewald energy   TEWEN  =      3396.28928168
  -Hartree energ DENC   =     -5069.06937354
  -exchange      EXHF   =         0.00000000
  -V(xc)+E(xc)   XCENC  =       171.59930994
  PAW double counting   =     28085.37204632   -28084.36037495
  entropy T*S    EENTRO =        -0.00000000
  eigenvalues    EBANDS =      -624.98817473
  atomic energy  EATOM  =      2032.36727914
  ---------------------------------------------------
  free energy    TOTEN  =       -92.29560963 eV

  energy without entropy =      -92.29560963  energy(sigma->0) =      -92.29560963


--------------------------------------------------------------------------------------------------------


  average scaling for gradient   0.8945


 average (electrostatic) potential at core
  the test charge radii are     0.5770  0.4325  0.5902  0.5955
  (the norm of the test charge is              1.0000)
       1 -92.3011       2 -91.3977       3 -89.0731       4 -90.6865       5 -50.3475
       6 -50.9270       7 -48.1582       8 -48.9203       9-108.7954      10-108.2752
      11-122.7266      12-122.9603



 E-fermi :  -6.5264     XC(G=0):  -0.1439     alpha+bet : -0.0826

 Fermi energy:        -6.5264135911

 k-point     1 :       0.0000    0.0000    0.0000
  band No.  band energies     occupation 
      1     -28.5158      2.00000
      2     -27.5489      2.00000
      3     -25.9461      2.00000
      4     -24.4880      2.00000
      5     -21.0595      2.00000
      6     -18.1276      2.00000
      7     -17.3603      2.00000
      8     -15.6118      2.00000
      9     -14.5151      2.00000
     10     -13.5257      2.00000
     11     -12.4589      2.00000
     12     -12.1834      2.00000
     13     -11.6134      2.00000
     14     -10.8319      2.00000
     15     -10.6682      2.00000
     16     -10.4521      2.00000
     17      -9.6022      2.00000
     18      -7.4338      2.00000
     19      -7.3932      2.00000
     20      -6.5800      2.00000
     21      -6.5778      2.00000
     22      -2.2908      0.00000
     23      -0.8875      0.00000
     24      -0.5466      0.00000
     25       0.0964      0.00000
     26       0.1647      0.00000
     27       0.2256      0.00000
     28       0.2950      0.00000
     29       0.3709      0.00000
     30       0.4035      0.00000
     31       0.4998      0.00000
     32       0.7302      0.00000


--------------------------------------------------------------------------------------------------------


 soft charge-density along one line, spin component           1
         0         1         2         3         4         5         6         7         8         9
 total charge-density along one line

 pseudopotential strength for first ion, spin component:           1
 12.789  21.522   0.007   0.000   0.003   0.014   0.000   0.005
 21.522  36.218   0.013   0.000   0.004   0.023   0.000   0.008
  0.007   0.013  -3.306  -0.000   0.002  -5.929  -0.000   0.003
  0.000   0.000  -0.000  -3.313  -0.000  -0.000  -5.941  -0.000
  0.003   0.004   0.002  -0.000  -3.308   0.003  -0.000  -5.932
  0.014   0.023  -5.929  -0.000   0.003 -10.610  -0.000   0.004
  0.000   0.000  -0.000  -5.941  -0.000  -0.000 -10.629  -0.000
  0.005   0.008   0.003  -0.000  -5.932   0.004  -0.000 -10.614
 total augmentation occupancy for first ion, spin component:           1
 10.762  -4.269  -1.354   0.001  -0.683   0.637  -0.001   0.324
 -4.269   1.773   0.631  -0.001   0.327  -0.311   0.000  -0.161
 -1.354   0.631  10.064  -0.003   1.280  -3.836   0.001  -0.558
  0.001  -0.001  -0.003   3.629  -0.001   0.001  -1.060   0.000
 -0.683   0.327   1.280  -0.001   8.485  -0.558   0.000  -3.137
  0.637  -0.311  -3.836   0.001  -0.558   1.496  -0.001   0.248
 -0.001   0.000   0.001  -1.060   0.000  -0.001   0.312  -0.000
  0.324  -0.161  -0.558   0.000  -3.137   0.248  -0.000   1.181


------------------------ aborting loop because EDIFF is reached ----------------------------------------


    FORLOC:  cpu time      0.0497: real time      0.0497
    FORNL :  cpu time      0.0377: real time      0.0384
    FORCOR:  cpu time      1.6964: real time      1.6967
    OFIELD:  cpu time      0.0060: real time      0.0060

 VOLUME and BASIS-vectors are now :
 -----------------------------------------------------------------------------
  energy-cutoff  :     1000.00
  volume of cell :    10648.00
      direct lattice vectors                 reciprocal lattice vectors
    22.000000000  0.000000000  0.000000000     0.045454545  0.000000000  0.000000000
     0.000000000 22.000000000  0.000000000     0.000000000  0.045454545  0.000000000
     0.000000000  0.000000000 22.000000000     0.000000000  0.000000000  0.045454545

  length of vectors
    22.000000000 22.000000000 22.000000000     0.045454545  0.045454545  0.045454545


 FORCES acting on ions:
    Electron-Ion                     Ewald-Force                    Non-Local-Force
 -----------------------------------------------------------------------------------------------
   0.335E+02 0.383E+02 0.372E-01   -.357E+02 -.443E+02 -.377E-01   0.214E+01 0.585E+01 0.237E-02
   -.349E+02 -.527E+02 0.129E+00   0.373E+02 0.596E+02 -.129E+00   -.219E+01 -.705E+01 0.260E-02
   -.636E+02 -.210E+03 0.165E+00   0.645E+02 0.211E+03 -.166E+00   -.880E+00 -.193E+01 0.193E-02
   0.115E+03 -.207E+03 0.158E+00   -.109E+03 0.214E+03 -.163E+00   -.593E+01 -.778E+01 0.705E-02
   -.608E+02 0.937E+02 0.762E-01   0.648E+02 -.998E+02 -.798E-01   -.417E+01 0.638E+01 0.614E-02
   0.111E+03 -.334E+01 0.748E-01   -.119E+03 0.260E+01 -.799E-01   0.768E+01 0.768E+00 0.629E-02
   -.320E+02 -.846E+02 0.247E-01   0.347E+02 0.898E+02 -.255E-01   -.275E+01 -.541E+01 0.411E-03
   0.521E+02 -.746E+02 0.292E-01   -.557E+02 0.793E+02 -.309E-01   0.368E+01 -.490E+01 0.121E-02
   0.248E+03 -.611E+02 -.655E-01   -.249E+03 0.595E+02 0.991E-01   0.140E+01 0.154E+01 -.358E-01
   -.124E+03 0.171E+03 -.432E-01   0.127E+03 -.170E+03 0.644E-01   -.314E+01 -.117E+01 -.243E-01
   -.416E+03 -.239E+02 -.292E+00   0.470E+03 0.245E+02 0.345E+00   -.547E+02 -.635E+00 -.556E-01
   0.205E+03 0.378E+03 -.173E+00   -.230E+03 -.428E+03 0.203E+00   0.256E+02 0.500E+02 -.318E-01
 -----------------------------------------------------------------------------------------------
   0.332E+02 -.356E+02 0.120E+00   -.284E-13 -.114E-12 -.278E-16   -.332E+02 0.356E+02 -.119E+00


 POSITION                                       TOTAL-FORCE (eV/Angst)
 -----------------------------------------------------------------------------------
     10.18885      9.77116     11.00021        -0.123487     -0.289884      0.001933
     12.29376     11.15610     11.00006         0.433256     -0.101493      0.003489
     11.45036     12.33995     10.99914        -0.134653     -0.091682      0.000650
     10.10477     12.21264     10.99909         0.131279     -0.209695      0.001282
     12.11392      9.08670     10.99942        -0.183812      0.271104      0.002576
      8.48348     10.89749     10.99908         0.331352      0.023129      0.001234
     11.93069     13.31037     10.99904        -0.096249     -0.191409     -0.000448
      9.43296     13.06644     10.99885         0.121968     -0.166286     -0.000550
      9.49330     10.98327     10.99992         0.079440     -0.052091     -0.002181
     11.56305      9.94220     11.00020        -0.081504      0.029881     -0.003121
     13.51652     11.13553     11.00115        -0.882128     -0.007010     -0.002950
      9.62653      8.68963     11.00078         0.404540      0.785436     -0.001914
 -----------------------------------------------------------------------------------
    total drift:                                0.000267     -0.000277      0.000139


--------------------------------------------------------------------------------------------------------



  FREE ENERGIE OF THE ION-ELECTRON SYSTEM (eV)
  ---------------------------------------------------
  free  energy   TOTEN  =       -92.29560963 eV

  energy  without entropy=      -92.29560963  energy(sigma->0) =      -92.29560963



--------------------------------------------------------------------------------------------------------


    POTLOK:  cpu time      1.9297: real time      1.9305


--------------------------------------------------------------------------------------------------------


 stress matrix after NEB project (eV)
      0.00000      0.00000      0.00000
      0.00000      0.00000      0.00000
      0.00000      0.00000      0.00000
  FORCES: max atom, RMS     0.883496    0.434593
  FORCE total and by dimension    1.505474    0.882128
  Stress total and by dimension    0.000000    0.000000
     LOOP+:  cpu time    228.8214: real time    229.2102
    4ORBIT:  cpu time      0.0000: real time      0.0000

 total amount of memory used by VASP MPI-rank0   132714. kBytes
=======================================================================

   base      :      30000. kBytes
   nonl-proj :       5347. kBytes
   fftplans  :      24880. kBytes
   grid      :      70194. kBytes
   one-center:          1. kBytes
   wavefun   :       2292. kBytes

  
  
 General timing and accounting informations for this job:
 ========================================================
  
                  Total CPU time used (sec):      259.161
                            User time (sec):      234.335
                          System time (sec):       24.826
                         Elapsed time (sec):      265.995
  
                   Maximum memory used (kb):      349732.
                   Average memory used (kb):          N/A
  
                          Minor page faults:       595318
                          Major page faults:          593
                 Voluntary context switches:         7370
