 vasp.6.4.1 05Apr23 (build Jun  6 2023 14:46:38) gamma-only                      
 executed on        HPECrayEX_GCC date 2024.08.22  08:48:58
 running  512 mpi-ranks, with    1 threads/rank, on    4 nodes
 distrk:  each k-point on  256 cores,    2 groups
 distr:  one band on NCORE=  32 cores,    8 groups


--------------------------------------------------------------------------------------------------------


 INCAR:
   ALGO = Conjugate
   KPAR = 2
   NCORE = 32
   ISMEAR = 0
   SIGMA = 0.01
   PREC = Accurate
   EDIFF = 1E-7
   ENCUT = 1000
   ISIF = 0
   GGA = RE
   IVDW = 11
   LWAVE = .FALSE.
   LCHARG = .FALSE.
   SYMPREC = 1E-7
   LWAVE = .FALSE.
   LCHARG = .FALSE.

 POTCAR:    PAW_PBE C_h 06Feb2004                 
 POTCAR:    PAW_PBE H_h 06Feb2004                 
 POTCAR:    PAW_PBE N_h 06Feb2004                 
 POTCAR:    PAW_PBE O_h 06Feb2004                 
 POTCAR:    PAW_PBE C_h 06Feb2004                 
   VRHFIN =C: s2p2                                                                                  
   LEXCH  = PE                                                                                      
   EATOM  =   147.1560 eV,   10.8157 Ry                                                             
                                                                                                    
   TITEL  = PAW_PBE C_h 06Feb2004                                                                   
   LULTRA =        F    use ultrasoft PP ?                                                          
   IUNSCR =        1    unscreen: 0-lin 1-nonlin 2-no                                               
   RPACOR =    0.800    partial core radius                                                         
   POMASS =   12.011; ZVAL   =    4.000    mass and valenz                                          
   RCORE  =    1.100    outmost cutoff radius                                                       
   RWIGS  =    1.630; RWIGS  =    0.863    wigner-seitz radius (au A)                               
   ENMAX  =  700.000; ENMIN  =  500.000 eV                                                          
   ICORE  =        2    local potential                                                             
   LCOR   =        T    correct aug charges                                                         
   LPAW   =        T    paw PP                                                                      
   EAUG   =  946.768                                                                                
   DEXC   =    0.000                                                                                
   RMAX   =    1.128    core radius for proj-oper                                                   
   RAUG   =    1.300    factor for augmentation sphere                                              
   RDEP   =    1.162    radius for radial grids                                                     
   RDEPT  =    1.088    core radius for aug-charge                                                  
                                                                                                    
   Atomic configuration                                                                             
    4 entries                                                                                       
     n  l   j            E        occ.                                                              
     1  0  0.50      -273.3789   2.0000                                                             
     2  0  0.50       -13.7508   2.0000                                                             
     2  1  0.50        -5.2854   2.0000                                                             
     3  2  1.50        -5.4423   0.0000                                                             
   Description                                                                                      
     l       E           TYP  RCUT    TYP  RCUT                                                     
     0    -13.7508458     23  1.100                                                                 
     0     -8.2022199     23  1.100                                                                 
     1     -5.2854383     23  1.100                                                                 
     1      1.1560700     23  1.100                                                                 
     2     -5.4423304      7  1.100                                                                 
  local pseudopotential read in
  partial core-charges read in
  partial kinetic energy density read in
  atomic valenz-charges read in
  non local Contribution for L=           0  read in
    real space projection operators read in
  non local Contribution for L=           0  read in
    real space projection operators read in
  non local Contribution for L=           1  read in
    real space projection operators read in
  non local Contribution for L=           1  read in
    real space projection operators read in
    PAW grid and wavefunctions read in

   number of l-projection  operators is LMAX  =           4
   number of lm-projection operators is LMMAX =           8

 POTCAR:    PAW_PBE H_h 06Feb2004                 
   VRHFIN =H: ultrasoft test                                                                        
   LEXCH  = PE                                                                                      
   EATOM  =    12.4884 eV,    0.9179 Ry                                                             
                                                                                                    
   TITEL  = PAW_PBE H_h 06Feb2004                                                                   
   LULTRA =        F    use ultrasoft PP ?                                                          
   IUNSCR =        0    unscreen: 0-lin 1-nonlin 2-no                                               
   RPACOR =    0.000    partial core radius                                                         
   POMASS =    1.000; ZVAL   =    1.000    mass and valenz                                          
   RCORE  =    0.800    outmost cutoff radius                                                       
   RWIGS  =    0.700; RWIGS  =    0.370    wigner-seitz radius (au A)                               
   ENMAX  =  700.000; ENMIN  =  350.000 eV                                                          
   RCLOC  =    0.701    cutoff for local pot                                                        
   LCOR   =        T    correct aug charges                                                         
   LPAW   =        T    paw PP                                                                      
   EAUG   = 1000.000                                                                                
   RMAX   =    0.819    core radius for proj-oper                                                   
   RAUG   =    1.000    factor for augmentation sphere                                              
   RDEP   =    0.817    radius for radial grids                                                     
   RDEPT  =    0.817    core radius for aug-charge                                                  
                                                                                                    
   Atomic configuration                                                                             
    2 entries                                                                                       
     n  l   j            E        occ.                                                              
     1  0  0.50        -6.4927   1.0000                                                             
     2  1  0.50        -3.4015   0.0000                                                             
   Description                                                                                      
     l       E           TYP  RCUT    TYP  RCUT                                                     
     0     -6.4927493     23  0.800                                                                 
     0      6.8029130     23  0.800                                                                 
     1     -6.8029130     23  0.800                                                                 
  local pseudopotential read in
  atomic valenz-charges read in
  non local Contribution for L=           0  read in
    real space projection operators read in
  non local Contribution for L=           0  read in
    real space projection operators read in
  non local Contribution for L=           1  read in
    real space projection operators read in
    PAW grid and wavefunctions read in

   number of l-projection  operators is LMAX  =           3
   number of lm-projection operators is LMMAX =           5

 POTCAR:    PAW_PBE N_h 06Feb2004                 
   VRHFIN =N: s2p3                                                                                  
   LEXCH  = PE                                                                                      
   EATOM  =   264.5486 eV,   19.4438 Ry                                                             
                                                                                                    
   TITEL  = PAW_PBE N_h 06Feb2004                                                                   
   LULTRA =        F    use ultrasoft PP ?                                                          
   IUNSCR =        1    unscreen: 0-lin 1-nonlin 2-no                                               
   RPACOR =    0.800    partial core radius                                                         
   POMASS =   14.001; ZVAL   =    5.000    mass and valenz                                          
   RCORE  =    1.100    outmost cutoff radius                                                       
   RWIGS  =    1.480; RWIGS  =    0.783    wigner-seitz radius (au A)                               
   ENMAX  =  700.000; ENMIN  =  500.000 eV                                                          
   ICORE  =        2    local potential                                                             
   LCOR   =        T    correct aug charges                                                         
   LPAW   =        T    paw PP                                                                      
   EAUG   =  904.640                                                                                
   DEXC   =    0.000                                                                                
   RMAX   =    1.127    core radius for proj-oper                                                   
   RAUG   =    1.300    factor for augmentation sphere                                              
   RDEP   =    1.115    radius for radial grids                                                     
   RDEPT  =    1.106    core radius for aug-charge                                                  
                                                                                                    
   Atomic configuration                                                                             
    4 entries                                                                                       
     n  l   j            E        occ.                                                              
     1  0  0.50      -384.7179   2.0000                                                             
     2  0  0.50       -18.5828   2.0000                                                             
     2  1  0.50        -7.0898   3.0000                                                             
     3  2  1.50        -6.8029   0.0000                                                             
   Description                                                                                      
     l       E           TYP  RCUT    TYP  RCUT                                                     
     0    -18.5828117     23  1.100                                                                 
     0    -15.0750597     23  1.100                                                                 
     1     -7.0897851     23  1.100                                                                 
     1     -1.9663412     23  1.100                                                                 
     2     -6.8029130      7  1.100                                                                 
  local pseudopotential read in
  partial core-charges read in
  partial kinetic energy density read in
  kinetic energy density of atom read in
  atomic valenz-charges read in
  non local Contribution for L=           0  read in
    real space projection operators read in
  non local Contribution for L=           0  read in
    real space projection operators read in
  non local Contribution for L=           1  read in
    real space projection operators read in
  non local Contribution for L=           1  read in
    real space projection operators read in
    PAW grid and wavefunctions read in

   number of l-projection  operators is LMAX  =           4
   number of lm-projection operators is LMMAX =           8

 POTCAR:    PAW_PBE O_h 06Feb2004                 
   VRHFIN =O: s2p4                                                                                  
   LEXCH  = PE                                                                                      
   EATOM  =   432.3788 eV,   31.7789 Ry                                                             
                                                                                                    
   TITEL  = PAW_PBE O_h 06Feb2004                                                                   
   LULTRA =        F    use ultrasoft PP ?                                                          
   IUNSCR =        1    unscreen: 0-lin 1-nonlin 2-no                                               
   RPACOR =    0.800    partial core radius                                                         
   POMASS =   16.000; ZVAL   =    6.000    mass and valenz                                          
   RCORE  =    1.100    outmost cutoff radius                                                       
   RWIGS  =    1.400; RWIGS  =    0.741    wigner-seitz radius (au A)                               
   ENMAX  =  700.000; ENMIN  =  500.000 eV                                                          
   ICORE  =        2    local potential                                                             
   LCOR   =        T    correct aug charges                                                         
   LPAW   =        T    paw PP                                                                      
   EAUG   =  888.804                                                                                
   DEXC   =    0.000                                                                                
   RMAX   =    1.128    core radius for proj-oper                                                   
   RAUG   =    1.300    factor for augmentation sphere                                              
   RDEP   =    1.125    radius for radial grids                                                     
   RDEPT  =    1.088    core radius for aug-charge                                                  
                                                                                                    
   Atomic configuration                                                                             
    4 entries                                                                                       
     n  l   j            E        occ.                                                              
     1  0  0.50      -514.6923   2.0000                                                             
     2  0  0.50       -23.9615   2.0000                                                             
     2  1  0.50        -9.0305   4.0000                                                             
     3  2  1.50        -9.5241   0.0000                                                             
   Description                                                                                      
     l       E           TYP  RCUT    TYP  RCUT                                                     
     0    -23.9615319     23  1.100                                                                 
     0    -25.3221145     23  1.100                                                                 
     1     -9.0304911     23  1.100                                                                 
     1     -5.4802209     23  1.100                                                                 
     2     -9.5240782      7  1.100                                                                 
  local pseudopotential read in
  partial core-charges read in
  partial kinetic energy density read in
  atomic valenz-charges read in
  non local Contribution for L=           0  read in
    real space projection operators read in
  non local Contribution for L=           0  read in
    real space projection operators read in
  non local Contribution for L=           1  read in
    real space projection operators read in
  non local Contribution for L=           1  read in
    real space projection operators read in
    PAW grid and wavefunctions read in

   number of l-projection  operators is LMAX  =           4
   number of lm-projection operators is LMMAX =           8

 -----------------------------------------------------------------------------
|                                                                             |
|               ----> ADVICE to this user running VASP <----                  |
|                                                                             |
|     You enforced a specific xc type in the INCAR file but a different       |
|     type was found in the POTCAR file.                                      |
|     I HOPE YOU KNOW WHAT YOU ARE DOING!                                     |
|                                                                             |
 -----------------------------------------------------------------------------

  PAW_PBE C_h 06Feb2004                 :
 energy of atom  1       EATOM= -147.1560
 kinetic energy error for atom=    0.0031 (will be added to EATOM!!)
  PAW_PBE H_h 06Feb2004                 :
 energy of atom  2       EATOM=  -12.4884
 kinetic energy error for atom=    0.0006 (will be added to EATOM!!)
  PAW_PBE N_h 06Feb2004                 :
 energy of atom  3       EATOM= -264.5486
 kinetic energy error for atom=    0.0081 (will be added to EATOM!!)
  PAW_PBE O_h 06Feb2004                 :
 energy of atom  4       EATOM= -432.3788
 kinetic energy error for atom=    0.0171 (will be added to EATOM!!)


 POSCAR:  C  H  N  O
  positions in cartesian coordinates
  No initial velocities read in
 exchange correlation table for  LEXCH =       40
   RHO(1)=    0.500       N(1)  =     2000
   RHO(2)=  100.500       N(2)  =     4000

 VTST: version 4.1, (05/19/21)

 CHAIN: initializing optimizer
 
 OPT: Using VASP Dynamics algorithm
 CHAIN: Read ICHAIN            0

 POSCAR:  C  H  N  O
  positions in cartesian coordinates
  No initial velocities read in



--------------------------------------------------------------------------------------------------------


 ion  position               nearest neighbor table
   1  0.463  0.444  0.500-  12 1.22  10 1.38   9 1.40
   2  0.559  0.507  0.500-  11 1.22  10 1.42   3 1.45
   3  0.520  0.561  0.500-   7 1.08   4 1.35   2 1.45
   4  0.459  0.555  0.500-   8 1.09   3 1.35   9 1.37
   5  0.551  0.413  0.500-  10 1.02
   6  0.386  0.495  0.500-   9 1.01
   7  0.542  0.605  0.500-   3 1.08
   8  0.429  0.594  0.500-   4 1.09
   9  0.432  0.499  0.500-   6 1.01   4 1.37   1 1.40
  10  0.526  0.452  0.500-   5 1.02   1 1.38   2 1.42
  11  0.614  0.506  0.500-   2 1.22
  12  0.438  0.395  0.500-   1 1.22

  LATTYP: Found a simple cubic cell.
 ALAT       =    22.0000000000
  
  Lattice vectors:
  
 A1 = (  22.0000000000,   0.0000000000,   0.0000000000)
 A2 = (   0.0000000000,  22.0000000000,   0.0000000000)
 A3 = (   0.0000000000,   0.0000000000,  22.0000000000)


Analysis of symmetry for initial positions (statically):
=====================================================================
 Subroutine PRICEL returns:
 Original cell was already a primitive cell.
 

 Routine SETGRP: Setting up the symmetry group for a 
 simple cubic supercell.


 Subroutine GETGRP returns: Found  1 space group operations
 (whereof  1 operations were pure point group operations)
 out of a pool of 48 trial point group operations.


The static configuration has the point symmetry C_1 .


Analysis of symmetry for dynamics (positions and initial velocities):
=====================================================================
 Subroutine PRICEL returns:
 Original cell was already a primitive cell.
 

 Routine SETGRP: Setting up the symmetry group for a 
 simple cubic supercell.


 Subroutine GETGRP returns: Found  1 space group operations
 (whereof  1 operations were pure point group operations)
 out of a pool of 48 trial point group operations.


The dynamic configuration has the point symmetry C_1 .


 Subroutine INISYM returns: Found  1 space group operations
 (whereof  1 operations are pure point group operations),
 and found     1 'primitive' translations


----------------------------------------------------------------------------------------

                                     Primitive cell                                     

  volume of cell :   10648.0000

  direct lattice vectors                    reciprocal lattice vectors
    22.000000000  0.000000000  0.000000000     0.045454545  0.000000000  0.000000000
     0.000000000 22.000000000  0.000000000     0.000000000  0.045454545  0.000000000
     0.000000000  0.000000000 22.000000000     0.000000000  0.000000000  0.045454545

  length of vectors
    22.000000000 22.000000000 22.000000000     0.045454545  0.045454545  0.045454545

  position of ions in fractional coordinates (direct lattice)
     0.463129545  0.444143864  0.500009545
     0.558807273  0.507095682  0.500002727
     0.520470909  0.560906591  0.499960909
     0.459307727  0.555119773  0.499958636
     0.550632727  0.413032045  0.499973636
     0.385612727  0.495340227  0.499958182
     0.542304091  0.605017045  0.499956364
     0.428770909  0.593928864  0.499947727
     0.431513636  0.499239318  0.499996364
     0.525593182  0.451918409  0.500009091
     0.614387273  0.506160682  0.500052273
     0.437569545  0.394982955  0.500035455

  ion indices of the primitive-cell ions
   primitive index   ion index
                 1           1
                 2           2
                 3           3
                 4           4
                 5           5
                 6           6
                 7           7
                 8           8
                 9           9
                10          10
                11          11
                12          12

----------------------------------------------------------------------------------------



 KPOINTS: auto                                    

Automatic generation of k-mesh.
 Grid dimensions read from file:
 generate k-points for:    1    1    1

 Generating k-lattice:

  Cartesian coordinates                     Fractional coordinates (reciprocal lattice)
     0.045454545  0.000000000  0.000000000     1.000000000  0.000000000  0.000000000
     0.000000000  0.045454545  0.000000000     0.000000000  1.000000000  0.000000000
     0.000000000  0.000000000  0.045454545     0.000000000  0.000000000  1.000000000

  Length of vectors
     0.045454545  0.045454545  0.045454545

  Shift w.r.t. Gamma in fractional coordinates (k-lattice)
     0.000000000  0.000000000  0.000000000

 
 Subroutine IBZKPT returns following result:
 ===========================================
 
 Found      1 irreducible k-points:
 
 Following reciprocal coordinates:
            Coordinates               Weight
  0.000000  0.000000  0.000000      1.000000
 
 Following cartesian coordinates:
            Coordinates               Weight
  0.000000  0.000000  0.000000      1.000000
 


--------------------------------------------------------------------------------------------------------




 Dimension of arrays:
   k-points           NKPTS =      1   k-points in BZ     NKDIM =      1   number of bands    NBANDS=     32
   number of dos      NEDOS =    301   number of ions     NIONS =     12
   non local maximal  LDIM  =      4   non local SUM 2l+1 LMDIM =      8
   total plane-waves  NPLWV = ******
   max r-space proj   IRMAX =      1   max aug-charges    IRDMAX=   9667
   dimension x,y,z NGX =   240 NGY =  240 NGZ =  240
   dimension x,y,z NGXF=   480 NGYF=  480 NGZF=  480
   support grid    NGXF=   480 NGYF=  480 NGZF=  480
   ions per type =               4   4   2   2
   NGX,Y,Z   is equivalent  to a cutoff of  18.14, 18.14, 18.14 a.u.
   NGXF,Y,Z  is equivalent  to a cutoff of  36.27, 36.27, 36.27 a.u.

 SYSTEM =  unknown system                          
 POSCAR =   C  H  N  O                             

 Startparameter for this run:
   NWRITE =      2    write-flag & timer
   PREC   = accura    normal or accurate (medium, high low for compatibility)
   ISTART =      0    job   : 0-new  1-cont  2-samecut
   ICHARG =      2    charge: 1-file 2-atom 10-const
   ISPIN  =      1    spin polarized calculation?
   LNONCOLLINEAR =      F non collinear calculations
   LSORBIT =      F    spin-orbit coupling
   INIWAV =      1    electr: 0-lowe 1-rand  2-diag
   LASPH  =      F    aspherical Exc in radial PAW
 Electronic Relaxation 1
   ENCUT  = 1000.0 eV  73.50 Ry    8.57 a.u.  56.73 56.73 56.73*2*pi/ulx,y,z
   ENINI  = 1000.0     initial cutoff
   ENAUG  = 1000.0 eV  augmentation charge cutoff
   NELM   =     60;   NELMIN=  2; NELMDL= -5     # of ELM steps 
   EDIFF  = 0.1E-06   stopping-criterion for ELM
   LREAL  =      F    real-space projection
   NLSPLINE    = F    spline interpolate recip. space projectors
   LCOMPAT=      F    compatible to vasp.4.4
   GGA_COMPAT  = T    GGA compatible to vasp.4.4-vasp.4.6
   LMAXPAW     = -100 max onsite density
   LMAXMIX     =    2 max onsite mixed and CHGCAR
   VOSKOWN=      0    Vosko Wilk Nusair interpolation
   ROPT   =    0.00000   0.00000   0.00000   0.00000
 Ionic relaxation
   EDIFFG = 0.1E-05   stopping-criterion for IOM
   NSW    =      0    number of steps for IOM
   NBLOCK =      1;   KBLOCK =      1    inner block; outer block 
   IBRION =     -1    ionic relax: 0-MD 1-quasi-New 2-CG
   NFREE  =      0    steps in history (QN), initial steepest desc. (CG)
   ISIF   =      0    stress and relaxation
   IWAVPR =     10    prediction:  0-non 1-charg 2-wave 3-comb
   ISYM   =      2    0-nonsym 1-usesym 2-fastsym
   LCORR  =      T    Harris-Foulkes like correction to forces

   POTIM  = 0.5000    time-step for ionic-motion
   TEIN   =    0.0    initial temperature
   TEBEG  =    0.0;   TEEND  =   0.0 temperature during run
   SMASS  =  -3.00    Nose mass-parameter (am)
   estimated Nose-frequenzy (Omega)   =  0.10E-29 period in steps = 0.13E+47 mass=  -0.111E-25a.u.
   SCALEE = 1.0000    scale energy and forces
   NPACO  =    256;   APACO  = 10.0  distance and # of slots for P.C.
   PSTRESS=    0.0 pullay stress

  Mass of Ions in am
   POMASS =  12.01  1.00 14.00 16.00
  Ionic Valenz
   ZVAL   =   4.00  1.00  5.00  6.00
  Atomic Wigner-Seitz radii
   RWIGS  =  -1.00 -1.00 -1.00 -1.00
  virtual crystal weights 
   VCA    =   1.00  1.00  1.00  1.00
   NELECT =      42.0000    total number of electrons
   NUPDOWN=      -1.0000    fix difference up-down

 DOS related values:
   EMIN   =  10.00;   EMAX   =-10.00  energy-range for DOS
   EFERMI =   0.00;   METHOD = LEGACY      
   ISMEAR =     0;   SIGMA  =   0.01  broadening in eV -4-tet -1-fermi 0-gaus

 Electronic relaxation 2 (details)
   IALGO  =     58    algorithm
   LDIAG  =      T    sub-space diagonalisation (order eigenvalues)
   LSUBROT=      F    optimize rotation matrix (better conditioning)
   TURBO    =      0    0=normal 1=particle mesh
   IRESTART =      0    0=no restart 2=restart with 2 vectors
   NREBOOT  =      0    no. of reboots
   NMIN     =      0    reboot dimension
   EREF     =   0.00    reference energy to select bands
   IMIX   =      4    mixing-type and parameters
     AMIX     =   0.40;   BMIX     =  1.00
     AMIX_MAG =   1.60;   BMIX_MAG =  1.00
     AMIN     =   0.10
     WC   =   100.;   INIMIX=   1;  MIXPRE=   1;  MAXMIX= -45

 Intra band minimization:
   WEIMIN = 0.0000     energy-eigenvalue tresh-hold
   EBREAK =  0.78E-09  absolut break condition
   DEPER  =   0.30     relativ break condition  

   TIME   =   0.40     timestep for ELM

  volume/ion in A,a.u.               =     887.33      5988.02
  Fermi-wavevector in a.u.,A,eV,Ry     =   0.258664  0.488803  0.910323  0.066907
  Thomas-Fermi vector in A             =   1.084480

 Write flags
   LWAVE        =      F    write WAVECAR
   LDOWNSAMPLE  =      F    k-point downsampling of WAVECAR
   LCHARG       =      F    write CHGCAR
   LVTOT        =      F    write LOCPOT, total local potential
   LVHAR        =      F    write LOCPOT, Hartree potential only
   LELF         =      F    write electronic localiz. function (ELF)
   LORBIT       =      0    0 simple, 1 ext, 2 COOP (PROOUT), +10 PAW based schemes


 Dipole corrections
   LMONO  =      F    monopole corrections only (constant potential shift)
   LDIPOL =      F    correct potential (dipole corrections)
   IDIPOL =      0    1-x, 2-y, 3-z, 4-all directions 
   EPSILON=  1.0000000 bulk dielectric constant

 Exchange correlation treatment:
   GGA     =    RE    GGA type
   LEXCH   =    40    internal setting for exchange type
   LIBXC   =     F    Libxc                    
   VOSKOWN =     0    Vosko Wilk Nusair interpolation
   LHFCALC =     F    Hartree Fock is set to
   LHFONE  =     F    Hartree Fock one center treatment
   AEXX    =    0.0000 exact exchange contribution

 Linear response parameters
   LEPSILON=     F    determine dielectric tensor
   LRPA    =     F    only Hartree local field effects (RPA)
   LNABLA  =     F    use nabla operator in PAW spheres
   LVEL    =     F    velocity operator in full k-point grid
   CSHIFT  =0.1000    complex shift for real part using Kramers Kronig
   OMEGAMAX=  -1.0    maximum frequency
   DEG_THRESHOLD= 0.2000000E-02 threshold for treating states as degnerate
   RTIME   =   -0.100 relaxation time in fs
  (WPLASMAI=    0.000 imaginary part of plasma frequency in eV, 0.658/RTIME)
   DFIELD  = 0.0000000 0.0000000 0.0000000 field for delta impulse in time

  Optional k-point grid parameters
   LKPOINTS_OPT  =     F    use optional k-point grid
   KPOINTS_OPT_MODE=     1    mode for optional k-point grid

 Orbital magnetization related:
   ORBITALMAG=     F  switch on orbital magnetization
   LCHIMAG   =     F  perturbation theory with respect to B field
   DQ        =  0.001000  dq finite difference perturbation B field
   LLRAUG    =     F  two centre corrections for induced B field
   LBONE     =     F  B-component reconstruction in AE one-centre
   LVGVCALC  =     T  calculate vGv susceptibility
   LVGVAPPL  =     F  apply vGv susceptibility instead of pGv for G=0

 Random number generation:
   RANDOM_GENERATOR = DEFAULT
   PCG_SEED         = not used


--------------------------------------------------------------------------------------------------------


 Static calculation
 charge density and potential will be updated during run
 non-spin polarized calculation
 Conjugate gradient for all bands (Freysoldt, et al. PRB 79, 241103 (2009))
 preconditioned conjugated gradient                                        
 perform sub-space diagonalisation
    before iterative eigenvector-optimisation
 modified Broyden-mixing scheme, WC =      100.0
 initial mixing is a Kerker type mixing with AMIX =  0.4000 and BMIX =      1.0000
 Hartree-type preconditioning will be used
 using additional bands           11
 reciprocal scheme for non local part
 use partial core corrections
 no Harris-corrections to forces 
 use gradient corrections 
 use of overlap-Matrix (Vanderbilt PP)
 Gauss-broadening in eV      SIGMA  =   0.01


--------------------------------------------------------------------------------------------------------


  energy-cutoff  :     1000.00
  volume of cell :    10648.00
      direct lattice vectors                 reciprocal lattice vectors
    22.000000000  0.000000000  0.000000000     0.045454545  0.000000000  0.000000000
     0.000000000 22.000000000  0.000000000     0.000000000  0.045454545  0.000000000
     0.000000000  0.000000000 22.000000000     0.000000000  0.000000000  0.045454545

  length of vectors
    22.000000000 22.000000000 22.000000000     0.045454545  0.045454545  0.045454545



 k-points in units of 2pi/SCALE and weight: auto                                    
   0.00000000  0.00000000  0.00000000       1.000

 k-points in reciprocal lattice and weights: auto                                    
   0.00000000  0.00000000  0.00000000       1.000

 position of ions in fractional coordinates (direct lattice) 
   0.46312955  0.44414386  0.50000955
   0.55880727  0.50709568  0.50000273
   0.52047091  0.56090659  0.49996091
   0.45930773  0.55511977  0.49995864
   0.55063273  0.41303205  0.49997364
   0.38561273  0.49534023  0.49995818
   0.54230409  0.60501705  0.49995636
   0.42877091  0.59392886  0.49994773
   0.43151364  0.49923932  0.49999636
   0.52559318  0.45191841  0.50000909
   0.61438727  0.50616068  0.50005227
   0.43756955  0.39498295  0.50003545

 position of ions in cartesian coordinates  (Angst):
  10.18885000  9.77116500 11.00021000
  12.29376000 11.15610500 11.00006000
  11.45036000 12.33994500 10.99914000
  10.10477000 12.21263500 10.99909000
  12.11392000  9.08670500 10.99942000
   8.48348000 10.89748500 10.99908000
  11.93069000 13.31037500 10.99904000
   9.43296000 13.06643500 10.99885000
   9.49330000 10.98326500 10.99992000
  11.56305000  9.94220500 11.00020000
  13.51652000 11.13553500 11.00115000
   9.62653000  8.68962500 11.00078000



--------------------------------------------------------------------------------------------------------


 use parallel FFT for orbitals z direction half grid
 k-point   1 :   0.0000 0.0000 0.0000  plane waves:  381993

 maximum and minimum number of plane-waves per node :     11948    11928

 maximum number of plane-waves:    381993
 maximum index in each direction: 
   IXMAX=   56   IYMAX=   56   IZMAX=   56
   IXMIN=  -56   IYMIN=  -56   IZMIN=    0


 parallel 3D FFT for wavefunctions:
    minimum data exchange during FFTs selected (reduces bandwidth)
 parallel 3D FFT for charge:
    minimum data exchange during FFTs selected (reduces bandwidth)


 total amount of memory used by VASP MPI-rank0   114267. kBytes
=======================================================================

   base      :      30000. kBytes
   nonl-proj :       5347. kBytes
   fftplans  :      24880. kBytes
   grid      :      51747. kBytes
   one-center:          1. kBytes
   wavefun   :       2292. kBytes

     INWAV:  cpu time      0.0001: real time      0.0004
 Broyden mixing: mesh for mixing (old mesh)
   NGX =113   NGY =113   NGZ =113
  (NGX  =480   NGY  =480   NGZ  =480)
  gives a total of ****** points

 initial charge density was supplied:
 charge density of overlapping atoms calculated
 number of electron      42.0000000 magnetization 
 keeping initial charge density in first step


--------------------------------------------------------------------------------------------------------


 Maximum index for augmentation-charges          483 (set IRDMAX)


--------------------------------------------------------------------------------------------------------


 First call to EWALD:  gamma=   0.081
 Maximum number of real-space cells 3x 3x 3
 Maximum number of reciprocal cells 3x 3x 3

    FEWALD:  cpu time      0.0063: real time      0.0063


--------------------------------------- Ionic step        1  -------------------------------------------




--------------------------------------- Iteration      1(   1)  ---------------------------------------


    POTLOK:  cpu time      0.6226: real time      0.6248
    SETDIJ:  cpu time      0.0110: real time      0.0119
    TRIAL :  cpu time      0.8953: real time      0.8970
    CORREC:  cpu time      0.0024: real time      0.0024
    --------------------------------------------
      LOOP:  cpu time      1.5359: real time      1.5406

 eigenvalue-minimisations  :    80
 total energy-change (2. order) : 0.4577878E+03  (-0.1115969E+04)
 number of electron      42.0000000 magnetization 
 augmentation part       42.0000000 magnetization 

 Free energy of the ion-electron system (eV)
  ---------------------------------------------------
  alpha Z        PSCENC =         0.49439650
  Ewald energy   TEWEN  =      3396.28928168
  -Hartree energ DENC   =     -4906.76837444
  -exchange      EXHF   =         0.00000000
  -V(xc)+E(xc)   XCENC  =       122.04283196
  PAW double counting   =      1571.49508850    -1547.53369634
  entropy T*S    EENTRO =        -0.00000000
  eigenvalues    EBANDS =      -209.36652992
  atomic energy  EATOM  =      2031.13482597
  ---------------------------------------------------
  free energy    TOTEN  =       457.78782391 eV

  energy without entropy =      457.78782391  energy(sigma->0) =      457.78782391


--------------------------------------------------------------------------------------------------------




--------------------------------------- Iteration      1(   2)  ---------------------------------------


    TRIAL :  cpu time      1.1148: real time      1.1152
    CORREC:  cpu time      0.0002: real time      0.0002
    --------------------------------------------
      LOOP:  cpu time      1.1340: real time      1.1464

 eigenvalue-minimisations  :   112
 total energy-change (2. order) :-0.1980973E+03  (-0.1861865E+03)
 number of electron      42.0000000 magnetization 
 augmentation part       42.0000000 magnetization 

 Free energy of the ion-electron system (eV)
  ---------------------------------------------------
  alpha Z        PSCENC =         0.49439650
  Ewald energy   TEWEN  =      3396.28928168
  -Hartree energ DENC   =     -4906.76837444
  -exchange      EXHF   =         0.00000000
  -V(xc)+E(xc)   XCENC  =       122.04283196
  PAW double counting   =      1571.49508850    -1547.53369634
  entropy T*S    EENTRO =        -0.00000000
  eigenvalues    EBANDS =      -407.46378045
  atomic energy  EATOM  =      2031.13482597
  ---------------------------------------------------
  free energy    TOTEN  =       259.69057339 eV

  energy without entropy =      259.69057339  energy(sigma->0) =      259.69057339


--------------------------------------------------------------------------------------------------------




--------------------------------------- Iteration      1(   3)  ---------------------------------------


    TRIAL :  cpu time      1.1132: real time      1.1136
    CORREC:  cpu time      0.0001: real time      0.0001
    --------------------------------------------
      LOOP:  cpu time      1.1258: real time      1.1432

 eigenvalue-minimisations  :   112
 total energy-change (2. order) :-0.2282842E+03  (-0.2222483E+03)
 number of electron      42.0000000 magnetization 
 augmentation part       42.0000000 magnetization 

 Free energy of the ion-electron system (eV)
  ---------------------------------------------------
  alpha Z        PSCENC =         0.49439650
  Ewald energy   TEWEN  =      3396.28928168
  -Hartree energ DENC   =     -4906.76837444
  -exchange      EXHF   =         0.00000000
  -V(xc)+E(xc)   XCENC  =       122.04283196
  PAW double counting   =      1571.49508850    -1547.53369634
  entropy T*S    EENTRO =        -0.00000000
  eigenvalues    EBANDS =      -635.74802433
  atomic energy  EATOM  =      2031.13482597
  ---------------------------------------------------
  free energy    TOTEN  =        31.40632950 eV

  energy without entropy =       31.40632950  energy(sigma->0) =       31.40632950


--------------------------------------------------------------------------------------------------------




--------------------------------------- Iteration      1(   4)  ---------------------------------------


    TRIAL :  cpu time      0.9935: real time      0.9939
    CORREC:  cpu time      0.0002: real time      0.0002
    --------------------------------------------
      LOOP:  cpu time      1.0232: real time      1.0238

 eigenvalue-minimisations  :    96
 total energy-change (2. order) :-0.1004918E+03  (-0.9991229E+02)
 number of electron      42.0000000 magnetization 
 augmentation part       42.0000000 magnetization 

 Free energy of the ion-electron system (eV)
  ---------------------------------------------------
  alpha Z        PSCENC =         0.49439650
  Ewald energy   TEWEN  =      3396.28928168
  -Hartree energ DENC   =     -4906.76837444
  -exchange      EXHF   =         0.00000000
  -V(xc)+E(xc)   XCENC  =       122.04283196
  PAW double counting   =      1571.49508850    -1547.53369634
  entropy T*S    EENTRO =        -0.00000000
  eigenvalues    EBANDS =      -736.23982628
  atomic energy  EATOM  =      2031.13482597
  ---------------------------------------------------
  free energy    TOTEN  =       -69.08547244 eV

  energy without entropy =      -69.08547244  energy(sigma->0) =      -69.08547244


--------------------------------------------------------------------------------------------------------




--------------------------------------- Iteration      1(   5)  ---------------------------------------


    TRIAL :  cpu time      0.9976: real time      0.9981
    CORREC:  cpu time      0.0002: real time      0.0002
    CHARGE:  cpu time      0.2448: real time      0.2471
    --------------------------------------------
      LOOP:  cpu time      1.2554: real time      1.2756

 eigenvalue-minimisations  :    96
 total energy-change (2. order) :-0.1745133E+02  (-0.1743100E+02)
 number of electron      42.0000000 magnetization 
 augmentation part        0.1003624 magnetization 

 Free energy of the ion-electron system (eV)
  ---------------------------------------------------
  alpha Z        PSCENC =         0.49439650
  Ewald energy   TEWEN  =      3396.28928168
  -Hartree energ DENC   =     -4906.76837444
  -exchange      EXHF   =         0.00000000
  -V(xc)+E(xc)   XCENC  =       122.04283196
  PAW double counting   =      1571.49508850    -1547.53369634
  entropy T*S    EENTRO =        -0.00000000
  eigenvalues    EBANDS =      -753.69115653
  atomic energy  EATOM  =      2031.13482597
  ---------------------------------------------------
  free energy    TOTEN  =       -86.53680270 eV

  energy without entropy =      -86.53680270  energy(sigma->0) =      -86.53680270


--------------------------------------------------------------------------------------------------------




--------------------------------------- Iteration      1(   6)  ---------------------------------------


    POTLOK:  cpu time      0.6268: real time      0.6272
    SETDIJ:  cpu time      0.0014: real time      0.0014
    TRIAL :  cpu time      0.5236: real time      0.5252
    CORREC:  cpu time      0.9909: real time      0.9917
    CHARGE:  cpu time      0.2007: real time      0.2008
    --------------------------------------------
      LOOP:  cpu time      2.3581: real time      2.3764

 eigenvalue-minimisations  :     0
 total energy-change (2. order) : 0.1406792E+02  (-0.5888747E+01)
 number of electron      42.0000000 magnetization 
 augmentation part        0.0532041 magnetization 

 Free energy of the ion-electron system (eV)
  ---------------------------------------------------
  alpha Z        PSCENC =         0.49439650
  Ewald energy   TEWEN  =      3396.28928168
  -Hartree energ DENC   =     -5203.73459573
  -exchange      EXHF   =         0.00000000
  -V(xc)+E(xc)   XCENC  =       135.43220711
  PAW double counting   =     19890.65673257   -19868.50128414
  entropy T*S    EENTRO =        -0.00000000
  eigenvalues    EBANDS =      -454.24045008
  atomic energy  EATOM  =      2031.13482597
  ---------------------------------------------------
  free energy    TOTEN  =       -72.46888612 eV

  energy without entropy =      -72.46888612  energy(sigma->0) =      -72.46888612


--------------------------------------------------------------------------------------------------------




--------------------------------------- Iteration      1(   7)  ---------------------------------------


    POTLOK:  cpu time      0.6263: real time      0.6264
    SETDIJ:  cpu time      0.0041: real time      0.0041
    TRIAL :  cpu time      0.5124: real time      0.5129
    CORREC:  cpu time      0.9721: real time      0.9727
    CHARGE:  cpu time      0.2008: real time      0.2009
    --------------------------------------------
      LOOP:  cpu time      2.3510: real time      2.3526

 eigenvalue-minimisations  :     0
 total energy-change (2. order) :-0.5972043E+01  (-0.8369570E+00)
 number of electron      42.0000000 magnetization 
 augmentation part        0.0219756 magnetization 

 Free energy of the ion-electron system (eV)
  ---------------------------------------------------
  alpha Z        PSCENC =         0.49439650
  Ewald energy   TEWEN  =      3396.28928168
  -Hartree energ DENC   =     -5064.03387360
  -exchange      EXHF   =         0.00000000
  -V(xc)+E(xc)   XCENC  =       129.34947763
  PAW double counting   =     23938.49785911   -23915.50447151
  entropy T*S    EENTRO =        -0.00000000
  eigenvalues    EBANDS =      -594.66842539
  atomic energy  EATOM  =      2031.13482597
  ---------------------------------------------------
  free energy    TOTEN  =       -78.44092961 eV

  energy without entropy =      -78.44092961  energy(sigma->0) =      -78.44092961


--------------------------------------------------------------------------------------------------------




--------------------------------------- Iteration      1(   8)  ---------------------------------------


    POTLOK:  cpu time      0.6232: real time      0.6238
    SETDIJ:  cpu time      0.0049: real time      0.0049
    TRIAL :  cpu time      0.5106: real time      0.5107
    CORREC:  cpu time      0.9733: real time      0.9740
    CHARGE:  cpu time      0.2006: real time      0.2007
    --------------------------------------------
      LOOP:  cpu time      2.3267: real time      2.3448

 eigenvalue-minimisations  :     0
 total energy-change (2. order) :-0.8388233E+00  (-0.2869935E+00)
 number of electron      42.0000000 magnetization 
 augmentation part        0.0196573 magnetization 

 Free energy of the ion-electron system (eV)
  ---------------------------------------------------
  alpha Z        PSCENC =         0.49439650
  Ewald energy   TEWEN  =      3396.28928168
  -Hartree energ DENC   =     -5065.21131718
  -exchange      EXHF   =         0.00000000
  -V(xc)+E(xc)   XCENC  =       129.25856370
  PAW double counting   =     24082.87712741   -24059.75533537
  entropy T*S    EENTRO =        -0.00000000
  eigenvalues    EBANDS =      -594.36729560
  atomic energy  EATOM  =      2031.13482597
  ---------------------------------------------------
  free energy    TOTEN  =       -79.27975288 eV

  energy without entropy =      -79.27975288  energy(sigma->0) =      -79.27975288


--------------------------------------------------------------------------------------------------------




--------------------------------------- Iteration      1(   9)  ---------------------------------------


    POTLOK:  cpu time      0.6242: real time      0.6246
    SETDIJ:  cpu time      0.0050: real time      0.0050
    TRIAL :  cpu time      0.5116: real time      0.5120
    CORREC:  cpu time      0.9738: real time      0.9745
    CHARGE:  cpu time      0.2013: real time      0.2014
    --------------------------------------------
      LOOP:  cpu time      2.3316: real time      2.3490

 eigenvalue-minimisations  :     0
 total energy-change (2. order) :-0.2862758E+00  (-0.1255083E+00)
 number of electron      42.0000000 magnetization 
 augmentation part        0.0198440 magnetization 

 Free energy of the ion-electron system (eV)
  ---------------------------------------------------
  alpha Z        PSCENC =         0.49439650
  Ewald energy   TEWEN  =      3396.28928168
  -Hartree energ DENC   =     -5072.82364354
  -exchange      EXHF   =         0.00000000
  -V(xc)+E(xc)   XCENC  =       129.38134775
  PAW double counting   =     24274.51713249   -24251.38711377
  entropy T*S    EENTRO =        -0.00000000
  eigenvalues    EBANDS =      -587.17225579
  atomic energy  EATOM  =      2031.13482597
  ---------------------------------------------------
  free energy    TOTEN  =       -79.56602870 eV

  energy without entropy =      -79.56602870  energy(sigma->0) =      -79.56602870


--------------------------------------------------------------------------------------------------------




--------------------------------------- Iteration      1(  10)  ---------------------------------------


    POTLOK:  cpu time      0.6233: real time      0.6234
    SETDIJ:  cpu time      0.0146: real time      0.0146
    TRIAL :  cpu time      0.5129: real time      0.5133
    CORREC:  cpu time      0.9824: real time      0.9831
    CHARGE:  cpu time      0.2010: real time      0.2011
    --------------------------------------------
      LOOP:  cpu time      2.3655: real time      2.3672

 eigenvalue-minimisations  :     0
 total energy-change (2. order) :-0.1245182E+00  (-0.4637513E-01)
 number of electron      42.0000000 magnetization 
 augmentation part        0.0211582 magnetization 

 Free energy of the ion-electron system (eV)
  ---------------------------------------------------
  alpha Z        PSCENC =         0.49439650
  Ewald energy   TEWEN  =      3396.28928168
  -Hartree energ DENC   =     -5068.93342218
  -exchange      EXHF   =         0.00000000
  -V(xc)+E(xc)   XCENC  =       129.24515242
  PAW double counting   =     24090.45763998   -24067.31839564
  entropy T*S    EENTRO =        -0.00000000
  eigenvalues    EBANDS =      -591.06002568
  atomic energy  EATOM  =      2031.13482597
  ---------------------------------------------------
  free energy    TOTEN  =       -79.69054694 eV

  energy without entropy =      -79.69054694  energy(sigma->0) =      -79.69054694


--------------------------------------------------------------------------------------------------------




--------------------------------------- Iteration      1(  11)  ---------------------------------------


    POTLOK:  cpu time      0.6218: real time      0.6222
    SETDIJ:  cpu time      0.0041: real time      0.0041
    TRIAL :  cpu time      0.5108: real time      0.5108
    CORREC:  cpu time      0.9702: real time      0.9707
    CHARGE:  cpu time      0.2010: real time      0.2011
    --------------------------------------------
      LOOP:  cpu time      2.3249: real time      2.3405

 eigenvalue-minimisations  :     0
 total energy-change (2. order) :-0.4623920E-01  (-0.1798587E-01)
 number of electron      42.0000000 magnetization 
 augmentation part        0.0221352 magnetization 

 Free energy of the ion-electron system (eV)
  ---------------------------------------------------
  alpha Z        PSCENC =         0.49439650
  Ewald energy   TEWEN  =      3396.28928168
  -Hartree energ DENC   =     -5066.38533201
  -exchange      EXHF   =         0.00000000
  -V(xc)+E(xc)   XCENC  =       129.21304753
  PAW double counting   =     23794.03923409   -23770.91081654
  entropy T*S    EENTRO =        -0.00000000
  eigenvalues    EBANDS =      -593.61142336
  atomic energy  EATOM  =      2031.13482597
  ---------------------------------------------------
  free energy    TOTEN  =       -79.73678614 eV

  energy without entropy =      -79.73678614  energy(sigma->0) =      -79.73678614


--------------------------------------------------------------------------------------------------------




--------------------------------------- Iteration      1(  12)  ---------------------------------------


    POTLOK:  cpu time      0.6238: real time      0.6240
    SETDIJ:  cpu time      0.0013: real time      0.0013
    TRIAL :  cpu time      0.5116: real time      0.5119
    CORREC:  cpu time      0.9806: real time      0.9811
    CHARGE:  cpu time      0.2007: real time      0.2008
    --------------------------------------------
      LOOP:  cpu time      2.3372: real time      2.3510

 eigenvalue-minimisations  :     0
 total energy-change (2. order) :-0.1792463E-01  (-0.6558684E-02)
 number of electron      42.0000000 magnetization 
 augmentation part        0.0220849 magnetization 

 Free energy of the ion-electron system (eV)
  ---------------------------------------------------
  alpha Z        PSCENC =         0.49439650
  Ewald energy   TEWEN  =      3396.28928168
  -Hartree energ DENC   =     -5066.08390063
  -exchange      EXHF   =         0.00000000
  -V(xc)+E(xc)   XCENC  =       129.19563989
  PAW double counting   =     23716.67667349   -23693.55220462
  entropy T*S    EENTRO =        -0.00000000
  eigenvalues    EBANDS =      -593.90942305
  atomic energy  EATOM  =      2031.13482597
  ---------------------------------------------------
  free energy    TOTEN  =       -79.75471077 eV

  energy without entropy =      -79.75471077  energy(sigma->0) =      -79.75471077


--------------------------------------------------------------------------------------------------------




--------------------------------------- Iteration      1(  13)  ---------------------------------------


    POTLOK:  cpu time      0.6291: real time      0.6292
    SETDIJ:  cpu time      0.0019: real time      0.0021
    TRIAL :  cpu time      0.5143: real time      0.5144
    CORREC:  cpu time      0.9668: real time      0.9674
    CHARGE:  cpu time      0.2007: real time      0.2008
    --------------------------------------------
      LOOP:  cpu time      2.3277: real time      2.3460

 eigenvalue-minimisations  :     0
 total energy-change (2. order) :-0.6557348E-02  (-0.3011301E-02)
 number of electron      42.0000000 magnetization 
 augmentation part        0.0220125 magnetization 

 Free energy of the ion-electron system (eV)
  ---------------------------------------------------
  alpha Z        PSCENC =         0.49439650
  Ewald energy   TEWEN  =      3396.28928168
  -Hartree energ DENC   =     -5065.82055481
  -exchange      EXHF   =         0.00000000
  -V(xc)+E(xc)   XCENC  =       129.18207685
  PAW double counting   =     23758.55063107   -23735.42478552
  entropy T*S    EENTRO =        -0.00000000
  eigenvalues    EBANDS =      -594.16713985
  atomic energy  EATOM  =      2031.13482597
  ---------------------------------------------------
  free energy    TOTEN  =       -79.76126811 eV

  energy without entropy =      -79.76126811  energy(sigma->0) =      -79.76126811


--------------------------------------------------------------------------------------------------------




--------------------------------------- Iteration      1(  14)  ---------------------------------------


    POTLOK:  cpu time      0.6201: real time      0.6205
    SETDIJ:  cpu time      0.0090: real time      0.0090
    TRIAL :  cpu time      0.5120: real time      0.5121
    CORREC:  cpu time      0.9641: real time      0.9645
    CHARGE:  cpu time      0.1996: real time      0.1999
    --------------------------------------------
      LOOP:  cpu time      2.3186: real time      2.3371

 eigenvalue-minimisations  :     0
 total energy-change (2. order) :-0.3019282E-02  (-0.1710122E-02)
 number of electron      42.0000000 magnetization 
 augmentation part        0.0219510 magnetization 

 Free energy of the ion-electron system (eV)
  ---------------------------------------------------
  alpha Z        PSCENC =         0.49439650
  Ewald energy   TEWEN  =      3396.28928168
  -Hartree energ DENC   =     -5065.59771409
  -exchange      EXHF   =         0.00000000
  -V(xc)+E(xc)   XCENC  =       129.17925053
  PAW double counting   =     23783.07861890   -23759.95267981
  entropy T*S    EENTRO =        -0.00000000
  eigenvalues    EBANDS =      -594.39026708
  atomic energy  EATOM  =      2031.13482597
  ---------------------------------------------------
  free energy    TOTEN  =       -79.76428740 eV

  energy without entropy =      -79.76428740  energy(sigma->0) =      -79.76428740


--------------------------------------------------------------------------------------------------------




--------------------------------------- Iteration      1(  15)  ---------------------------------------


    POTLOK:  cpu time      0.6171: real time      0.6173
    SETDIJ:  cpu time      0.0042: real time      0.0042
    TRIAL :  cpu time      0.5121: real time      0.5125
    CORREC:  cpu time      0.9623: real time      0.9632
    CHARGE:  cpu time      0.1996: real time      0.1997
    --------------------------------------------
      LOOP:  cpu time      2.3276: real time      2.3296

 eigenvalue-minimisations  :     0
 total energy-change (2. order) :-0.1710954E-02  (-0.8876314E-03)
 number of electron      42.0000000 magnetization 
 augmentation part        0.0221840 magnetization 

 Free energy of the ion-electron system (eV)
  ---------------------------------------------------
  alpha Z        PSCENC =         0.49439650
  Ewald energy   TEWEN  =      3396.28928168
  -Hartree energ DENC   =     -5065.75352930
  -exchange      EXHF   =         0.00000000
  -V(xc)+E(xc)   XCENC  =       129.17965110
  PAW double counting   =     23766.67415562   -23743.54741089
  entropy T*S    EENTRO =        -0.00000000
  eigenvalues    EBANDS =      -594.23736903
  atomic energy  EATOM  =      2031.13482597
  ---------------------------------------------------
  free energy    TOTEN  =       -79.76599835 eV

  energy without entropy =      -79.76599835  energy(sigma->0) =      -79.76599835


--------------------------------------------------------------------------------------------------------




--------------------------------------- Iteration      1(  16)  ---------------------------------------


    POTLOK:  cpu time      0.6108: real time      0.6113
    SETDIJ:  cpu time      0.0025: real time      0.0025
    TRIAL :  cpu time      0.5124: real time      0.5125
    CORREC:  cpu time      0.9486: real time      0.9492
    CHARGE:  cpu time      0.2006: real time      0.2007
    --------------------------------------------
      LOOP:  cpu time      2.2901: real time      2.3077

 eigenvalue-minimisations  :     0
 total energy-change (2. order) :-0.8880941E-03  (-0.3770202E-03)
 number of electron      42.0000000 magnetization 
 augmentation part        0.0222081 magnetization 

 Free energy of the ion-electron system (eV)
  ---------------------------------------------------
  alpha Z        PSCENC =         0.49439650
  Ewald energy   TEWEN  =      3396.28928168
  -Hartree energ DENC   =     -5066.03645270
  -exchange      EXHF   =         0.00000000
  -V(xc)+E(xc)   XCENC  =       129.18972796
  PAW double counting   =     23730.71544935   -23707.59033539
  entropy T*S    EENTRO =        -0.00000000
  eigenvalues    EBANDS =      -593.96377981
  atomic energy  EATOM  =      2031.13482597
  ---------------------------------------------------
  free energy    TOTEN  =       -79.76688644 eV

  energy without entropy =      -79.76688644  energy(sigma->0) =      -79.76688644


--------------------------------------------------------------------------------------------------------




--------------------------------------- Iteration      1(  17)  ---------------------------------------


    POTLOK:  cpu time      0.6018: real time      0.6026
    SETDIJ:  cpu time      0.0038: real time      0.0038
    TRIAL :  cpu time      0.5106: real time      0.5108
    CORREC:  cpu time      0.9418: real time      0.9423
    CHARGE:  cpu time      0.2002: real time      0.2003
    --------------------------------------------
      LOOP:  cpu time      2.2739: real time      2.2911

 eigenvalue-minimisations  :     0
 total energy-change (2. order) :-0.3767793E-03  (-0.1328099E-03)
 number of electron      42.0000000 magnetization 
 augmentation part        0.0222430 magnetization 

 Free energy of the ion-electron system (eV)
  ---------------------------------------------------
  alpha Z        PSCENC =         0.49439650
  Ewald energy   TEWEN  =      3396.28928168
  -Hartree energ DENC   =     -5065.93766341
  -exchange      EXHF   =         0.00000000
  -V(xc)+E(xc)   XCENC  =       129.18527386
  PAW double counting   =     23714.71110825   -23691.58534188
  entropy T*S    EENTRO =        -0.00000000
  eigenvalues    EBANDS =      -594.05914419
  atomic energy  EATOM  =      2031.13482597
  ---------------------------------------------------
  free energy    TOTEN  =       -79.76726322 eV

  energy without entropy =      -79.76726322  energy(sigma->0) =      -79.76726322


--------------------------------------------------------------------------------------------------------




--------------------------------------- Iteration      1(  18)  ---------------------------------------


    POTLOK:  cpu time      0.6037: real time      0.6039
    SETDIJ:  cpu time      0.0016: real time      0.0016
    TRIAL :  cpu time      0.5111: real time      0.5119
    CORREC:  cpu time      0.9435: real time      0.9440
    CHARGE:  cpu time      0.2011: real time      0.2012
    --------------------------------------------
      LOOP:  cpu time      2.2917: real time      2.2937

 eigenvalue-minimisations  :     0
 total energy-change (2. order) :-0.1325850E-03  (-0.4621437E-04)
 number of electron      42.0000000 magnetization 
 augmentation part        0.0221774 magnetization 

 Free energy of the ion-electron system (eV)
  ---------------------------------------------------
  alpha Z        PSCENC =         0.49439650
  Ewald energy   TEWEN  =      3396.28928168
  -Hartree energ DENC   =     -5066.09454261
  -exchange      EXHF   =         0.00000000
  -V(xc)+E(xc)   XCENC  =       129.19133380
  PAW double counting   =     23715.99748197   -23692.87209973
  entropy T*S    EENTRO =        -0.00000000
  eigenvalues    EBANDS =      -593.90807340
  atomic energy  EATOM  =      2031.13482597
  ---------------------------------------------------
  free energy    TOTEN  =       -79.76739581 eV

  energy without entropy =      -79.76739581  energy(sigma->0) =      -79.76739581


--------------------------------------------------------------------------------------------------------




--------------------------------------- Iteration      1(  19)  ---------------------------------------


    POTLOK:  cpu time      0.5959: real time      0.5960
    SETDIJ:  cpu time      0.0014: real time      0.0014
    TRIAL :  cpu time      0.5116: real time      0.5123
    CORREC:  cpu time      0.9408: real time      0.9414
    CHARGE:  cpu time      0.2010: real time      0.2011
    --------------------------------------------
      LOOP:  cpu time      2.2660: real time      2.2832

 eigenvalue-minimisations  :     0
 total energy-change (2. order) :-0.4607063E-04  (-0.1668019E-04)
 number of electron      42.0000000 magnetization 
 augmentation part        0.0221582 magnetization 

 Free energy of the ion-electron system (eV)
  ---------------------------------------------------
  alpha Z        PSCENC =         0.49439650
  Ewald energy   TEWEN  =      3396.28928168
  -Hartree energ DENC   =     -5066.06071955
  -exchange      EXHF   =         0.00000000
  -V(xc)+E(xc)   XCENC  =       129.19008442
  PAW double counting   =     23726.40866475   -23703.28281339
  entropy T*S    EENTRO =        -0.00000000
  eigenvalues    EBANDS =      -593.94116226
  atomic energy  EATOM  =      2031.13482597
  ---------------------------------------------------
  free energy    TOTEN  =       -79.76744188 eV

  energy without entropy =      -79.76744188  energy(sigma->0) =      -79.76744188


--------------------------------------------------------------------------------------------------------




--------------------------------------- Iteration      1(  20)  ---------------------------------------


    POTLOK:  cpu time      0.5970: real time      0.5975
    SETDIJ:  cpu time      0.0055: real time      0.0055
    TRIAL :  cpu time      0.5125: real time      0.5126
    CORREC:  cpu time      0.9427: real time      0.9434
    CHARGE:  cpu time      0.2012: real time      0.2013
    --------------------------------------------
      LOOP:  cpu time      2.2745: real time      2.2916

 eigenvalue-minimisations  :     0
 total energy-change (2. order) :-0.1657133E-04  (-0.6787763E-05)
 number of electron      42.0000000 magnetization 
 augmentation part        0.0221556 magnetization 

 Free energy of the ion-electron system (eV)
  ---------------------------------------------------
  alpha Z        PSCENC =         0.49439650
  Ewald energy   TEWEN  =      3396.28928168
  -Hartree energ DENC   =     -5066.05349515
  -exchange      EXHF   =         0.00000000
  -V(xc)+E(xc)   XCENC  =       129.19005919
  PAW double counting   =     23734.45136121   -23711.32545692
  entropy T*S    EENTRO =        -0.00000000
  eigenvalues    EBANDS =      -593.94843092
  atomic energy  EATOM  =      2031.13482597
  ---------------------------------------------------
  free energy    TOTEN  =       -79.76745845 eV

  energy without entropy =      -79.76745845  energy(sigma->0) =      -79.76745845


--------------------------------------------------------------------------------------------------------




--------------------------------------- Iteration      1(  21)  ---------------------------------------


    POTLOK:  cpu time      0.5926: real time      0.5931
    SETDIJ:  cpu time      0.0038: real time      0.0038
    TRIAL :  cpu time      0.5113: real time      0.5113
    CORREC:  cpu time      0.9420: real time      0.9426
    CHARGE:  cpu time      0.2010: real time      0.2016
    --------------------------------------------
      LOOP:  cpu time      2.2822: real time      2.2843

 eigenvalue-minimisations  :     0
 total energy-change (2. order) :-0.6709673E-05  (-0.2943460E-05)
 number of electron      42.0000000 magnetization 
 augmentation part        0.0221566 magnetization 

 Free energy of the ion-electron system (eV)
  ---------------------------------------------------
  alpha Z        PSCENC =         0.49439650
  Ewald energy   TEWEN  =      3396.28928168
  -Hartree energ DENC   =     -5066.06012301
  -exchange      EXHF   =         0.00000000
  -V(xc)+E(xc)   XCENC  =       129.19029029
  PAW double counting   =     23738.82634044   -23715.70048377
  entropy T*S    EENTRO =        -0.00000000
  eigenvalues    EBANDS =      -593.94199326
  atomic energy  EATOM  =      2031.13482597
  ---------------------------------------------------
  free energy    TOTEN  =       -79.76746516 eV

  energy without entropy =      -79.76746516  energy(sigma->0) =      -79.76746516


--------------------------------------------------------------------------------------------------------




--------------------------------------- Iteration      1(  22)  ---------------------------------------


    POTLOK:  cpu time      0.5947: real time      0.5950
    SETDIJ:  cpu time      0.0034: real time      0.0034
    TRIAL :  cpu time      0.5102: real time      0.5107
    CORREC:  cpu time      0.9396: real time      0.9403
    CHARGE:  cpu time      0.2014: real time      0.2015
    --------------------------------------------
      LOOP:  cpu time      2.2661: real time      2.2822

 eigenvalue-minimisations  :     0
 total energy-change (2. order) :-0.2918528E-05  (-0.1406774E-05)
 number of electron      42.0000000 magnetization 
 augmentation part        0.0221559 magnetization 

 Free energy of the ion-electron system (eV)
  ---------------------------------------------------
  alpha Z        PSCENC =         0.49439650
  Ewald energy   TEWEN  =      3396.28928168
  -Hartree energ DENC   =     -5066.04759139
  -exchange      EXHF   =         0.00000000
  -V(xc)+E(xc)   XCENC  =       129.19001080
  PAW double counting   =     23740.78635519   -23717.66054359
  entropy T*S    EENTRO =        -0.00000000
  eigenvalues    EBANDS =      -593.95420325
  atomic energy  EATOM  =      2031.13482597
  ---------------------------------------------------
  free energy    TOTEN  =       -79.76746808 eV

  energy without entropy =      -79.76746808  energy(sigma->0) =      -79.76746808


--------------------------------------------------------------------------------------------------------




--------------------------------------- Iteration      1(  23)  ---------------------------------------


    POTLOK:  cpu time      0.5903: real time      0.5905
    SETDIJ:  cpu time      0.0048: real time      0.0048
    TRIAL :  cpu time      0.5133: real time      0.5133
    CORREC:  cpu time      0.9400: real time      0.9407
    CHARGE:  cpu time      0.2003: real time      0.2004
    --------------------------------------------
      LOOP:  cpu time      2.2655: real time      2.2819

 eigenvalue-minimisations  :     0
 total energy-change (2. order) :-0.1396602E-05  (-0.6557752E-06)
 number of electron      42.0000000 magnetization 
 augmentation part        0.0221607 magnetization 

 Free energy of the ion-electron system (eV)
  ---------------------------------------------------
  alpha Z        PSCENC =         0.49439650
  Ewald energy   TEWEN  =      3396.28928168
  -Hartree energ DENC   =     -5066.04143874
  -exchange      EXHF   =         0.00000000
  -V(xc)+E(xc)   XCENC  =       129.18977508
  PAW double counting   =     23741.14126612   -23718.01546059
  entropy T*S    EENTRO =        -0.00000000
  eigenvalues    EBANDS =      -593.96011549
  atomic energy  EATOM  =      2031.13482597
  ---------------------------------------------------
  free energy    TOTEN  =       -79.76746948 eV

  energy without entropy =      -79.76746948  energy(sigma->0) =      -79.76746948


--------------------------------------------------------------------------------------------------------




--------------------------------------- Iteration      1(  24)  ---------------------------------------


    POTLOK:  cpu time      0.5930: real time      0.5934
    SETDIJ:  cpu time      0.0026: real time      0.0026
    TRIAL :  cpu time      0.5108: real time      0.5109
    CORREC:  cpu time      0.9415: real time      0.9421
    CHARGE:  cpu time      0.2000: real time      0.2002
    --------------------------------------------
      LOOP:  cpu time      2.2652: real time      2.2812

 eigenvalue-minimisations  :     0
 total energy-change (2. order) :-0.6540940E-06  (-0.2590838E-06)
 number of electron      42.0000000 magnetization 
 augmentation part        0.0221615 magnetization 

 Free energy of the ion-electron system (eV)
  ---------------------------------------------------
  alpha Z        PSCENC =         0.49439650
  Ewald energy   TEWEN  =      3396.28928168
  -Hartree energ DENC   =     -5066.04711902
  -exchange      EXHF   =         0.00000000
  -V(xc)+E(xc)   XCENC  =       129.18995409
  PAW double counting   =     23740.57146728   -23717.44570541
  entropy T*S    EENTRO =        -0.00000000
  eigenvalues    EBANDS =      -593.95457122
  atomic energy  EATOM  =      2031.13482597
  ---------------------------------------------------
  free energy    TOTEN  =       -79.76747013 eV

  energy without entropy =      -79.76747013  energy(sigma->0) =      -79.76747013


--------------------------------------------------------------------------------------------------------




--------------------------------------- Iteration      1(  25)  ---------------------------------------


    POTLOK:  cpu time      0.5928: real time      0.5929
    SETDIJ:  cpu time      0.0033: real time      0.0033
    TRIAL :  cpu time      0.5118: real time      0.5122
    CORREC:  cpu time      0.9492: real time      0.9499
    CHARGE:  cpu time      0.2021: real time      0.2022
    --------------------------------------------
      LOOP:  cpu time      2.2734: real time      2.2913

 eigenvalue-minimisations  :     0
 total energy-change (2. order) :-0.2654197E-06  (-0.1038919E-06)
 number of electron      42.0000000 magnetization 
 augmentation part        0.0221648 magnetization 

 Free energy of the ion-electron system (eV)
  ---------------------------------------------------
  alpha Z        PSCENC =         0.49439650
  Ewald energy   TEWEN  =      3396.28928168
  -Hartree energ DENC   =     -5066.04294230
  -exchange      EXHF   =         0.00000000
  -V(xc)+E(xc)   XCENC  =       129.18977438
  PAW double counting   =     23740.05103716   -23716.92526389
  entropy T*S    EENTRO =        -0.00000000
  eigenvalues    EBANDS =      -593.95857989
  atomic energy  EATOM  =      2031.13482597
  ---------------------------------------------------
  free energy    TOTEN  =       -79.76747040 eV

  energy without entropy =      -79.76747040  energy(sigma->0) =      -79.76747040


--------------------------------------------------------------------------------------------------------




--------------------------------------- Iteration      1(  26)  ---------------------------------------


    POTLOK:  cpu time      0.5920: real time      0.5923
    SETDIJ:  cpu time      0.0048: real time      0.0048
    TRIAL :  cpu time      0.5103: real time      0.5111
    CORREC:  cpu time      0.9402: real time      0.9409
    CHARGE:  cpu time      0.2007: real time      0.2008
    --------------------------------------------
      LOOP:  cpu time      2.2785: real time      2.2805

 eigenvalue-minimisations  :     0
 total energy-change (2. order) :-0.1059489E-06  (-0.3855391E-07)
 number of electron      42.0000000 magnetization 
 augmentation part        0.0221664 magnetization 

 Free energy of the ion-electron system (eV)
  ---------------------------------------------------
  alpha Z        PSCENC =         0.49439650
  Ewald energy   TEWEN  =      3396.28928168
  -Hartree energ DENC   =     -5066.04442878
  -exchange      EXHF   =         0.00000000
  -V(xc)+E(xc)   XCENC  =       129.18983676
  PAW double counting   =     23739.75228004   -23716.62652106
  entropy T*S    EENTRO =        -0.00000000
  eigenvalues    EBANDS =      -593.95714162
  atomic energy  EATOM  =      2031.13482597
  ---------------------------------------------------
  free energy    TOTEN  =       -79.76747050 eV

  energy without entropy =      -79.76747050  energy(sigma->0) =      -79.76747050


--------------------------------------------------------------------------------------------------------




--------------------------------------- Iteration      1(  27)  ---------------------------------------


    POTLOK:  cpu time      0.5942: real time      0.5947
    SETDIJ:  cpu time      0.0018: real time      0.0018
    TRIAL :  cpu time      0.5133: real time      0.5133
    CORREC:  cpu time      0.9393: real time      0.9399
    EDDIAG:  cpu time      0.2245: real time      0.2246
    CHARGE:  cpu time      0.2007: real time      0.2010
    --------------------------------------------
      LOOP:  cpu time      2.4872: real time      2.5058

 eigenvalue-minimisations  :     0
 total energy-change (2. order) :-0.3769310E-07  (-0.1442948E-07)
 number of electron      42.0000000 magnetization 
 augmentation part        0.0221671 magnetization 

 Free energy of the ion-electron system (eV)
  ---------------------------------------------------
  alpha Z        PSCENC =         0.49439650
  Ewald energy   TEWEN  =      3396.28928168
  -Hartree energ DENC   =     -5066.04539563
  -exchange      EXHF   =         0.00000000
  -V(xc)+E(xc)   XCENC  =       129.18986385
  PAW double counting   =     23739.64556809   -23716.51980983
  entropy T*S    EENTRO =        -0.00000000
  eigenvalues    EBANDS =      -593.95620118
  atomic energy  EATOM  =      2031.13482597
  ---------------------------------------------------
  free energy    TOTEN  =       -79.76747054 eV

  energy without entropy =      -79.76747054  energy(sigma->0) =      -79.76747054


--------------------------------------------------------------------------------------------------------


  average scaling for gradient   1.0030


 average (electrostatic) potential at core
  the test charge radii are     0.5770  0.4325  0.5902  0.5955
  (the norm of the test charge is              1.0000)
       1 -90.0449       2 -89.1660       3 -86.8732       4 -88.4320       5 -48.0022
       6 -48.5749       7 -45.8569       8 -46.6782       9-105.8540      10-105.3460
      11-118.9914      12-119.2151



 E-fermi :  -6.0533     XC(G=0):  -0.1844     alpha+bet : -0.0826

 Fermi energy:        -6.0533380908

 k-point     1 :       0.0000    0.0000    0.0000
  band No.  band energies     occupation 
      1     -27.0985      2.00000
      2     -26.1517      2.00000
      3     -24.6505      2.00000
      4     -23.2517      2.00000
      5     -19.9689      2.00000
      6     -17.2928      2.00000
      7     -16.5544      2.00000
      8     -14.9403      2.00000
      9     -13.8799      2.00000
     10     -12.9434      2.00000
     11     -11.8760      2.00000
     12     -11.5926      2.00000
     13     -11.0037      2.00000
     14     -10.2998      2.00000
     15     -10.1088      2.00000
     16      -9.9688      2.00000
     17      -9.1346      2.00000
     18      -6.9821      2.00000
     19      -6.9364      2.00000
     20      -6.2384      2.00000
     21      -6.1047      2.00000
     22      -2.2664      0.00000
     23      -1.0202      0.00000
     24      -0.9871      0.00000
     25      -0.2485      0.00000
     26      -0.1699      0.00000
     27       0.0795      0.00000
     28       0.1081      0.00000
     29       0.2967      0.00000
     30       0.3444      0.00000
     31       0.3989      0.00000
     32       0.4142      0.00000


--------------------------------------------------------------------------------------------------------


 soft charge-density along one line, spin component           1
         0         1         2         3         4         5         6         7         8         9
 total charge-density along one line

 pseudopotential strength for first ion, spin component:           1
 12.876  21.673   0.008   0.000   0.003   0.014   0.000   0.005
 21.673  36.478   0.013   0.000   0.004   0.024   0.000   0.008
  0.008   0.013  -3.166  -0.000  -0.000  -5.679  -0.000  -0.000
  0.000   0.000  -0.000  -3.166  -0.000  -0.000  -5.679  -0.000
  0.003   0.004  -0.000  -0.000  -3.165  -0.000  -0.000  -5.678
  0.014   0.024  -5.679  -0.000  -0.000 -10.165  -0.000  -0.000
  0.000   0.000  -0.000  -5.679  -0.000  -0.000 -10.164  -0.000
  0.005   0.008  -0.000  -0.000  -5.678  -0.000  -0.000 -10.164
 total augmentation occupancy for first ion, spin component:           1
  9.415  -3.627  -1.404   0.001  -0.699   0.658  -0.001   0.330
 -3.627   1.485   0.655  -0.001   0.335  -0.320   0.000  -0.162
 -1.404   0.655   9.565  -0.003   1.247  -3.593   0.001  -0.543
  0.001  -0.001  -0.003   3.378  -0.001   0.001  -0.931   0.000
 -0.699   0.335   1.247  -0.001   8.026  -0.543   0.000  -2.912
  0.658  -0.320  -3.593   0.001  -0.543   1.384  -0.000   0.241
 -0.001   0.000   0.001  -0.931   0.000  -0.000   0.259  -0.000
  0.330  -0.162  -0.543   0.000  -2.912   0.241  -0.000   1.079


------------------------ aborting loop because EDIFF is reached ----------------------------------------


    FORLOC:  cpu time      0.0443: real time      0.0443
    FORNL :  cpu time      0.0379: real time      0.0379
    FORCOR:  cpu time      0.5221: real time      0.5221
    OFIELD:  cpu time      0.0045: real time      0.0045

 ---------------------------------------------------------------------------------------------

         DFTD3 V3.0 Rev 1        
 IVDW         = 11
 DF revpbe    
 parameters
 VDW_S6       =    1.0000
 VDW_S8       =    1.0100
 VDW_SR       =    0.9230
 rs18     =    1.0000
 alpha6   =   14.0000
 alpha8   =   16.0000
 k1-k3    =   16.0000    1.3333   -4.0000
 VDW_RADIUS   =   50.2022 A
 VDW_CNRADIUS =   21.1671 A
 Edisp (eV)   -0.33067

 E6    (eV) :    -0.2336
 E8    (eV) :    -0.0971
 % E8        : 29.36
    FORVDW:  cpu time      0.0633: real time      0.0633

 VOLUME and BASIS-vectors are now :
 -----------------------------------------------------------------------------
  energy-cutoff  :     1000.00
  volume of cell :    10648.00
      direct lattice vectors                 reciprocal lattice vectors
    22.000000000  0.000000000  0.000000000     0.045454545  0.000000000  0.000000000
     0.000000000 22.000000000  0.000000000     0.000000000  0.045454545  0.000000000
     0.000000000  0.000000000 22.000000000     0.000000000  0.000000000  0.045454545

  length of vectors
    22.000000000 22.000000000 22.000000000     0.045454545  0.045454545  0.045454545


 FORCES acting on ions:
    Electron-Ion                     Ewald-Force                    Non-Local-Force
 -----------------------------------------------------------------------------------------------
   0.337E+02 0.388E+02 0.370E-01   -.357E+02 -.443E+02 -.377E-01   0.213E+01 0.586E+01 0.221E-02
   -.352E+02 -.530E+02 0.129E+00   0.373E+02 0.596E+02 -.129E+00   -.233E+01 -.686E+01 0.244E-02
   -.636E+02 -.209E+03 0.164E+00   0.645E+02 0.211E+03 -.166E+00   -.705E+00 -.178E+01 0.190E-02
   0.115E+03 -.207E+03 0.157E+00   -.109E+03 0.214E+03 -.163E+00   -.601E+01 -.756E+01 0.706E-02
   -.607E+02 0.935E+02 0.759E-01   0.648E+02 -.998E+02 -.798E-01   -.411E+01 0.630E+01 0.601E-02
   0.111E+03 -.335E+01 0.746E-01   -.119E+03 0.260E+01 -.799E-01   0.757E+01 0.755E+00 0.619E-02
   -.320E+02 -.844E+02 0.246E-01   0.347E+02 0.898E+02 -.255E-01   -.268E+01 -.528E+01 0.443E-03
   0.520E+02 -.745E+02 0.291E-01   -.557E+02 0.793E+02 -.309E-01   0.358E+01 -.477E+01 0.121E-02
   0.247E+03 -.610E+02 -.660E-01   -.249E+03 0.595E+02 0.991E-01   0.127E+01 0.157E+01 -.352E-01
   -.124E+03 0.171E+03 -.439E-01   0.127E+03 -.170E+03 0.644E-01   -.299E+01 -.123E+01 -.236E-01
   -.416E+03 -.239E+02 -.292E+00   0.470E+03 0.245E+02 0.345E+00   -.536E+02 -.631E+00 -.544E-01
   0.205E+03 0.379E+03 -.174E+00   -.230E+03 -.428E+03 0.203E+00   0.251E+02 0.489E+02 -.310E-01
 -----------------------------------------------------------------------------------------------
   0.327E+02 -.353E+02 0.117E+00   -.284E-13 -.114E-12 -.278E-16   -.327E+02 0.353E+02 -.117E+00


 POSITION                                       TOTAL-FORCE (eV/Angst)
 -----------------------------------------------------------------------------------
     10.18885      9.77116     11.00021         0.024794      0.007886      0.001543
     12.29376     11.15610     11.00006         0.006331     -0.051841      0.002679
     11.45036     12.33995     10.99914         0.128881      0.187423      0.000317
     10.10477     12.21264     10.99909        -0.205905      0.062793      0.000953
     12.11392      9.08670     10.99942        -0.006873     -0.003680      0.002191
      8.48348     10.89749     10.99908        -0.016864     -0.009213      0.000910
     11.93069     13.31037     10.99904         0.051024      0.093103     -0.000427
      9.43296     13.06644     10.99885        -0.076215      0.106202     -0.000593
      9.49330     10.98327     10.99992        -0.194552      0.069276     -0.001704
     11.56305      9.94220     11.00020         0.095676     -0.116677     -0.002861
     13.51652     11.13553     11.00115         0.376102      0.011836     -0.001747
      9.62653      8.68963     11.00078        -0.182400     -0.357110     -0.001261
 -----------------------------------------------------------------------------------
    total drift:                               -0.000110      0.000425      0.000167


--------------------------------------------------------------------------------------------------------



  FREE ENERGIE OF THE ION-ELECTRON SYSTEM (eV)
  ---------------------------------------------------
  free  energy   TOTEN  =       -80.09814176 eV

  energy  without entropy=      -80.09814176  energy(sigma->0) =      -80.09814176



--------------------------------------------------------------------------------------------------------


    POTLOK:  cpu time      0.6334: real time      0.6337


--------------------------------------------------------------------------------------------------------


 stress matrix after NEB project (eV)
      0.08549      0.03084      0.00000
      0.03084      0.12510     -0.00005
      0.00000     -0.00005     -0.00007
  FORCES: max atom, RMS     0.400997    0.203738
  FORCE total and by dimension    0.705770    0.376102
  Stress total and by dimension    0.157674    0.125105
     LOOP+:  cpu time     58.3013: real time     58.6609
    4ORBIT:  cpu time      0.0000: real time      0.0000

 total amount of memory used by VASP MPI-rank0   114267. kBytes
=======================================================================

   base      :      30000. kBytes
   nonl-proj :       5347. kBytes
   fftplans  :      24880. kBytes
   grid      :      51747. kBytes
   one-center:          1. kBytes
   wavefun   :       2292. kBytes

  
  
 General timing and accounting informations for this job:
 ========================================================
  
                  Total CPU time used (sec):       86.823
                            User time (sec):       83.390
                          System time (sec):        3.433
                         Elapsed time (sec):       95.089
  
                   Maximum memory used (kb):      303848.
                   Average memory used (kb):          N/A
  
                          Minor page faults:       253886
                          Major page faults:          621
                 Voluntary context switches:         7795
