 vasp.6.4.1 05Apr23 (build Jun  6 2023 14:46:38) gamma-only                      
 executed on        HPECrayEX_GCC date 2024.08.22  08:37:36
 running  512 mpi-ranks, with    1 threads/rank, on    4 nodes
 distrk:  each k-point on  512 cores,    1 groups
 distr:  one band on NCORE=   2 cores,  256 groups


--------------------------------------------------------------------------------------------------------


 INCAR:
   ALGO = Conjugate
   NCORE = 2
   PREC = Accurate
   EDIFF = 1E-7
   ENCUT = 1000
   ISMEAR = 0
   SIGMA = 0.01
   ISIF = 0
   SYMPREC = 1E-7
   GGA = RP
   IVDW = 11
   LWAVE = .FALSE.
   LCHARG = .FALSE.
   LWAVE = .FALSE.
   LCHARG = .FALSE.

 POTCAR:    PAW_PBE C_h 06Feb2004                 
 POTCAR:    PAW_PBE H_h 06Feb2004                 
 POTCAR:    PAW_PBE N_h 06Feb2004                 
 POTCAR:    PAW_PBE O_h 06Feb2004                 
 POTCAR:    PAW_PBE C_h 06Feb2004                 
   VRHFIN =C: s2p2                                                                                  
   LEXCH  = PE                                                                                      
   EATOM  =   147.1560 eV,   10.8157 Ry                                                             
                                                                                                    
   TITEL  = PAW_PBE C_h 06Feb2004                                                                   
   LULTRA =        F    use ultrasoft PP ?                                                          
   IUNSCR =        1    unscreen: 0-lin 1-nonlin 2-no                                               
   RPACOR =    0.800    partial core radius                                                         
   POMASS =   12.011; ZVAL   =    4.000    mass and valenz                                          
   RCORE  =    1.100    outmost cutoff radius                                                       
   RWIGS  =    1.630; RWIGS  =    0.863    wigner-seitz radius (au A)                               
   ENMAX  =  700.000; ENMIN  =  500.000 eV                                                          
   ICORE  =        2    local potential                                                             
   LCOR   =        T    correct aug charges                                                         
   LPAW   =        T    paw PP                                                                      
   EAUG   =  946.768                                                                                
   DEXC   =    0.000                                                                                
   RMAX   =    1.128    core radius for proj-oper                                                   
   RAUG   =    1.300    factor for augmentation sphere                                              
   RDEP   =    1.162    radius for radial grids                                                     
   RDEPT  =    1.088    core radius for aug-charge                                                  
                                                                                                    
   Atomic configuration                                                                             
    4 entries                                                                                       
     n  l   j            E        occ.                                                              
     1  0  0.50      -273.3789   2.0000                                                             
     2  0  0.50       -13.7508   2.0000                                                             
     2  1  0.50        -5.2854   2.0000                                                             
     3  2  1.50        -5.4423   0.0000                                                             
   Description                                                                                      
     l       E           TYP  RCUT    TYP  RCUT                                                     
     0    -13.7508458     23  1.100                                                                 
     0     -8.2022199     23  1.100                                                                 
     1     -5.2854383     23  1.100                                                                 
     1      1.1560700     23  1.100                                                                 
     2     -5.4423304      7  1.100                                                                 
  local pseudopotential read in
  partial core-charges read in
  partial kinetic energy density read in
  atomic valenz-charges read in
  non local Contribution for L=           0  read in
    real space projection operators read in
  non local Contribution for L=           0  read in
    real space projection operators read in
  non local Contribution for L=           1  read in
    real space projection operators read in
  non local Contribution for L=           1  read in
    real space projection operators read in
    PAW grid and wavefunctions read in

   number of l-projection  operators is LMAX  =           4
   number of lm-projection operators is LMMAX =           8

 POTCAR:    PAW_PBE H_h 06Feb2004                 
   VRHFIN =H: ultrasoft test                                                                        
   LEXCH  = PE                                                                                      
   EATOM  =    12.4884 eV,    0.9179 Ry                                                             
                                                                                                    
   TITEL  = PAW_PBE H_h 06Feb2004                                                                   
   LULTRA =        F    use ultrasoft PP ?                                                          
   IUNSCR =        0    unscreen: 0-lin 1-nonlin 2-no                                               
   RPACOR =    0.000    partial core radius                                                         
   POMASS =    1.000; ZVAL   =    1.000    mass and valenz                                          
   RCORE  =    0.800    outmost cutoff radius                                                       
   RWIGS  =    0.700; RWIGS  =    0.370    wigner-seitz radius (au A)                               
   ENMAX  =  700.000; ENMIN  =  350.000 eV                                                          
   RCLOC  =    0.701    cutoff for local pot                                                        
   LCOR   =        T    correct aug charges                                                         
   LPAW   =        T    paw PP                                                                      
   EAUG   = 1000.000                                                                                
   RMAX   =    0.819    core radius for proj-oper                                                   
   RAUG   =    1.000    factor for augmentation sphere                                              
   RDEP   =    0.817    radius for radial grids                                                     
   RDEPT  =    0.817    core radius for aug-charge                                                  
                                                                                                    
   Atomic configuration                                                                             
    2 entries                                                                                       
     n  l   j            E        occ.                                                              
     1  0  0.50        -6.4927   1.0000                                                             
     2  1  0.50        -3.4015   0.0000                                                             
   Description                                                                                      
     l       E           TYP  RCUT    TYP  RCUT                                                     
     0     -6.4927493     23  0.800                                                                 
     0      6.8029130     23  0.800                                                                 
     1     -6.8029130     23  0.800                                                                 
  local pseudopotential read in
  atomic valenz-charges read in
  non local Contribution for L=           0  read in
    real space projection operators read in
  non local Contribution for L=           0  read in
    real space projection operators read in
  non local Contribution for L=           1  read in
    real space projection operators read in
    PAW grid and wavefunctions read in

   number of l-projection  operators is LMAX  =           3
   number of lm-projection operators is LMMAX =           5

 POTCAR:    PAW_PBE N_h 06Feb2004                 
   VRHFIN =N: s2p3                                                                                  
   LEXCH  = PE                                                                                      
   EATOM  =   264.5486 eV,   19.4438 Ry                                                             
                                                                                                    
   TITEL  = PAW_PBE N_h 06Feb2004                                                                   
   LULTRA =        F    use ultrasoft PP ?                                                          
   IUNSCR =        1    unscreen: 0-lin 1-nonlin 2-no                                               
   RPACOR =    0.800    partial core radius                                                         
   POMASS =   14.001; ZVAL   =    5.000    mass and valenz                                          
   RCORE  =    1.100    outmost cutoff radius                                                       
   RWIGS  =    1.480; RWIGS  =    0.783    wigner-seitz radius (au A)                               
   ENMAX  =  700.000; ENMIN  =  500.000 eV                                                          
   ICORE  =        2    local potential                                                             
   LCOR   =        T    correct aug charges                                                         
   LPAW   =        T    paw PP                                                                      
   EAUG   =  904.640                                                                                
   DEXC   =    0.000                                                                                
   RMAX   =    1.127    core radius for proj-oper                                                   
   RAUG   =    1.300    factor for augmentation sphere                                              
   RDEP   =    1.115    radius for radial grids                                                     
   RDEPT  =    1.106    core radius for aug-charge                                                  
                                                                                                    
   Atomic configuration                                                                             
    4 entries                                                                                       
     n  l   j            E        occ.                                                              
     1  0  0.50      -384.7179   2.0000                                                             
     2  0  0.50       -18.5828   2.0000                                                             
     2  1  0.50        -7.0898   3.0000                                                             
     3  2  1.50        -6.8029   0.0000                                                             
   Description                                                                                      
     l       E           TYP  RCUT    TYP  RCUT                                                     
     0    -18.5828117     23  1.100                                                                 
     0    -15.0750597     23  1.100                                                                 
     1     -7.0897851     23  1.100                                                                 
     1     -1.9663412     23  1.100                                                                 
     2     -6.8029130      7  1.100                                                                 
  local pseudopotential read in
  partial core-charges read in
  partial kinetic energy density read in
  kinetic energy density of atom read in
  atomic valenz-charges read in
  non local Contribution for L=           0  read in
    real space projection operators read in
  non local Contribution for L=           0  read in
    real space projection operators read in
  non local Contribution for L=           1  read in
    real space projection operators read in
  non local Contribution for L=           1  read in
    real space projection operators read in
    PAW grid and wavefunctions read in

   number of l-projection  operators is LMAX  =           4
   number of lm-projection operators is LMMAX =           8

 POTCAR:    PAW_PBE O_h 06Feb2004                 
   VRHFIN =O: s2p4                                                                                  
   LEXCH  = PE                                                                                      
   EATOM  =   432.3788 eV,   31.7789 Ry                                                             
                                                                                                    
   TITEL  = PAW_PBE O_h 06Feb2004                                                                   
   LULTRA =        F    use ultrasoft PP ?                                                          
   IUNSCR =        1    unscreen: 0-lin 1-nonlin 2-no                                               
   RPACOR =    0.800    partial core radius                                                         
   POMASS =   16.000; ZVAL   =    6.000    mass and valenz                                          
   RCORE  =    1.100    outmost cutoff radius                                                       
   RWIGS  =    1.400; RWIGS  =    0.741    wigner-seitz radius (au A)                               
   ENMAX  =  700.000; ENMIN  =  500.000 eV                                                          
   ICORE  =        2    local potential                                                             
   LCOR   =        T    correct aug charges                                                         
   LPAW   =        T    paw PP                                                                      
   EAUG   =  888.804                                                                                
   DEXC   =    0.000                                                                                
   RMAX   =    1.128    core radius for proj-oper                                                   
   RAUG   =    1.300    factor for augmentation sphere                                              
   RDEP   =    1.125    radius for radial grids                                                     
   RDEPT  =    1.088    core radius for aug-charge                                                  
                                                                                                    
   Atomic configuration                                                                             
    4 entries                                                                                       
     n  l   j            E        occ.                                                              
     1  0  0.50      -514.6923   2.0000                                                             
     2  0  0.50       -23.9615   2.0000                                                             
     2  1  0.50        -9.0305   4.0000                                                             
     3  2  1.50        -9.5241   0.0000                                                             
   Description                                                                                      
     l       E           TYP  RCUT    TYP  RCUT                                                     
     0    -23.9615319     23  1.100                                                                 
     0    -25.3221145     23  1.100                                                                 
     1     -9.0304911     23  1.100                                                                 
     1     -5.4802209     23  1.100                                                                 
     2     -9.5240782      7  1.100                                                                 
  local pseudopotential read in
  partial core-charges read in
  partial kinetic energy density read in
  atomic valenz-charges read in
  non local Contribution for L=           0  read in
    real space projection operators read in
  non local Contribution for L=           0  read in
    real space projection operators read in
  non local Contribution for L=           1  read in
    real space projection operators read in
  non local Contribution for L=           1  read in
    real space projection operators read in
    PAW grid and wavefunctions read in

   number of l-projection  operators is LMAX  =           4
   number of lm-projection operators is LMMAX =           8

 -----------------------------------------------------------------------------
|                                                                             |
|               ----> ADVICE to this user running VASP <----                  |
|                                                                             |
|     You enforced a specific xc type in the INCAR file but a different       |
|     type was found in the POTCAR file.                                      |
|     I HOPE YOU KNOW WHAT YOU ARE DOING!                                     |
|                                                                             |
 -----------------------------------------------------------------------------

  PAW_PBE C_h 06Feb2004                 :
 energy of atom  1       EATOM= -147.1560
 kinetic energy error for atom=    0.0031 (will be added to EATOM!!)
  PAW_PBE H_h 06Feb2004                 :
 energy of atom  2       EATOM=  -12.4884
 kinetic energy error for atom=    0.0006 (will be added to EATOM!!)
  PAW_PBE N_h 06Feb2004                 :
 energy of atom  3       EATOM= -264.5486
 kinetic energy error for atom=    0.0081 (will be added to EATOM!!)
  PAW_PBE O_h 06Feb2004                 :
 energy of atom  4       EATOM= -432.3788
 kinetic energy error for atom=    0.0171 (will be added to EATOM!!)


 POSCAR:  C  H  N  O
  positions in cartesian coordinates
  No initial velocities read in
 exchange correlation table for  LEXCH =        9
   RHO(1)=    0.500       N(1)  =     2000
   RHO(2)=  100.500       N(2)  =     4000

 VTST: version 4.1, (05/19/21)

 CHAIN: initializing optimizer
 
 OPT: Using VASP Dynamics algorithm
 CHAIN: Read ICHAIN            0

 POSCAR:  C  H  N  O
  positions in cartesian coordinates
  No initial velocities read in



--------------------------------------------------------------------------------------------------------


 ion  position               nearest neighbor table
   1  0.463  0.444  0.500-  12 1.22  10 1.38   9 1.40
   2  0.559  0.507  0.500-  11 1.22  10 1.42   3 1.45
   3  0.520  0.561  0.500-   7 1.08   4 1.35   2 1.45
   4  0.459  0.555  0.500-   8 1.09   3 1.35   9 1.37
   5  0.551  0.413  0.500-  10 1.02
   6  0.386  0.495  0.500-   9 1.01
   7  0.542  0.605  0.500-   3 1.08
   8  0.429  0.594  0.500-   4 1.09
   9  0.432  0.499  0.500-   6 1.01   4 1.37   1 1.40
  10  0.526  0.452  0.500-   5 1.02   1 1.38   2 1.42
  11  0.614  0.506  0.500-   2 1.22
  12  0.438  0.395  0.500-   1 1.22

  LATTYP: Found a simple cubic cell.
 ALAT       =    22.0000000000
  
  Lattice vectors:
  
 A1 = (  22.0000000000,   0.0000000000,   0.0000000000)
 A2 = (   0.0000000000,  22.0000000000,   0.0000000000)
 A3 = (   0.0000000000,   0.0000000000,  22.0000000000)


Analysis of symmetry for initial positions (statically):
=====================================================================
 Subroutine PRICEL returns:
 Original cell was already a primitive cell.
 

 Routine SETGRP: Setting up the symmetry group for a 
 simple cubic supercell.


 Subroutine GETGRP returns: Found  1 space group operations
 (whereof  1 operations were pure point group operations)
 out of a pool of 48 trial point group operations.


The static configuration has the point symmetry C_1 .


Analysis of symmetry for dynamics (positions and initial velocities):
=====================================================================
 Subroutine PRICEL returns:
 Original cell was already a primitive cell.
 

 Routine SETGRP: Setting up the symmetry group for a 
 simple cubic supercell.


 Subroutine GETGRP returns: Found  1 space group operations
 (whereof  1 operations were pure point group operations)
 out of a pool of 48 trial point group operations.


The dynamic configuration has the point symmetry C_1 .


 Subroutine INISYM returns: Found  1 space group operations
 (whereof  1 operations are pure point group operations),
 and found     1 'primitive' translations


----------------------------------------------------------------------------------------

                                     Primitive cell                                     

  volume of cell :   10648.0000

  direct lattice vectors                    reciprocal lattice vectors
    22.000000000  0.000000000  0.000000000     0.045454545  0.000000000  0.000000000
     0.000000000 22.000000000  0.000000000     0.000000000  0.045454545  0.000000000
     0.000000000  0.000000000 22.000000000     0.000000000  0.000000000  0.045454545

  length of vectors
    22.000000000 22.000000000 22.000000000     0.045454545  0.045454545  0.045454545

  position of ions in fractional coordinates (direct lattice)
     0.463129545  0.444143864  0.500009545
     0.558807273  0.507095682  0.500002727
     0.520470909  0.560906591  0.499960909
     0.459307727  0.555119773  0.499958636
     0.550632727  0.413032045  0.499973636
     0.385612727  0.495340227  0.499958182
     0.542304091  0.605017045  0.499956364
     0.428770909  0.593928864  0.499947727
     0.431513636  0.499239318  0.499996364
     0.525593182  0.451918409  0.500009091
     0.614387273  0.506160682  0.500052273
     0.437569545  0.394982955  0.500035455

  ion indices of the primitive-cell ions
   primitive index   ion index
                 1           1
                 2           2
                 3           3
                 4           4
                 5           5
                 6           6
                 7           7
                 8           8
                 9           9
                10          10
                11          11
                12          12

----------------------------------------------------------------------------------------



 KPOINTS: auto                                    

Automatic generation of k-mesh.
 Grid dimensions read from file:
 generate k-points for:    1    1    1

 Generating k-lattice:

  Cartesian coordinates                     Fractional coordinates (reciprocal lattice)
     0.045454545  0.000000000  0.000000000     1.000000000  0.000000000  0.000000000
     0.000000000  0.045454545  0.000000000     0.000000000  1.000000000  0.000000000
     0.000000000  0.000000000  0.045454545     0.000000000  0.000000000  1.000000000

  Length of vectors
     0.045454545  0.045454545  0.045454545

  Shift w.r.t. Gamma in fractional coordinates (k-lattice)
     0.000000000  0.000000000  0.000000000

 
 Subroutine IBZKPT returns following result:
 ===========================================
 
 Found      1 irreducible k-points:
 
 Following reciprocal coordinates:
            Coordinates               Weight
  0.000000  0.000000  0.000000      1.000000
 
 Following cartesian coordinates:
            Coordinates               Weight
  0.000000  0.000000  0.000000      1.000000
 


--------------------------------------------------------------------------------------------------------




 Dimension of arrays:
   k-points           NKPTS =      1   k-points in BZ     NKDIM =      1   number of bands    NBANDS=    256
   number of dos      NEDOS =    301   number of ions     NIONS =     12
   non local maximal  LDIM  =      4   non local SUM 2l+1 LMDIM =      8
   total plane-waves  NPLWV = ******
   max r-space proj   IRMAX =      1   max aug-charges    IRDMAX=   9667
   dimension x,y,z NGX =   240 NGY =  240 NGZ =  240
   dimension x,y,z NGXF=   480 NGYF=  480 NGZF=  480
   support grid    NGXF=   480 NGYF=  480 NGZF=  480
   ions per type =               4   4   2   2
   NGX,Y,Z   is equivalent  to a cutoff of  18.14, 18.14, 18.14 a.u.
   NGXF,Y,Z  is equivalent  to a cutoff of  36.27, 36.27, 36.27 a.u.

 SYSTEM =  unknown system                          
 POSCAR =   C  H  N  O                             

 Startparameter for this run:
   NWRITE =      2    write-flag & timer
   PREC   = accura    normal or accurate (medium, high low for compatibility)
   ISTART =      0    job   : 0-new  1-cont  2-samecut
   ICHARG =      2    charge: 1-file 2-atom 10-const
   ISPIN  =      1    spin polarized calculation?
   LNONCOLLINEAR =      F non collinear calculations
   LSORBIT =      F    spin-orbit coupling
   INIWAV =      1    electr: 0-lowe 1-rand  2-diag
   LASPH  =      F    aspherical Exc in radial PAW
 Electronic Relaxation 1
   ENCUT  = 1000.0 eV  73.50 Ry    8.57 a.u.  56.73 56.73 56.73*2*pi/ulx,y,z
   ENINI  = 1000.0     initial cutoff
   ENAUG  = 1000.0 eV  augmentation charge cutoff
   NELM   =     60;   NELMIN=  2; NELMDL= -5     # of ELM steps 
   EDIFF  = 0.1E-06   stopping-criterion for ELM
   LREAL  =      F    real-space projection
   NLSPLINE    = F    spline interpolate recip. space projectors
   LCOMPAT=      F    compatible to vasp.4.4
   GGA_COMPAT  = T    GGA compatible to vasp.4.4-vasp.4.6
   LMAXPAW     = -100 max onsite density
   LMAXMIX     =    2 max onsite mixed and CHGCAR
   VOSKOWN=      0    Vosko Wilk Nusair interpolation
   ROPT   =    0.00000   0.00000   0.00000   0.00000
 Ionic relaxation
   EDIFFG = 0.1E-05   stopping-criterion for IOM
   NSW    =      0    number of steps for IOM
   NBLOCK =      1;   KBLOCK =      1    inner block; outer block 
   IBRION =     -1    ionic relax: 0-MD 1-quasi-New 2-CG
   NFREE  =      0    steps in history (QN), initial steepest desc. (CG)
   ISIF   =      0    stress and relaxation
   IWAVPR =     10    prediction:  0-non 1-charg 2-wave 3-comb
   ISYM   =      2    0-nonsym 1-usesym 2-fastsym
   LCORR  =      T    Harris-Foulkes like correction to forces

   POTIM  = 0.5000    time-step for ionic-motion
   TEIN   =    0.0    initial temperature
   TEBEG  =    0.0;   TEEND  =   0.0 temperature during run
   SMASS  =  -3.00    Nose mass-parameter (am)
   estimated Nose-frequenzy (Omega)   =  0.10E-29 period in steps = 0.13E+47 mass=  -0.111E-25a.u.
   SCALEE = 1.0000    scale energy and forces
   NPACO  =    256;   APACO  = 10.0  distance and # of slots for P.C.
   PSTRESS=    0.0 pullay stress

  Mass of Ions in am
   POMASS =  12.01  1.00 14.00 16.00
  Ionic Valenz
   ZVAL   =   4.00  1.00  5.00  6.00
  Atomic Wigner-Seitz radii
   RWIGS  =  -1.00 -1.00 -1.00 -1.00
  virtual crystal weights 
   VCA    =   1.00  1.00  1.00  1.00
   NELECT =      42.0000    total number of electrons
   NUPDOWN=      -1.0000    fix difference up-down

 DOS related values:
   EMIN   =  10.00;   EMAX   =-10.00  energy-range for DOS
   EFERMI =   0.00;   METHOD = LEGACY      
   ISMEAR =     0;   SIGMA  =   0.01  broadening in eV -4-tet -1-fermi 0-gaus

 Electronic relaxation 2 (details)
   IALGO  =     58    algorithm
   LDIAG  =      T    sub-space diagonalisation (order eigenvalues)
   LSUBROT=      F    optimize rotation matrix (better conditioning)
   TURBO    =      0    0=normal 1=particle mesh
   IRESTART =      0    0=no restart 2=restart with 2 vectors
   NREBOOT  =      0    no. of reboots
   NMIN     =      0    reboot dimension
   EREF     =   0.00    reference energy to select bands
   IMIX   =      4    mixing-type and parameters
     AMIX     =   0.40;   BMIX     =  1.00
     AMIX_MAG =   1.60;   BMIX_MAG =  1.00
     AMIN     =   0.10
     WC   =   100.;   INIMIX=   1;  MIXPRE=   1;  MAXMIX= -45

 Intra band minimization:
   WEIMIN = 0.0000     energy-eigenvalue tresh-hold
   EBREAK =  0.98E-10  absolut break condition
   DEPER  =   0.30     relativ break condition  

   TIME   =   0.40     timestep for ELM

  volume/ion in A,a.u.               =     887.33      5988.02
  Fermi-wavevector in a.u.,A,eV,Ry     =   0.258664  0.488803  0.910323  0.066907
  Thomas-Fermi vector in A             =   1.084480

 Write flags
   LWAVE        =      F    write WAVECAR
   LDOWNSAMPLE  =      F    k-point downsampling of WAVECAR
   LCHARG       =      F    write CHGCAR
   LVTOT        =      F    write LOCPOT, total local potential
   LVHAR        =      F    write LOCPOT, Hartree potential only
   LELF         =      F    write electronic localiz. function (ELF)
   LORBIT       =      0    0 simple, 1 ext, 2 COOP (PROOUT), +10 PAW based schemes


 Dipole corrections
   LMONO  =      F    monopole corrections only (constant potential shift)
   LDIPOL =      F    correct potential (dipole corrections)
   IDIPOL =      0    1-x, 2-y, 3-z, 4-all directions 
   EPSILON=  1.0000000 bulk dielectric constant

 Exchange correlation treatment:
   GGA     =    RP    GGA type
   LEXCH   =     9    internal setting for exchange type
   LIBXC   =     F    Libxc                    
   VOSKOWN =     0    Vosko Wilk Nusair interpolation
   LHFCALC =     F    Hartree Fock is set to
   LHFONE  =     F    Hartree Fock one center treatment
   AEXX    =    0.0000 exact exchange contribution

 Linear response parameters
   LEPSILON=     F    determine dielectric tensor
   LRPA    =     F    only Hartree local field effects (RPA)
   LNABLA  =     F    use nabla operator in PAW spheres
   LVEL    =     F    velocity operator in full k-point grid
   CSHIFT  =0.1000    complex shift for real part using Kramers Kronig
   OMEGAMAX=  -1.0    maximum frequency
   DEG_THRESHOLD= 0.2000000E-02 threshold for treating states as degnerate
   RTIME   =   -0.100 relaxation time in fs
  (WPLASMAI=    0.000 imaginary part of plasma frequency in eV, 0.658/RTIME)
   DFIELD  = 0.0000000 0.0000000 0.0000000 field for delta impulse in time

  Optional k-point grid parameters
   LKPOINTS_OPT  =     F    use optional k-point grid
   KPOINTS_OPT_MODE=     1    mode for optional k-point grid

 Orbital magnetization related:
   ORBITALMAG=     F  switch on orbital magnetization
   LCHIMAG   =     F  perturbation theory with respect to B field
   DQ        =  0.001000  dq finite difference perturbation B field
   LLRAUG    =     F  two centre corrections for induced B field
   LBONE     =     F  B-component reconstruction in AE one-centre
   LVGVCALC  =     T  calculate vGv susceptibility
   LVGVAPPL  =     F  apply vGv susceptibility instead of pGv for G=0

 Random number generation:
   RANDOM_GENERATOR = DEFAULT
   PCG_SEED         = not used


--------------------------------------------------------------------------------------------------------


 Static calculation
 charge density and potential will be updated during run
 non-spin polarized calculation
 Conjugate gradient for all bands (Freysoldt, et al. PRB 79, 241103 (2009))
 preconditioned conjugated gradient                                        
 perform sub-space diagonalisation
    before iterative eigenvector-optimisation
 modified Broyden-mixing scheme, WC =      100.0
 initial mixing is a Kerker type mixing with AMIX =  0.4000 and BMIX =      1.0000
 Hartree-type preconditioning will be used
 using additional bands          235
 reciprocal scheme for non local part
 use partial core corrections
 no Harris-corrections to forces 
 use gradient corrections 
 use of overlap-Matrix (Vanderbilt PP)
 Gauss-broadening in eV      SIGMA  =   0.01


--------------------------------------------------------------------------------------------------------


  energy-cutoff  :     1000.00
  volume of cell :    10648.00
      direct lattice vectors                 reciprocal lattice vectors
    22.000000000  0.000000000  0.000000000     0.045454545  0.000000000  0.000000000
     0.000000000 22.000000000  0.000000000     0.000000000  0.045454545  0.000000000
     0.000000000  0.000000000 22.000000000     0.000000000  0.000000000  0.045454545

  length of vectors
    22.000000000 22.000000000 22.000000000     0.045454545  0.045454545  0.045454545



 k-points in units of 2pi/SCALE and weight: auto                                    
   0.00000000  0.00000000  0.00000000       1.000

 k-points in reciprocal lattice and weights: auto                                    
   0.00000000  0.00000000  0.00000000       1.000

 position of ions in fractional coordinates (direct lattice) 
   0.46312955  0.44414386  0.50000955
   0.55880727  0.50709568  0.50000273
   0.52047091  0.56090659  0.49996091
   0.45930773  0.55511977  0.49995864
   0.55063273  0.41303205  0.49997364
   0.38561273  0.49534023  0.49995818
   0.54230409  0.60501705  0.49995636
   0.42877091  0.59392886  0.49994773
   0.43151364  0.49923932  0.49999636
   0.52559318  0.45191841  0.50000909
   0.61438727  0.50616068  0.50005227
   0.43756955  0.39498295  0.50003545

 position of ions in cartesian coordinates  (Angst):
  10.18885000  9.77116500 11.00021000
  12.29376000 11.15610500 11.00006000
  11.45036000 12.33994500 10.99914000
  10.10477000 12.21263500 10.99909000
  12.11392000  9.08670500 10.99942000
   8.48348000 10.89748500 10.99908000
  11.93069000 13.31037500 10.99904000
   9.43296000 13.06643500 10.99885000
   9.49330000 10.98326500 10.99992000
  11.56305000  9.94220500 11.00020000
  13.51652000 11.13553500 11.00115000
   9.62653000  8.68962500 11.00078000



--------------------------------------------------------------------------------------------------------


 use parallel FFT for orbitals z direction half grid
 k-point   1 :   0.0000 0.0000 0.0000  plane waves:  381993

 maximum and minimum number of plane-waves per node :    191003   190990

 maximum number of plane-waves:    381993
 maximum index in each direction: 
   IXMAX=   56   IYMAX=   56   IZMAX=   56
   IXMIN=  -56   IYMIN=  -56   IZMIN=    0


 parallel 3D FFT for wavefunctions:
    minimum data exchange during FFTs selected (reduces bandwidth)
 parallel 3D FFT for charge:
    minimum data exchange during FFTs selected (reduces bandwidth)


 total amount of memory used by VASP MPI-rank0   570223. kBytes
=======================================================================

   base      :      30000. kBytes
   nonl-proj :      85671. kBytes
   fftplans  :     151777. kBytes
   grid      :     293583. kBytes
   one-center:          9. kBytes
   wavefun   :       9183. kBytes

     INWAV:  cpu time      0.0001: real time      0.0001
 Broyden mixing: mesh for mixing (old mesh)
   NGX =113   NGY =113   NGZ =113
  (NGX  =480   NGY  =480   NGZ  =480)
  gives a total of ****** points

 initial charge density was supplied:
 charge density of overlapping atoms calculated
 number of electron      42.0000000 magnetization 
 keeping initial charge density in first step


--------------------------------------------------------------------------------------------------------


 Maximum index for augmentation-charges            0 (set IRDMAX)


--------------------------------------------------------------------------------------------------------


 First call to EWALD:  gamma=   0.081
 Maximum number of real-space cells 3x 3x 3
 Maximum number of reciprocal cells 3x 3x 3

    FEWALD:  cpu time      0.0042: real time      0.0043


--------------------------------------- Ionic step        1  -------------------------------------------




--------------------------------------- Iteration      1(   1)  ---------------------------------------


    POTLOK:  cpu time      0.8793: real time      0.8811
    SETDIJ:  cpu time      0.0115: real time      0.0123
    TRIAL :  cpu time      5.7395: real time      5.7424
    CORREC:  cpu time      0.0025: real time      0.0025
    --------------------------------------------
      LOOP:  cpu time      6.6437: real time      6.6493

 eigenvalue-minimisations  :   512
 total energy-change (2. order) : 0.5009242E+03  (-0.1766457E+04)
 number of electron      42.0000000 magnetization 
 augmentation part       42.0000000 magnetization 

 Free energy of the ion-electron system (eV)
  ---------------------------------------------------
  alpha Z        PSCENC =         0.49439650
  Ewald energy   TEWEN  =      3396.28928168
  -Hartree energ DENC   =     -4906.76837444
  -exchange      EXHF   =         0.00000000
  -V(xc)+E(xc)   XCENC  =       121.73778020
  PAW double counting   =      1571.64310435    -1549.24970942
  entropy T*S    EENTRO =        -0.00000000
  eigenvalues    EBANDS =      -166.04737804
  atomic energy  EATOM  =      2032.82505914
  ---------------------------------------------------
  free energy    TOTEN  =       500.92415997 eV

  energy without entropy =      500.92415997  energy(sigma->0) =      500.92415997


--------------------------------------------------------------------------------------------------------




--------------------------------------- Iteration      1(   2)  ---------------------------------------


    TRIAL :  cpu time     14.9380: real time     14.9449
    CORREC:  cpu time      0.0002: real time      0.0002
    --------------------------------------------
      LOOP:  cpu time     14.9565: real time     14.9781

 eigenvalue-minimisations  :  1024
 total energy-change (2. order) :-0.5725157E+03  (-0.5725157E+03)
 number of electron      42.0000000 magnetization 
 augmentation part       42.0000000 magnetization 

 Free energy of the ion-electron system (eV)
  ---------------------------------------------------
  alpha Z        PSCENC =         0.49439650
  Ewald energy   TEWEN  =      3396.28928168
  -Hartree energ DENC   =     -4906.76837444
  -exchange      EXHF   =         0.00000000
  -V(xc)+E(xc)   XCENC  =       121.73778020
  PAW double counting   =      1571.64310435    -1549.24970942
  entropy T*S    EENTRO =        -0.00000000
  eigenvalues    EBANDS =      -738.56302861
  atomic energy  EATOM  =      2032.82505914
  ---------------------------------------------------
  free energy    TOTEN  =       -71.59149061 eV

  energy without entropy =      -71.59149061  energy(sigma->0) =      -71.59149061


--------------------------------------------------------------------------------------------------------




--------------------------------------- Iteration      1(   3)  ---------------------------------------


    TRIAL :  cpu time      5.9171: real time      5.9198
    CORREC:  cpu time      0.0002: real time      0.0002
    --------------------------------------------
      LOOP:  cpu time      5.9318: real time      5.9531

 eigenvalue-minimisations  :   512
 total energy-change (2. order) :-0.1470052E+02  (-0.1470052E+02)
 number of electron      42.0000000 magnetization 
 augmentation part       42.0000000 magnetization 

 Free energy of the ion-electron system (eV)
  ---------------------------------------------------
  alpha Z        PSCENC =         0.49439650
  Ewald energy   TEWEN  =      3396.28928168
  -Hartree energ DENC   =     -4906.76837444
  -exchange      EXHF   =         0.00000000
  -V(xc)+E(xc)   XCENC  =       121.73778020
  PAW double counting   =      1571.64310435    -1549.24970942
  entropy T*S    EENTRO =        -0.00000000
  eigenvalues    EBANDS =      -753.26354942
  atomic energy  EATOM  =      2032.82505914
  ---------------------------------------------------
  free energy    TOTEN  =       -86.29201141 eV

  energy without entropy =      -86.29201141  energy(sigma->0) =      -86.29201141


--------------------------------------------------------------------------------------------------------




--------------------------------------- Iteration      1(   4)  ---------------------------------------


    TRIAL :  cpu time     14.7340: real time     14.7407
    CORREC:  cpu time      0.0002: real time      0.0002
    --------------------------------------------
      LOOP:  cpu time     14.7669: real time     14.7738

 eigenvalue-minimisations  :  1024
 total energy-change (2. order) :-0.1666994E+00  (-0.1666994E+00)
 number of electron      42.0000000 magnetization 
 augmentation part       42.0000000 magnetization 

 Free energy of the ion-electron system (eV)
  ---------------------------------------------------
  alpha Z        PSCENC =         0.49439650
  Ewald energy   TEWEN  =      3396.28928168
  -Hartree energ DENC   =     -4906.76837444
  -exchange      EXHF   =         0.00000000
  -V(xc)+E(xc)   XCENC  =       121.73778020
  PAW double counting   =      1571.64310435    -1549.24970942
  entropy T*S    EENTRO =        -0.00000000
  eigenvalues    EBANDS =      -753.43024878
  atomic energy  EATOM  =      2032.82505914
  ---------------------------------------------------
  free energy    TOTEN  =       -86.45871078 eV

  energy without entropy =      -86.45871078  energy(sigma->0) =      -86.45871078


--------------------------------------------------------------------------------------------------------




--------------------------------------- Iteration      1(   5)  ---------------------------------------


    TRIAL :  cpu time      5.8792: real time      5.8821
    CORREC:  cpu time      0.0002: real time      0.0002
    CHARGE:  cpu time      1.4067: real time      1.4090
    --------------------------------------------
      LOOP:  cpu time      7.3055: real time      7.3233

 eigenvalue-minimisations  :   512
 total energy-change (2. order) :-0.1001116E-04  (-0.1000900E-04)
 number of electron      42.0000000 magnetization 
 augmentation part        0.1221992 magnetization 

 Free energy of the ion-electron system (eV)
  ---------------------------------------------------
  alpha Z        PSCENC =         0.49439650
  Ewald energy   TEWEN  =      3396.28928168
  -Hartree energ DENC   =     -4906.76837444
  -exchange      EXHF   =         0.00000000
  -V(xc)+E(xc)   XCENC  =       121.73778020
  PAW double counting   =      1571.64310435    -1549.24970942
  entropy T*S    EENTRO =        -0.00000000
  eigenvalues    EBANDS =      -753.43025879
  atomic energy  EATOM  =      2032.82505914
  ---------------------------------------------------
  free energy    TOTEN  =       -86.45872079 eV

  energy without entropy =      -86.45872079  energy(sigma->0) =      -86.45872079


--------------------------------------------------------------------------------------------------------




--------------------------------------- Iteration      1(   6)  ---------------------------------------


    POTLOK:  cpu time      0.4699: real time      0.4706
    SETDIJ:  cpu time      0.0018: real time      0.0018
    TRIAL :  cpu time      2.8568: real time      2.8596
    CORREC:  cpu time      2.5716: real time      2.5725
    CHARGE:  cpu time      1.3811: real time      1.3821
    --------------------------------------------
      LOOP:  cpu time      7.2957: real time      7.3170

 eigenvalue-minimisations  :     0
 total energy-change (2. order) : 0.1492397E+02  (-0.6222435E+01)
 number of electron      42.0000000 magnetization 
 augmentation part        0.0484242 magnetization 

 Free energy of the ion-electron system (eV)
  ---------------------------------------------------
  alpha Z        PSCENC =         0.49439650
  Ewald energy   TEWEN  =      3396.28928168
  -Hartree energ DENC   =     -5207.80936509
  -exchange      EXHF   =         0.00000000
  -V(xc)+E(xc)   XCENC  =       135.50878601
  PAW double counting   =     19806.90410263   -19786.38785766
  entropy T*S    EENTRO =        -0.00000000
  eigenvalues    EBANDS =      -449.35915134
  atomic energy  EATOM  =      2032.82505914
  ---------------------------------------------------
  free energy    TOTEN  =       -71.53474814 eV

  energy without entropy =      -71.53474814  energy(sigma->0) =      -71.53474814


--------------------------------------------------------------------------------------------------------




--------------------------------------- Iteration      1(   7)  ---------------------------------------


    POTLOK:  cpu time      0.4624: real time      0.4624
    SETDIJ:  cpu time      0.0019: real time      0.0019
    TRIAL :  cpu time      2.7074: real time      2.7091
    CORREC:  cpu time      2.5491: real time      2.5500
    CHARGE:  cpu time      1.3841: real time      1.3847
    --------------------------------------------
      LOOP:  cpu time      7.1359: real time      7.1395

 eigenvalue-minimisations  :     0
 total energy-change (2. order) :-0.6260249E+01  (-0.9898274E+00)
 number of electron      42.0000000 magnetization 
 augmentation part        0.0166228 magnetization 

 Free energy of the ion-electron system (eV)
  ---------------------------------------------------
  alpha Z        PSCENC =         0.49439650
  Ewald energy   TEWEN  =      3396.28928168
  -Hartree energ DENC   =     -5083.06731995
  -exchange      EXHF   =         0.00000000
  -V(xc)+E(xc)   XCENC  =       129.71751893
  PAW double counting   =     24669.08457349   -24647.64991703
  entropy T*S    EENTRO =        -0.00000000
  eigenvalues    EBANDS =      -575.48859002
  atomic energy  EATOM  =      2032.82505914
  ---------------------------------------------------
  free energy    TOTEN  =       -77.79499726 eV

  energy without entropy =      -77.79499726  energy(sigma->0) =      -77.79499726


--------------------------------------------------------------------------------------------------------




--------------------------------------- Iteration      1(   8)  ---------------------------------------


    POTLOK:  cpu time      0.4686: real time      0.4686
    SETDIJ:  cpu time      0.0019: real time      0.0019
    TRIAL :  cpu time      2.7017: real time      2.7036
    CORREC:  cpu time      2.5640: real time      2.5651
    CHARGE:  cpu time      1.4055: real time      1.4058
    --------------------------------------------
      LOOP:  cpu time      7.1564: real time      7.1764

 eigenvalue-minimisations  :     0
 total energy-change (2. order) :-0.9951973E+00  (-0.4223462E+00)
 number of electron      42.0000000 magnetization 
 augmentation part        0.0149050 magnetization 

 Free energy of the ion-electron system (eV)
  ---------------------------------------------------
  alpha Z        PSCENC =         0.49439650
  Ewald energy   TEWEN  =      3396.28928168
  -Hartree energ DENC   =     -5079.03593921
  -exchange      EXHF   =         0.00000000
  -V(xc)+E(xc)   XCENC  =       129.43014165
  PAW double counting   =     25238.09216053   -25216.50428485
  entropy T*S    EENTRO =        -0.00000000
  eigenvalues    EBANDS =      -580.38101004
  atomic energy  EATOM  =      2032.82505914
  ---------------------------------------------------
  free energy    TOTEN  =       -78.79019460 eV

  energy without entropy =      -78.79019460  energy(sigma->0) =      -78.79019460


--------------------------------------------------------------------------------------------------------




--------------------------------------- Iteration      1(   9)  ---------------------------------------


    POTLOK:  cpu time      0.4628: real time      0.4629
    SETDIJ:  cpu time      0.0017: real time      0.0017
    TRIAL :  cpu time      2.6974: real time      2.6987
    CORREC:  cpu time      2.5553: real time      2.5565
    CHARGE:  cpu time      1.3823: real time      1.3826
    --------------------------------------------
      LOOP:  cpu time      7.1160: real time      7.1334

 eigenvalue-minimisations  :     0
 total energy-change (2. order) :-0.4192475E+00  (-0.1687342E+00)
 number of electron      42.0000000 magnetization 
 augmentation part        0.0162516 magnetization 

 Free energy of the ion-electron system (eV)
  ---------------------------------------------------
  alpha Z        PSCENC =         0.49439650
  Ewald energy   TEWEN  =      3396.28928168
  -Hartree energ DENC   =     -5077.00881227
  -exchange      EXHF   =         0.00000000
  -V(xc)+E(xc)   XCENC  =       129.22406926
  PAW double counting   =     25654.97690066   -25633.35875787
  entropy T*S    EENTRO =        -0.00000000
  eigenvalues    EBANDS =      -582.65157921
  atomic energy  EATOM  =      2032.82505914
  ---------------------------------------------------
  free energy    TOTEN  =       -79.20944211 eV

  energy without entropy =      -79.20944211  energy(sigma->0) =      -79.20944211


--------------------------------------------------------------------------------------------------------




--------------------------------------- Iteration      1(  10)  ---------------------------------------


    POTLOK:  cpu time      0.4749: real time      0.4755
    SETDIJ:  cpu time      0.0018: real time      0.0018
    TRIAL :  cpu time      2.7010: real time      2.7023
    CORREC:  cpu time      2.5467: real time      2.5478
    CHARGE:  cpu time      1.3707: real time      1.3711
    --------------------------------------------
      LOOP:  cpu time      7.1268: real time      7.1305

 eigenvalue-minimisations  :     0
 total energy-change (2. order) :-0.1668469E+00  (-0.5310639E-01)
 number of electron      42.0000000 magnetization 
 augmentation part        0.0186645 magnetization 

 Free energy of the ion-electron system (eV)
  ---------------------------------------------------
  alpha Z        PSCENC =         0.49439650
  Ewald energy   TEWEN  =      3396.28928168
  -Hartree energ DENC   =     -5070.20414532
  -exchange      EXHF   =         0.00000000
  -V(xc)+E(xc)   XCENC  =       128.99380437
  PAW double counting   =     25060.76850480   -25039.15114106
  entropy T*S    EENTRO =        -0.00000000
  eigenvalues    EBANDS =      -589.39204911
  atomic energy  EATOM  =      2032.82505914
  ---------------------------------------------------
  free energy    TOTEN  =       -79.37628900 eV

  energy without entropy =      -79.37628900  energy(sigma->0) =      -79.37628900


--------------------------------------------------------------------------------------------------------




--------------------------------------- Iteration      1(  11)  ---------------------------------------


    POTLOK:  cpu time      0.4752: real time      0.4754
    SETDIJ:  cpu time      0.0017: real time      0.0017
    TRIAL :  cpu time      2.7046: real time      2.7059
    CORREC:  cpu time      2.5642: real time      2.5656
    CHARGE:  cpu time      1.3706: real time      1.3709
    --------------------------------------------
      LOOP:  cpu time      7.1299: real time      7.1508

 eigenvalue-minimisations  :     0
 total energy-change (2. order) :-0.5297907E-01  (-0.1568940E-01)
 number of electron      42.0000000 magnetization 
 augmentation part        0.0194409 magnetization 

 Free energy of the ion-electron system (eV)
  ---------------------------------------------------
  alpha Z        PSCENC =         0.49439650
  Ewald energy   TEWEN  =      3396.28928168
  -Hartree energ DENC   =     -5065.96058277
  -exchange      EXHF   =         0.00000000
  -V(xc)+E(xc)   XCENC  =       128.90295271
  PAW double counting   =     24518.38809287   -24496.79230918
  entropy T*S    EENTRO =        -0.00000000
  eigenvalues    EBANDS =      -593.57615903
  atomic energy  EATOM  =      2032.82505914
  ---------------------------------------------------
  free energy    TOTEN  =       -79.42926808 eV

  energy without entropy =      -79.42926808  energy(sigma->0) =      -79.42926808


--------------------------------------------------------------------------------------------------------




--------------------------------------- Iteration      1(  12)  ---------------------------------------


    POTLOK:  cpu time      0.4768: real time      0.4773
    SETDIJ:  cpu time      0.0020: real time      0.0020
    TRIAL :  cpu time      2.7086: real time      2.7102
    CORREC:  cpu time      2.5585: real time      2.5593
    CHARGE:  cpu time      1.3863: real time      1.3871
    --------------------------------------------
      LOOP:  cpu time      7.1489: real time      7.1672

 eigenvalue-minimisations  :     0
 total energy-change (2. order) :-0.1568164E-01  (-0.4299670E-02)
 number of electron      42.0000000 magnetization 
 augmentation part        0.0190371 magnetization 

 Free energy of the ion-electron system (eV)
  ---------------------------------------------------
  alpha Z        PSCENC =         0.49439650
  Ewald energy   TEWEN  =      3396.28928168
  -Hartree energ DENC   =     -5064.70096262
  -exchange      EXHF   =         0.00000000
  -V(xc)+E(xc)   XCENC  =       128.86013603
  PAW double counting   =     24357.29750710   -24335.70878985
  entropy T*S    EENTRO =        -0.00000000
  eigenvalues    EBANDS =      -594.80157769
  atomic energy  EATOM  =      2032.82505914
  ---------------------------------------------------
  free energy    TOTEN  =       -79.44494971 eV

  energy without entropy =      -79.44494971  energy(sigma->0) =      -79.44494971


--------------------------------------------------------------------------------------------------------




--------------------------------------- Iteration      1(  13)  ---------------------------------------


    POTLOK:  cpu time      0.4669: real time      0.4670
    SETDIJ:  cpu time      0.0018: real time      0.0018
    TRIAL :  cpu time      2.6981: real time      2.6996
    CORREC:  cpu time      2.5467: real time      2.5475
    CHARGE:  cpu time      1.3901: real time      1.3907
    --------------------------------------------
      LOOP:  cpu time      7.1206: real time      7.1365

 eigenvalue-minimisations  :     0
 total energy-change (2. order) :-0.4299248E-02  (-0.1284336E-02)
 number of electron      42.0000000 magnetization 
 augmentation part        0.0187897 magnetization 

 Free energy of the ion-electron system (eV)
  ---------------------------------------------------
  alpha Z        PSCENC =         0.49439650
  Ewald energy   TEWEN  =      3396.28928168
  -Hartree energ DENC   =     -5064.48975409
  -exchange      EXHF   =         0.00000000
  -V(xc)+E(xc)   XCENC  =       128.85063744
  PAW double counting   =     24354.02505278   -24332.43527816
  entropy T*S    EENTRO =        -0.00000000
  eigenvalues    EBANDS =      -595.00864426
  atomic energy  EATOM  =      2032.82505914
  ---------------------------------------------------
  free energy    TOTEN  =       -79.44924896 eV

  energy without entropy =      -79.44924896  energy(sigma->0) =      -79.44924896


--------------------------------------------------------------------------------------------------------




--------------------------------------- Iteration      1(  14)  ---------------------------------------


    POTLOK:  cpu time      0.4671: real time      0.4672
    SETDIJ:  cpu time      0.0017: real time      0.0017
    TRIAL :  cpu time      2.6954: real time      2.6973
    CORREC:  cpu time      2.5408: real time      2.5417
    CHARGE:  cpu time      1.3734: real time      1.3740
    --------------------------------------------
      LOOP:  cpu time      7.0928: real time      7.1140

 eigenvalue-minimisations  :     0
 total energy-change (2. order) :-0.1283098E-02  (-0.4298491E-03)
 number of electron      42.0000000 magnetization 
 augmentation part        0.0186352 magnetization 

 Free energy of the ion-electron system (eV)
  ---------------------------------------------------
  alpha Z        PSCENC =         0.49439650
  Ewald energy   TEWEN  =      3396.28928168
  -Hartree energ DENC   =     -5064.47510679
  -exchange      EXHF   =         0.00000000
  -V(xc)+E(xc)   XCENC  =       128.85163319
  PAW double counting   =     24385.98189510   -24364.39125461
  entropy T*S    EENTRO =        -0.00000000
  eigenvalues    EBANDS =      -595.02643627
  atomic energy  EATOM  =      2032.82505914
  ---------------------------------------------------
  free energy    TOTEN  =       -79.45053206 eV

  energy without entropy =      -79.45053206  energy(sigma->0) =      -79.45053206


--------------------------------------------------------------------------------------------------------




--------------------------------------- Iteration      1(  15)  ---------------------------------------


    POTLOK:  cpu time      0.4512: real time      0.4513
    SETDIJ:  cpu time      0.0018: real time      0.0018
    TRIAL :  cpu time      2.7007: real time      2.7028
    CORREC:  cpu time      2.5469: real time      2.5478
    CHARGE:  cpu time      1.3821: real time      1.3826
    --------------------------------------------
      LOOP:  cpu time      7.0953: real time      7.1161

 eigenvalue-minimisations  :     0
 total energy-change (2. order) :-0.4287867E-03  (-0.1412385E-03)
 number of electron      42.0000000 magnetization 
 augmentation part        0.0186305 magnetization 

 Free energy of the ion-electron system (eV)
  ---------------------------------------------------
  alpha Z        PSCENC =         0.49439650
  Ewald energy   TEWEN  =      3396.28928168
  -Hartree energ DENC   =     -5064.72218870
  -exchange      EXHF   =         0.00000000
  -V(xc)+E(xc)   XCENC  =       128.85827476
  PAW double counting   =     24400.30305522   -24378.71201114
  entropy T*S    EENTRO =        -0.00000000
  eigenvalues    EBANDS =      -594.78682830
  atomic energy  EATOM  =      2032.82505914
  ---------------------------------------------------
  free energy    TOTEN  =       -79.45096085 eV

  energy without entropy =      -79.45096085  energy(sigma->0) =      -79.45096085


--------------------------------------------------------------------------------------------------------




--------------------------------------- Iteration      1(  16)  ---------------------------------------


    POTLOK:  cpu time      0.4510: real time      0.4510
    SETDIJ:  cpu time      0.0019: real time      0.0019
    TRIAL :  cpu time      2.6969: real time      2.6987
    CORREC:  cpu time      2.5250: real time      2.5259
    CHARGE:  cpu time      1.3873: real time      1.3875
    --------------------------------------------
      LOOP:  cpu time      7.0761: real time      7.0970

 eigenvalue-minimisations  :     0
 total energy-change (2. order) :-0.1411668E-03  (-0.4170570E-04)
 number of electron      42.0000000 magnetization 
 augmentation part        0.0186715 magnetization 

 Free energy of the ion-electron system (eV)
  ---------------------------------------------------
  alpha Z        PSCENC =         0.49439650
  Ewald energy   TEWEN  =      3396.28928168
  -Hartree energ DENC   =     -5064.88427724
  -exchange      EXHF   =         0.00000000
  -V(xc)+E(xc)   XCENC  =       128.86271450
  PAW double counting   =     24397.51419113   -24375.92322883
  entropy T*S    EENTRO =        -0.00000000
  eigenvalues    EBANDS =      -594.62923890
  atomic energy  EATOM  =      2032.82505914
  ---------------------------------------------------
  free energy    TOTEN  =       -79.45110201 eV

  energy without entropy =      -79.45110201  energy(sigma->0) =      -79.45110201


--------------------------------------------------------------------------------------------------------




--------------------------------------- Iteration      1(  17)  ---------------------------------------


    POTLOK:  cpu time      0.4600: real time      0.4600
    SETDIJ:  cpu time      0.0019: real time      0.0019
    TRIAL :  cpu time      2.7045: real time      2.7063
    CORREC:  cpu time      2.5414: real time      2.5427
    CHARGE:  cpu time      1.3929: real time      1.3932
    --------------------------------------------
      LOOP:  cpu time      7.1148: real time      7.1362

 eigenvalue-minimisations  :     0
 total energy-change (2. order) :-0.4193994E-04  (-0.1204566E-04)
 number of electron      42.0000000 magnetization 
 augmentation part        0.0186937 magnetization 

 Free energy of the ion-electron system (eV)
  ---------------------------------------------------
  alpha Z        PSCENC =         0.49439650
  Ewald energy   TEWEN  =      3396.28928168
  -Hartree energ DENC   =     -5064.93555148
  -exchange      EXHF   =         0.00000000
  -V(xc)+E(xc)   XCENC  =       128.86409820
  PAW double counting   =     24392.56460474   -24370.97370731
  entropy T*S    EENTRO =        -0.00000000
  eigenvalues    EBANDS =      -594.57932541
  atomic energy  EATOM  =      2032.82505914
  ---------------------------------------------------
  free energy    TOTEN  =       -79.45114395 eV

  energy without entropy =      -79.45114395  energy(sigma->0) =      -79.45114395


--------------------------------------------------------------------------------------------------------




--------------------------------------- Iteration      1(  18)  ---------------------------------------


    POTLOK:  cpu time      0.4513: real time      0.4516
    SETDIJ:  cpu time      0.0018: real time      0.0018
    TRIAL :  cpu time      2.7004: real time      2.7018
    CORREC:  cpu time      2.5382: real time      2.5393
    CHARGE:  cpu time      1.3790: real time      1.3794
    --------------------------------------------
      LOOP:  cpu time      7.1017: real time      7.1053

 eigenvalue-minimisations  :     0
 total energy-change (2. order) :-0.1214263E-04  (-0.3606186E-05)
 number of electron      42.0000000 magnetization 
 augmentation part        0.0186909 magnetization 

 Free energy of the ion-electron system (eV)
  ---------------------------------------------------
  alpha Z        PSCENC =         0.49439650
  Ewald energy   TEWEN  =      3396.28928168
  -Hartree energ DENC   =     -5064.96921855
  -exchange      EXHF   =         0.00000000
  -V(xc)+E(xc)   XCENC  =       128.86523770
  PAW double counting   =     24390.95072878   -24369.35985898
  entropy T*S    EENTRO =        -0.00000000
  eigenvalues    EBANDS =      -594.54678236
  atomic energy  EATOM  =      2032.82505914
  ---------------------------------------------------
  free energy    TOTEN  =       -79.45115610 eV

  energy without entropy =      -79.45115610  energy(sigma->0) =      -79.45115610


--------------------------------------------------------------------------------------------------------




--------------------------------------- Iteration      1(  19)  ---------------------------------------


    POTLOK:  cpu time      0.4508: real time      0.4512
    SETDIJ:  cpu time      0.0017: real time      0.0017
    TRIAL :  cpu time      2.7029: real time      2.7041
    CORREC:  cpu time      2.5451: real time      2.5464
    CHARGE:  cpu time      1.3728: real time      1.3731
    --------------------------------------------
      LOOP:  cpu time      7.0876: real time      7.1082

 eigenvalue-minimisations  :     0
 total energy-change (2. order) :-0.3628749E-05  (-0.1219913E-05)
 number of electron      42.0000000 magnetization 
 augmentation part        0.0186886 magnetization 

 Free energy of the ion-electron system (eV)
  ---------------------------------------------------
  alpha Z        PSCENC =         0.49439650
  Ewald energy   TEWEN  =      3396.28928168
  -Hartree energ DENC   =     -5064.96582540
  -exchange      EXHF   =         0.00000000
  -V(xc)+E(xc)   XCENC  =       128.86515627
  PAW double counting   =     24392.03836588   -24370.44739887
  entropy T*S    EENTRO =        -0.00000000
  eigenvalues    EBANDS =      -594.55019492
  atomic energy  EATOM  =      2032.82505914
  ---------------------------------------------------
  free energy    TOTEN  =       -79.45115973 eV

  energy without entropy =      -79.45115973  energy(sigma->0) =      -79.45115973


--------------------------------------------------------------------------------------------------------




--------------------------------------- Iteration      1(  20)  ---------------------------------------


    POTLOK:  cpu time      0.4518: real time      0.4521
    SETDIJ:  cpu time      0.0017: real time      0.0017
    TRIAL :  cpu time      2.7016: real time      2.7031
    CORREC:  cpu time      2.5264: real time      2.5271
    CHARGE:  cpu time      1.3809: real time      1.3813
    --------------------------------------------
      LOOP:  cpu time      7.0793: real time      7.0966

 eigenvalue-minimisations  :     0
 total energy-change (2. order) :-0.1203858E-05  (-0.4394789E-06)
 number of electron      42.0000000 magnetization 
 augmentation part        0.0186893 magnetization 

 Free energy of the ion-electron system (eV)
  ---------------------------------------------------
  alpha Z        PSCENC =         0.49439650
  Ewald energy   TEWEN  =      3396.28928168
  -Hartree energ DENC   =     -5064.96149239
  -exchange      EXHF   =         0.00000000
  -V(xc)+E(xc)   XCENC  =       128.86507915
  PAW double counting   =     24393.23345013   -24371.64244675
  entropy T*S    EENTRO =        -0.00000000
  eigenvalues    EBANDS =      -594.55448839
  atomic energy  EATOM  =      2032.82505914
  ---------------------------------------------------
  free energy    TOTEN  =       -79.45116093 eV

  energy without entropy =      -79.45116093  energy(sigma->0) =      -79.45116093


--------------------------------------------------------------------------------------------------------




--------------------------------------- Iteration      1(  21)  ---------------------------------------


    POTLOK:  cpu time      0.4592: real time      0.4596
    SETDIJ:  cpu time      0.0017: real time      0.0017
    TRIAL :  cpu time      2.7052: real time      2.7067
    CORREC:  cpu time      2.5588: real time      2.5595
    CHARGE:  cpu time      1.3767: real time      1.3774
    --------------------------------------------
      LOOP:  cpu time      7.1171: real time      7.1361

 eigenvalue-minimisations  :     0
 total energy-change (2. order) :-0.4183748E-06  (-0.1537830E-06)
 number of electron      42.0000000 magnetization 
 augmentation part        0.0186898 magnetization 

 Free energy of the ion-electron system (eV)
  ---------------------------------------------------
  alpha Z        PSCENC =         0.49439650
  Ewald energy   TEWEN  =      3396.28928168
  -Hartree energ DENC   =     -5064.95816514
  -exchange      EXHF   =         0.00000000
  -V(xc)+E(xc)   XCENC  =       128.86500955
  PAW double counting   =     24393.55939861   -24371.96840399
  entropy T*S    EENTRO =        -0.00000000
  eigenvalues    EBANDS =      -594.55773769
  atomic energy  EATOM  =      2032.82505914
  ---------------------------------------------------
  free energy    TOTEN  =       -79.45116135 eV

  energy without entropy =      -79.45116135  energy(sigma->0) =      -79.45116135


--------------------------------------------------------------------------------------------------------




--------------------------------------- Iteration      1(  22)  ---------------------------------------


    POTLOK:  cpu time      0.4578: real time      0.4578
    SETDIJ:  cpu time      0.0018: real time      0.0018
    TRIAL :  cpu time      2.6978: real time      2.6990
    CORREC:  cpu time      2.5332: real time      2.5338
    CHARGE:  cpu time      1.3866: real time      1.3872
    --------------------------------------------
      LOOP:  cpu time      7.0912: real time      7.1111

 eigenvalue-minimisations  :     0
 total energy-change (2. order) :-0.1424123E-06  (-0.7033310E-07)
 number of electron      42.0000000 magnetization 
 augmentation part        0.0186896 magnetization 

 Free energy of the ion-electron system (eV)
  ---------------------------------------------------
  alpha Z        PSCENC =         0.49439650
  Ewald energy   TEWEN  =      3396.28928168
  -Hartree energ DENC   =     -5064.95436659
  -exchange      EXHF   =         0.00000000
  -V(xc)+E(xc)   XCENC  =       128.86489932
  PAW double counting   =     24393.35219395   -24371.76120837
  entropy T*S    EENTRO =        -0.00000000
  eigenvalues    EBANDS =      -594.56141712
  atomic energy  EATOM  =      2032.82505914
  ---------------------------------------------------
  free energy    TOTEN  =       -79.45116149 eV

  energy without entropy =      -79.45116149  energy(sigma->0) =      -79.45116149


--------------------------------------------------------------------------------------------------------




--------------------------------------- Iteration      1(  23)  ---------------------------------------


    POTLOK:  cpu time      0.4536: real time      0.4536
    SETDIJ:  cpu time      0.0019: real time      0.0019
    TRIAL :  cpu time      2.6955: real time      2.6976
    CORREC:  cpu time      2.5276: real time      2.5284
    EDDIAG:  cpu time      1.0930: real time      1.0939
    CHARGE:  cpu time      1.3819: real time      1.3825
    --------------------------------------------
      LOOP:  cpu time      8.1681: real time      8.1899

 eigenvalue-minimisations  :     0
 total energy-change (2. order) :-0.5041511E-07  (-0.3588985E-07)
 number of electron      42.0000000 magnetization 
 augmentation part        0.0186883 magnetization 

 Free energy of the ion-electron system (eV)
  ---------------------------------------------------
  alpha Z        PSCENC =         0.49439650
  Ewald energy   TEWEN  =      3396.28928168
  -Hartree energ DENC   =     -5064.95413683
  -exchange      EXHF   =         0.00000000
  -V(xc)+E(xc)   XCENC  =       128.86488611
  PAW double counting   =     24392.96501556   -24371.37403721
  entropy T*S    EENTRO =        -0.00000000
  eigenvalues    EBANDS =      -594.56162649
  atomic energy  EATOM  =      2032.82505914
  ---------------------------------------------------
  free energy    TOTEN  =       -79.45116154 eV

  energy without entropy =      -79.45116154  energy(sigma->0) =      -79.45116154


--------------------------------------------------------------------------------------------------------


  average scaling for gradient   1.5390


 average (electrostatic) potential at core
  the test charge radii are     0.5770  0.4325  0.5902  0.5955
  (the norm of the test charge is              1.0000)
       1 -90.1085       2 -89.2294       3 -86.9355       4 -88.4960       5 -48.1020
       6 -48.6746       7 -45.9439       8 -46.7646       9-105.9094      10-105.4011
      11-119.0452      12-119.2686



 E-fermi :  -6.0457     XC(G=0):  -0.1796     alpha+bet : -0.0826

 Fermi energy:        -6.0457325412

 k-point     1 :       0.0000    0.0000    0.0000
  band No.  band energies     occupation 
      1     -27.1271      2.00000
      2     -26.1813      2.00000
      3     -24.6780      2.00000
      4     -23.2797      2.00000
      5     -19.9943      2.00000
      6     -17.3079      2.00000
      7     -16.5710      2.00000
      8     -14.9529      2.00000
      9     -13.8868      2.00000
     10     -12.9578      2.00000
     11     -11.8800      2.00000
     12     -11.6065      2.00000
     13     -11.0180      2.00000
     14     -10.3123      2.00000
     15     -10.1194      2.00000
     16      -9.9736      2.00000
     17      -9.1404      2.00000
     18      -6.9888      2.00000
     19      -6.9457      2.00000
     20      -6.2453      2.00000
     21      -6.1141      2.00000
     22      -2.2732      0.00000
     23      -1.0700      0.00000
     24      -0.9927      0.00000
     25      -0.2876      0.00000
     26      -0.1889      0.00000
     27       0.0828      0.00000
     28       0.1061      0.00000
     29       0.2900      0.00000
     30       0.3496      0.00000
     31       0.3952      0.00000
     32       0.4095      0.00000
     33       0.4307      0.00000
     34       0.4705      0.00000
     35       0.5026      0.00000
     36       0.5684      0.00000
     37       0.5772      0.00000
     38       0.6182      0.00000
     39       0.6301      0.00000
     40       0.6710      0.00000
     41       0.6799      0.00000
     42       0.6864      0.00000
     43       0.7184      0.00000
     44       0.7635      0.00000
     45       0.8218      0.00000
     46       0.8477      0.00000
     47       0.8580      0.00000
     48       0.8887      0.00000
     49       0.9096      0.00000
     50       0.9208      0.00000
     51       0.9587      0.00000
     52       0.9694      0.00000
     53       1.0824      0.00000
     54       1.1041      0.00000
     55       1.1530      0.00000
     56       1.1905      0.00000
     57       1.2103      0.00000
     58       1.2404      0.00000
     59       1.3110      0.00000
     60       1.3465      0.00000
     61       1.3582      0.00000
     62       1.3640      0.00000
     63       1.3979      0.00000
     64       1.4293      0.00000
     65       1.4581      0.00000
     66       1.4646      0.00000
     67       1.5037      0.00000
     68       1.5159      0.00000
     69       1.5396      0.00000
     70       1.5525      0.00000
     71       1.5694      0.00000
     72       1.5947      0.00000
     73       1.5969      0.00000
     74       1.6003      0.00000
     75       1.6005      0.00000
     76       1.6146      0.00000
     77       1.6164      0.00000
     78       1.6192      0.00000
     79       1.6259      0.00000
     80       1.6280      0.00000
     81       1.6381      0.00000
     82       1.6948      0.00000
     83       1.7104      0.00000
     84       1.7327      0.00000
     85       1.7370      0.00000
     86       1.7744      0.00000
     87       1.7895      0.00000
     88       1.7905      0.00000
     89       1.8277      0.00000
     90       1.8300      0.00000
     91       1.8399      0.00000
     92       1.8650      0.00000
     93       1.8713      0.00000
     94       1.8798      0.00000
     95       1.8820      0.00000
     96       1.8868      0.00000
     97       1.9032      0.00000
     98       1.9072      0.00000
     99       1.9097      0.00000
    100       1.9155      0.00000
    101       1.9167      0.00000
    102       1.9191      0.00000
    103       1.9248      0.00000
    104       1.9275      0.00000
    105       1.9302      0.00000
    106       2.0043      0.00000
    107       2.1233      0.00000
    108       2.1796      0.00000
    109       2.2564      0.00000
    110       2.2943      0.00000
    111       2.3010      0.00000
    112       2.3387      0.00000
    113       2.4169      0.00000
    114       2.4187      0.00000
    115       2.4252      0.00000
    116       2.4682      0.00000
    117       2.4825      0.00000
    118       2.5000      0.00000
    119       2.5222      0.00000
    120       2.5736      0.00000
    121       2.5759      0.00000
    122       2.5935      0.00000
    123       2.6189      0.00000
    124       2.6279      0.00000
    125       2.6642      0.00000
    126       2.6800      0.00000
    127       2.6958      0.00000
    128       2.7015      0.00000
    129       2.7132      0.00000
    130       2.7382      0.00000
    131       2.7427      0.00000
    132       2.7745      0.00000
    133       2.7797      0.00000
    134       2.7983      0.00000
    135       2.8078      0.00000
    136       2.8087      0.00000
    137       2.8180      0.00000
    138       2.8216      0.00000
    139       2.8351      0.00000
    140       2.8405      0.00000
    141       2.8448      0.00000
    142       2.8477      0.00000
    143       2.8478      0.00000
    144       2.8481      0.00000
    145       2.8489      0.00000
    146       2.8525      0.00000
    147       2.8532      0.00000
    148       2.9048      0.00000
    149       2.9325      0.00000
    150       2.9546      0.00000
    151       2.9666      0.00000
    152       2.9794      0.00000
    153       2.9926      0.00000
    154       3.0005      0.00000
    155       3.0402      0.00000
    156       3.0557      0.00000
    157       3.0712      0.00000
    158       3.0724      0.00000
    159       3.0796      0.00000
    160       3.1007      0.00000
    161       3.1052      0.00000
    162       3.1094      0.00000
    163       3.1114      0.00000
    164       3.1162      0.00000
    165       3.1329      0.00000
    166       3.1526      0.00000
    167       3.1590      0.00000
    168       3.1613      0.00000
    169       3.1657      0.00000
    170       3.1688      0.00000
    171       3.1750      0.00000
    172       3.2448      0.00000
    173       3.2534      0.00000
    174       3.2809      0.00000
    175       3.2913      0.00000
    176       3.3227      0.00000
    177       3.3404      0.00000
    178       3.3458      0.00000
    179       3.3598      0.00000
    180       3.3672      0.00000
    181       3.3796      0.00000
    182       3.3883      0.00000
    183       3.4037      0.00000
    184       3.4073      0.00000
    185       3.4115      0.00000
    186       3.4127      0.00000
    187       3.4190      0.00000
    188       3.4205      0.00000
    189       3.4273      0.00000
    190       3.4362      0.00000
    191       3.4374      0.00000
    192       3.4432      0.00000
    193       3.4535      0.00000
    194       3.4596      0.00000
    195       3.4679      0.00000
    196       3.5226      0.00000
    197       3.5576      0.00000
    198       3.6012      0.00000
    199       3.6070      0.00000
    200       3.6402      0.00000
    201       3.6531      0.00000
    202       3.6605      0.00000
    203       3.6722      0.00000
    204       3.6803      0.00000
    205       3.6976      0.00000
    206       3.7684      0.00000
    207       3.7761      0.00000
    208       3.7880      0.00000
    209       3.8184      0.00000
    210       3.8303      0.00000
    211       3.8652      0.00000
    212       3.9010      0.00000
    213       3.9486      0.00000
    214       3.9696      0.00000
    215       3.9760      0.00000
    216       3.9994      0.00000
    217       4.0166      0.00000
    218       4.0300      0.00000
    219       4.0397      0.00000
    220       4.0489      0.00000
    221       4.0503      0.00000
    222       4.0548      0.00000
    223       4.0607      0.00000
    224       4.0608      0.00000
    225       4.0739      0.00000
    226       4.0813      0.00000
    227       4.0840      0.00000
    228       4.1098      0.00000
    229       4.1154      0.00000
    230       4.1259      0.00000
    231       4.1418      0.00000
    232       4.1693      0.00000
    233       4.1983      0.00000
    234       4.2097      0.00000
    235       4.2119      0.00000
    236       4.2355      0.00000
    237       4.2520      0.00000
    238       4.2534      0.00000
    239       4.2763      0.00000
    240       4.2803      0.00000
    241       4.2881      0.00000
    242       4.2968      0.00000
    243       4.2987      0.00000
    244       4.3072      0.00000
    245       4.3167      0.00000
    246       4.3185      0.00000
    247       4.3346      0.00000
    248       4.3440      0.00000
    249       4.3499      0.00000
    250       4.3572      0.00000
    251       4.3673      0.00000
    252       4.3698      0.00000
    253       4.3750      0.00000
    254       4.4476      0.00000
    255       4.5317      0.00000
    256       4.6459      0.00000


--------------------------------------------------------------------------------------------------------


 soft charge-density along one line, spin component           1
         0         1         2         3         4         5         6         7         8         9
 total charge-density along one line

 pseudopotential strength for first ion, spin component:           1
 12.884  21.686   0.008   0.000   0.003   0.014   0.000   0.005
 21.686  36.500   0.013   0.000   0.005   0.024   0.000   0.008
  0.008   0.013  -3.146  -0.000  -0.000  -5.643  -0.000  -0.000
  0.000   0.000  -0.000  -3.146  -0.000  -0.000  -5.643  -0.000
  0.003   0.005  -0.000  -0.000  -3.146  -0.000  -0.000  -5.643
  0.014   0.024  -5.643  -0.000  -0.000 -10.102  -0.000  -0.000
  0.000   0.000  -0.000  -5.643  -0.000  -0.000 -10.101  -0.000
  0.005   0.008  -0.000  -0.000  -5.643  -0.000  -0.000 -10.101
 total augmentation occupancy for first ion, spin component:           1
  9.572  -3.700  -1.415   0.001  -0.704   0.663  -0.001   0.333
 -3.700   1.517   0.660  -0.001   0.337  -0.322   0.000  -0.164
 -1.415   0.660   9.702  -0.003   1.258  -3.658   0.001  -0.549
  0.001  -0.001  -0.003   3.452  -0.001   0.001  -0.964   0.000
 -0.704   0.337   1.258  -0.001   8.149  -0.549   0.000  -2.970
  0.663  -0.322  -3.658   0.001  -0.549   1.413  -0.000   0.244
 -0.001   0.000   0.001  -0.964   0.000  -0.000   0.272  -0.000
  0.333  -0.164  -0.549   0.000  -2.970   0.244  -0.000   1.104


------------------------ aborting loop because EDIFF is reached ----------------------------------------


    FORLOC:  cpu time      0.0234: real time      0.0234
    FORNL :  cpu time      0.3503: real time      0.3510
    FORCOR:  cpu time      0.2642: real time      0.2647
    OFIELD:  cpu time      0.0026: real time      0.0026

 ---------------------------------------------------------------------------------------------

         DFTD3 V3.0 Rev 1        
 IVDW         = 11
 DF rpbe      
 parameters
 VDW_S6       =    1.0000
 VDW_S8       =    0.5140
 VDW_SR       =    0.8720
 rs18     =    1.0000
 alpha6   =   14.0000
 alpha8   =   16.0000
 k1-k3    =   16.0000    1.3333   -4.0000
 VDW_RADIUS   =   50.2022 A
 VDW_CNRADIUS =   21.1671 A
 Edisp (eV)   -0.39373

 E6    (eV) :    -0.3443
 E8    (eV) :    -0.0494
 % E8        : 12.55
    FORVDW:  cpu time      0.0695: real time      0.0698

 VOLUME and BASIS-vectors are now :
 -----------------------------------------------------------------------------
  energy-cutoff  :     1000.00
  volume of cell :    10648.00
      direct lattice vectors                 reciprocal lattice vectors
    22.000000000  0.000000000  0.000000000     0.045454545  0.000000000  0.000000000
     0.000000000 22.000000000  0.000000000     0.000000000  0.045454545  0.000000000
     0.000000000  0.000000000 22.000000000     0.000000000  0.000000000  0.045454545

  length of vectors
    22.000000000 22.000000000 22.000000000     0.045454545  0.045454545  0.045454545


 FORCES acting on ions:
    Electron-Ion                     Ewald-Force                    Non-Local-Force
 -----------------------------------------------------------------------------------------------
   0.337E+02 0.388E+02 0.370E-01   -.357E+02 -.443E+02 -.377E-01   0.214E+01 0.588E+01 0.220E-02
   -.352E+02 -.530E+02 0.129E+00   0.373E+02 0.596E+02 -.129E+00   -.235E+01 -.686E+01 0.236E-02
   -.635E+02 -.209E+03 0.164E+00   0.645E+02 0.211E+03 -.166E+00   -.689E+00 -.176E+01 0.182E-02
   0.115E+03 -.207E+03 0.158E+00   -.109E+03 0.214E+03 -.163E+00   -.603E+01 -.753E+01 0.693E-02
   -.607E+02 0.935E+02 0.759E-01   0.648E+02 -.998E+02 -.798E-01   -.411E+01 0.630E+01 0.601E-02
   0.111E+03 -.334E+01 0.746E-01   -.119E+03 0.260E+01 -.799E-01   0.758E+01 0.756E+00 0.619E-02
   -.320E+02 -.844E+02 0.246E-01   0.347E+02 0.898E+02 -.255E-01   -.269E+01 -.528E+01 0.445E-03
   0.520E+02 -.745E+02 0.291E-01   -.557E+02 0.793E+02 -.309E-01   0.359E+01 -.477E+01 0.121E-02
   0.247E+03 -.610E+02 -.660E-01   -.249E+03 0.595E+02 0.991E-01   0.125E+01 0.157E+01 -.352E-01
   -.124E+03 0.171E+03 -.438E-01   0.127E+03 -.170E+03 0.644E-01   -.299E+01 -.124E+01 -.237E-01
   -.416E+03 -.239E+02 -.292E+00   0.470E+03 0.245E+02 0.345E+00   -.535E+02 -.629E+00 -.543E-01
   0.205E+03 0.379E+03 -.174E+00   -.230E+03 -.428E+03 0.203E+00   0.251E+02 0.488E+02 -.310E-01
 -----------------------------------------------------------------------------------------------
   0.327E+02 -.353E+02 0.117E+00   -.284E-13 -.114E-12 -.278E-16   -.327E+02 0.353E+02 -.117E+00


 POSITION                                       TOTAL-FORCE (eV/Angst)
 -----------------------------------------------------------------------------------
     10.18885      9.77116     11.00021         0.025711      0.009380      0.001531
     12.29376     11.15610     11.00006        -0.008660     -0.043152      0.002626
     11.45036     12.33995     10.99914         0.168839      0.238178      0.000256
     10.10477     12.21264     10.99909        -0.243733      0.116303      0.000885
     12.11392      9.08670     10.99942         0.002211     -0.014202      0.002207
      8.48348     10.89749     10.99908        -0.029308     -0.007461      0.000925
     11.93069     13.31037     10.99904         0.055444      0.112374     -0.000419
      9.43296     13.06644     10.99885        -0.090363      0.115657     -0.000587
      9.49330     10.98327     10.99992        -0.250002      0.063595     -0.001679
     11.56305      9.94220     11.00020         0.126841     -0.160122     -0.002842
     13.51652     11.13553     11.00115         0.468075      0.005417     -0.001671
      9.62653      8.68963     11.00078        -0.225055     -0.435967     -0.001232
 -----------------------------------------------------------------------------------
    total drift:                                0.000806      0.000354      0.000011


--------------------------------------------------------------------------------------------------------



  FREE ENERGIE OF THE ION-ELECTRON SYSTEM (eV)
  ---------------------------------------------------
  free  energy   TOTEN  =       -79.84489612 eV

  energy  without entropy=      -79.84489612  energy(sigma->0) =      -79.84489612



--------------------------------------------------------------------------------------------------------


    POTLOK:  cpu time      0.4771: real time      0.4771


--------------------------------------------------------------------------------------------------------


 stress matrix after NEB project (eV)
      0.15830      0.02376      0.00001
      0.02376      0.20474     -0.00008
      0.00001     -0.00008     -0.00007
  FORCES: max atom, RMS     0.490631    0.252877
  FORCE total and by dimension    0.875993    0.468075
  Stress total and by dimension    0.260968    0.204739
     LOOP+:  cpu time    180.0943: real time    180.4833
    4ORBIT:  cpu time      0.0000: real time      0.0000

 total amount of memory used by VASP MPI-rank0   570223. kBytes
=======================================================================

   base      :      30000. kBytes
   nonl-proj :      85671. kBytes
   fftplans  :     151777. kBytes
   grid      :     293583. kBytes
   one-center:          9. kBytes
   wavefun   :       9183. kBytes

  
  
 General timing and accounting informations for this job:
 ========================================================
  
                  Total CPU time used (sec):      248.240
                            User time (sec):      217.727
                          System time (sec):       30.513
                         Elapsed time (sec):      268.307
  
                   Maximum memory used (kb):      838208.
                   Average memory used (kb):          N/A
  
                          Minor page faults:      1239165
                          Major page faults:         1162
                 Voluntary context switches:        11864
