       N       E                     dE             d eps       ncg     rms          ort
DAV:   1     0.163823896345E+03    0.16382E+03   -0.39858E+03    12   0.100E+03
DAV:   2     0.567437878291E+02   -0.10708E+03   -0.10670E+03    12   0.148E+02
DAV:   3     0.613643154692E+01   -0.50607E+02   -0.49051E+02    12   0.118E+02
DAV:   4    -0.179186099003E+02   -0.24055E+02   -0.24010E+02    12   0.622E+01
DAV:   5    -0.199099601803E+02   -0.19914E+01   -0.19895E+01    12   0.197E+01
SDA:   6    -0.143059147298E+02    0.56040E+01   -0.19895E+01    12   0.241E+02 0.000E+00
CGA:   7    -0.173609012454E+02   -0.30550E+01   -0.30114E+01    12   0.145E+01 0.131E+00
CGA:   8    -0.176625397546E+02   -0.30164E+00   -0.30169E+00    12   0.450E+00-0.485E-02
CGA:   9    -0.177761350690E+02   -0.11360E+00   -0.11343E+00    12   0.168E+00 0.502E-02
CGA:  10    -0.178205022157E+02   -0.44367E-01   -0.44084E-01    12   0.504E-01 0.498E-02
CGA:  11    -0.178346302817E+02   -0.14128E-01   -0.14026E-01    12   0.163E-01 0.123E-02
CGA:  12    -0.178392296223E+02   -0.45993E-02   -0.45957E-02    12   0.397E-02 0.347E-05
CGA:  13    -0.178404326122E+02   -0.12030E-02   -0.12037E-02    12   0.117E-02 0.106E-05
CGA:  14    -0.178407818466E+02   -0.34923E-03   -0.34869E-03    12   0.286E-03 0.408E-05
CGA:  15    -0.178408759748E+02   -0.94128E-04   -0.94361E-04    12   0.869E-04-0.239E-05
CGA:  16    -0.178409067442E+02   -0.30769E-04   -0.30970E-04    12   0.278E-04-0.142E-05
CGA:  17    -0.178409173122E+02   -0.10568E-04   -0.10653E-04    12   0.106E-04-0.532E-06
CGA:  18    -0.178409216313E+02   -0.43190E-05   -0.43625E-05    12   0.419E-05-0.241E-06
CGA:  19    -0.178409233145E+02   -0.16833E-05   -0.17160E-05    12   0.159E-05-0.185E-06
CGA:  20    -0.178409239922E+02   -0.67762E-06   -0.72660E-06    12   0.658E-06-0.216E-06
CGA:  21    -0.178409242263E+02   -0.23414E-06   -0.27215E-06    12   0.306E-06-0.176E-06
CGA:  22    -0.178409243087E+02   -0.82411E-07   -0.91438E-07    12   0.126E-06-0.633E-07
   1 F= -.17840924E+02 E0= -.17840924E+02  d E =-.300801E-23
