 vasp.6.4.1 05Apr23 (build Jun  6 2023 14:46:38) gamma-only                      
 executed on        HPECrayEX_GCC date 2024.07.05  19:36:37
 running  128 mpi-ranks, with    1 threads/rank, on    1 nodes
 distrk:  each k-point on  128 cores,    1 groups
 distr:  one band on NCORE=  32 cores,    4 groups


--------------------------------------------------------------------------------------------------------


 INCAR:
   NPAR = 4
   ISMEAR = 0
   SIGMA = 0.01
   PREC = Accurate
   EDIFF = 1E-7
   ENCUT = 1000
   ISIF = 2
   GGA = ML
   LUSE_VDW = .TRUE.
   ZAB_VDW = -1.8867
   AGGAC = 0.0000
   LASPH = .TRUE.
   SYMPREC = 1E-7
   ALGO = Conjugate
   LWAVE = .FALSE.
   LCHARG = .FALSE.

 POTCAR:    PAW_PBE C_h 06Feb2004                 
 POTCAR:    PAW_PBE O_h 06Feb2004                 
 -----------------------------------------------------------------------------
|                                                                             |
|               ----> ADVICE to this user running VASP <----                  |
|                                                                             |
|     You have switched on vdW-DFT.                                           |
|     This routine was written and supplied by Jiri Klimes. We recommend      |
|     that you carefully read and cite the following publications:            |
|       J. Klimes, D.R. Bowler, A. Michelides                                 |
|          J. Phys.: Cond Matt. 22 022201 (2010)                              |
|       J. Klimes, D.R. Bowler, A. Michelides                                 |
|          Phys. Rev. B. 83, 195131 (2011)                                    |
|     and references therein.                                                 |
|                                                                             |
 -----------------------------------------------------------------------------

 POTCAR:    PAW_PBE C_h 06Feb2004                 
   VRHFIN =C: s2p2                                                                                  
   LEXCH  = PE                                                                                      
   EATOM  =   147.1560 eV,   10.8157 Ry                                                             
                                                                                                    
   TITEL  = PAW_PBE C_h 06Feb2004                                                                   
   LULTRA =        F    use ultrasoft PP ?                                                          
   IUNSCR =        1    unscreen: 0-lin 1-nonlin 2-no                                               
   RPACOR =    0.800    partial core radius                                                         
   POMASS =   12.011; ZVAL   =    4.000    mass and valenz                                          
   RCORE  =    1.100    outmost cutoff radius                                                       
   RWIGS  =    1.630; RWIGS  =    0.863    wigner-seitz radius (au A)                               
   ENMAX  =  700.000; ENMIN  =  500.000 eV                                                          
   ICORE  =        2    local potential                                                             
   LCOR   =        T    correct aug charges                                                         
   LPAW   =        T    paw PP                                                                      
   EAUG   =  946.768                                                                                
   DEXC   =    0.000                                                                                
   RMAX   =    1.128    core radius for proj-oper                                                   
   RAUG   =    1.300    factor for augmentation sphere                                              
   RDEP   =    1.162    radius for radial grids                                                     
   RDEPT  =    1.088    core radius for aug-charge                                                  
                                                                                                    
   Atomic configuration                                                                             
    4 entries                                                                                       
     n  l   j            E        occ.                                                              
     1  0  0.50      -273.3789   2.0000                                                             
     2  0  0.50       -13.7508   2.0000                                                             
     2  1  0.50        -5.2854   2.0000                                                             
     3  2  1.50        -5.4423   0.0000                                                             
   Description                                                                                      
     l       E           TYP  RCUT    TYP  RCUT                                                     
     0    -13.7508458     23  1.100                                                                 
     0     -8.2022199     23  1.100                                                                 
     1     -5.2854383     23  1.100                                                                 
     1      1.1560700     23  1.100                                                                 
     2     -5.4423304      7  1.100                                                                 
  local pseudopotential read in
  partial core-charges read in
  partial kinetic energy density read in
  atomic valenz-charges read in
  non local Contribution for L=           0  read in
    real space projection operators read in
  non local Contribution for L=           0  read in
    real space projection operators read in
  non local Contribution for L=           1  read in
    real space projection operators read in
  non local Contribution for L=           1  read in
    real space projection operators read in
    PAW grid and wavefunctions read in

   number of l-projection  operators is LMAX  =           4
   number of lm-projection operators is LMMAX =           8

 POTCAR:    PAW_PBE O_h 06Feb2004                 
   VRHFIN =O: s2p4                                                                                  
   LEXCH  = PE                                                                                      
   EATOM  =   432.3788 eV,   31.7789 Ry                                                             
                                                                                                    
   TITEL  = PAW_PBE O_h 06Feb2004                                                                   
   LULTRA =        F    use ultrasoft PP ?                                                          
   IUNSCR =        1    unscreen: 0-lin 1-nonlin 2-no                                               
   RPACOR =    0.800    partial core radius                                                         
   POMASS =   16.000; ZVAL   =    6.000    mass and valenz                                          
   RCORE  =    1.100    outmost cutoff radius                                                       
   RWIGS  =    1.400; RWIGS  =    0.741    wigner-seitz radius (au A)                               
   ENMAX  =  700.000; ENMIN  =  500.000 eV                                                          
   ICORE  =        2    local potential                                                             
   LCOR   =        T    correct aug charges                                                         
   LPAW   =        T    paw PP                                                                      
   EAUG   =  888.804                                                                                
   DEXC   =    0.000                                                                                
   RMAX   =    1.128    core radius for proj-oper                                                   
   RAUG   =    1.300    factor for augmentation sphere                                              
   RDEP   =    1.125    radius for radial grids                                                     
   RDEPT  =    1.088    core radius for aug-charge                                                  
                                                                                                    
   Atomic configuration                                                                             
    4 entries                                                                                       
     n  l   j            E        occ.                                                              
     1  0  0.50      -514.6923   2.0000                                                             
     2  0  0.50       -23.9615   2.0000                                                             
     2  1  0.50        -9.0305   4.0000                                                             
     3  2  1.50        -9.5241   0.0000                                                             
   Description                                                                                      
     l       E           TYP  RCUT    TYP  RCUT                                                     
     0    -23.9615319     23  1.100                                                                 
     0    -25.3221145     23  1.100                                                                 
     1     -9.0304911     23  1.100                                                                 
     1     -5.4802209     23  1.100                                                                 
     2     -9.5240782      7  1.100                                                                 
  local pseudopotential read in
  partial core-charges read in
  partial kinetic energy density read in
  atomic valenz-charges read in
  non local Contribution for L=           0  read in
    real space projection operators read in
  non local Contribution for L=           0  read in
    real space projection operators read in
  non local Contribution for L=           1  read in
    real space projection operators read in
  non local Contribution for L=           1  read in
    real space projection operators read in
    PAW grid and wavefunctions read in

   number of l-projection  operators is LMAX  =           4
   number of lm-projection operators is LMMAX =           8

 -----------------------------------------------------------------------------
|                                                                             |
|               ----> ADVICE to this user running VASP <----                  |
|                                                                             |
|     You enforced a specific xc type in the INCAR file but a different       |
|     type was found in the POTCAR file.                                      |
|     I HOPE YOU KNOW WHAT YOU ARE DOING!                                     |
|                                                                             |
 -----------------------------------------------------------------------------

  PAW_PBE C_h 06Feb2004                 :
 energy of atom  1       EATOM= -147.1560
 kinetic energy error for atom=    0.0031 (will be added to EATOM!!)
  PAW_PBE O_h 06Feb2004                 :
 energy of atom  2       EATOM= -432.3788
 kinetic energy error for atom=    0.0171 (will be added to EATOM!!)


 POSCAR: super cell
  positions in direct lattice
  No initial velocities read in
 exchange correlation table for  LEXCH =       44
   RHO(1)=    0.500       N(1)  =     2000
   RHO(2)=  100.500       N(2)  =     4000

 VTST: version 4.1, (05/19/21)

 CHAIN: initializing optimizer
 
 OPT: Using VASP Dynamics algorithm
 CHAIN: Read ICHAIN            0

 POSCAR: super cell
  positions in direct lattice
  No initial velocities read in



--------------------------------------------------------------------------------------------------------


 ion  position               nearest neighbor table
   1  0.241  0.241  0.281-   3 1.17   2 1.18
   2  0.275  0.207  0.248-   1 1.18
   3  0.207  0.275  0.314-   1 1.17

  LATTYP: Found a simple cubic cell.
 ALAT       =    20.0000000000
  
  Lattice vectors:
  
 A1 = (  20.0000000000,   0.0000000000,   0.0000000000)
 A2 = (   0.0000000000,  20.0000000000,   0.0000000000)
 A3 = (   0.0000000000,   0.0000000000,  20.0000000000)


Analysis of symmetry for initial positions (statically):
=====================================================================
 Subroutine PRICEL returns:
 Original cell was already a primitive cell.
 

 Routine SETGRP: Setting up the symmetry group for a 
 simple cubic supercell.


 Subroutine GETGRP returns: Found  1 space group operations
 (whereof  1 operations were pure point group operations)
 out of a pool of 48 trial point group operations.


The static configuration has the point symmetry C_1 .


Analysis of symmetry for dynamics (positions and initial velocities):
=====================================================================
 Subroutine PRICEL returns:
 Original cell was already a primitive cell.
 

 Routine SETGRP: Setting up the symmetry group for a 
 simple cubic supercell.


 Subroutine GETGRP returns: Found  1 space group operations
 (whereof  1 operations were pure point group operations)
 out of a pool of 48 trial point group operations.


The dynamic configuration has the point symmetry C_1 .


 Subroutine INISYM returns: Found  1 space group operations
 (whereof  1 operations are pure point group operations),
 and found     1 'primitive' translations


----------------------------------------------------------------------------------------

                                     Primitive cell                                     

  volume of cell :    8000.0000

  direct lattice vectors                    reciprocal lattice vectors
    20.000000000  0.000000000  0.000000000     0.050000000  0.000000000  0.000000000
     0.000000000 20.000000000  0.000000000     0.000000000  0.050000000  0.000000000
     0.000000000  0.000000000 20.000000000     0.000000000  0.000000000  0.050000000

  length of vectors
    20.000000000 20.000000000 20.000000000     0.050000000  0.050000000  0.050000000

  position of ions in fractional coordinates (direct lattice)
     0.240579500  0.241025833  0.281145500
     0.274611147  0.206578165  0.247857939
     0.206547853  0.274673502  0.314433061

  ion indices of the primitive-cell ions
   primitive index   ion index
                 1           1
                 2           2
                 3           3

----------------------------------------------------------------------------------------



 KPOINTS: auto                                    

Automatic generation of k-mesh.
 Grid dimensions read from file:
 generate k-points for:    1    1    1

 Generating k-lattice:

  Cartesian coordinates                     Fractional coordinates (reciprocal lattice)
     0.050000000  0.000000000  0.000000000     1.000000000  0.000000000  0.000000000
     0.000000000  0.050000000  0.000000000     0.000000000  1.000000000  0.000000000
     0.000000000  0.000000000  0.050000000     0.000000000  0.000000000  1.000000000

  Length of vectors
     0.050000000  0.050000000  0.050000000

  Shift w.r.t. Gamma in fractional coordinates (k-lattice)
     0.000000000  0.000000000  0.000000000

 
 Subroutine IBZKPT returns following result:
 ===========================================
 
 Found      1 irreducible k-points:
 
 Following reciprocal coordinates:
            Coordinates               Weight
  0.000000  0.000000  0.000000      1.000000
 
 Following cartesian coordinates:
            Coordinates               Weight
  0.000000  0.000000  0.000000      1.000000
 


--------------------------------------------------------------------------------------------------------




 Dimension of arrays:
   k-points           NKPTS =      1   k-points in BZ     NKDIM =      1   number of bands    NBANDS=     12
   number of dos      NEDOS =    301   number of ions     NIONS =      3
   non local maximal  LDIM  =      4   non local SUM 2l+1 LMDIM =      8
   total plane-waves  NPLWV = ******
   max r-space proj   IRMAX =      1   max aug-charges    IRDMAX=   8641
   dimension x,y,z NGX =   210 NGY =  210 NGZ =  210
   dimension x,y,z NGXF=   420 NGYF=  420 NGZF=  420
   support grid    NGXF=   420 NGYF=  420 NGZF=  420
   ions per type =               1   2
   NGX,Y,Z   is equivalent  to a cutoff of  17.46, 17.46, 17.46 a.u.
   NGXF,Y,Z  is equivalent  to a cutoff of  34.91, 34.91, 34.91 a.u.

 SYSTEM =  unknown system                          
 POSCAR =  super cell                              

 Startparameter for this run:
   NWRITE =      2    write-flag & timer
   PREC   = accura    normal or accurate (medium, high low for compatibility)
   ISTART =      0    job   : 0-new  1-cont  2-samecut
   ICHARG =      2    charge: 1-file 2-atom 10-const
   ISPIN  =      1    spin polarized calculation?
   LNONCOLLINEAR =      F non collinear calculations
   LSORBIT =      F    spin-orbit coupling
   INIWAV =      1    electr: 0-lowe 1-rand  2-diag
   LASPH  =      T    aspherical Exc in radial PAW
 Electronic Relaxation 1
   ENCUT  = 1000.0 eV  73.50 Ry    8.57 a.u.  51.57 51.57 51.57*2*pi/ulx,y,z
   ENINI  = 1000.0     initial cutoff
   ENAUG  =  946.8 eV  augmentation charge cutoff
   NELM   =     60;   NELMIN=  2; NELMDL=  0     # of ELM steps 
   EDIFF  = 0.1E-06   stopping-criterion for ELM
   LREAL  =      F    real-space projection
   NLSPLINE    = F    spline interpolate recip. space projectors
   LCOMPAT=      F    compatible to vasp.4.4
   GGA_COMPAT  = T    GGA compatible to vasp.4.4-vasp.4.6
   LMAXPAW     = -100 max onsite density
   LMAXMIX     =    2 max onsite mixed and CHGCAR
   VOSKOWN=      0    Vosko Wilk Nusair interpolation
   ROPT   =    0.00000   0.00000
 Ionic relaxation
   EDIFFG = 0.1E-05   stopping-criterion for IOM
   NSW    =      0    number of steps for IOM
   NBLOCK =      1;   KBLOCK =      1    inner block; outer block 
   IBRION =     -1    ionic relax: 0-MD 1-quasi-New 2-CG
   NFREE  =      0    steps in history (QN), initial steepest desc. (CG)
   ISIF   =      2    stress and relaxation
   IWAVPR =     10    prediction:  0-non 1-charg 2-wave 3-comb
   ISYM   =      2    0-nonsym 1-usesym 2-fastsym
   LCORR  =      T    Harris-Foulkes like correction to forces

   POTIM  = 0.5000    time-step for ionic-motion
   TEIN   =    0.0    initial temperature
   TEBEG  =    0.0;   TEEND  =   0.0 temperature during run
   SMASS  =  -3.00    Nose mass-parameter (am)
   estimated Nose-frequenzy (Omega)   =  0.10E-29 period in steps = 0.13E+47 mass=  -0.914E-26a.u.
   SCALEE = 1.0000    scale energy and forces
   NPACO  =    256;   APACO  = 10.0  distance and # of slots for P.C.
   PSTRESS=    0.0 pullay stress

  Mass of Ions in am
   POMASS =  12.01 16.00
  Ionic Valenz
   ZVAL   =   4.00  6.00
  Atomic Wigner-Seitz radii
   RWIGS  =  -1.00 -1.00
  virtual crystal weights 
   VCA    =   1.00  1.00
   NELECT =      16.0000    total number of electrons
   NUPDOWN=      -1.0000    fix difference up-down

 DOS related values:
   EMIN   =  10.00;   EMAX   =-10.00  energy-range for DOS
   EFERMI =   0.00;   METHOD = LEGACY      
   ISMEAR =     0;   SIGMA  =   0.01  broadening in eV -4-tet -1-fermi 0-gaus

 Electronic relaxation 2 (details)
   IALGO  =     58    algorithm
   LDIAG  =      T    sub-space diagonalisation (order eigenvalues)
   LSUBROT=      F    optimize rotation matrix (better conditioning)
   TURBO    =      0    0=normal 1=particle mesh
   IRESTART =      0    0=no restart 2=restart with 2 vectors
   NREBOOT  =      0    no. of reboots
   NMIN     =      0    reboot dimension
   EREF     =   0.00    reference energy to select bands
   IMIX   =      4    mixing-type and parameters
     AMIX     =   0.40;   BMIX     =  1.00
     AMIX_MAG =   1.60;   BMIX_MAG =  1.00
     AMIN     =   0.10
     WC   =   100.;   INIMIX=   1;  MIXPRE=   1;  MAXMIX= -45

 Intra band minimization:
   WEIMIN = 0.0000     energy-eigenvalue tresh-hold
   EBREAK =  0.21E-08  absolut break condition
   DEPER  =   0.30     relativ break condition  

   TIME   =   0.40     timestep for ELM

  volume/ion in A,a.u.               =    2666.67     17995.55
  Fermi-wavevector in a.u.,A,eV,Ry     =   0.206261  0.389778  0.578844  0.042544
  Thomas-Fermi vector in A             =   0.968418

 Write flags
   LWAVE        =      F    write WAVECAR
   LDOWNSAMPLE  =      F    k-point downsampling of WAVECAR
   LCHARG       =      F    write CHGCAR
   LVTOT        =      F    write LOCPOT, total local potential
   LVHAR        =      F    write LOCPOT, Hartree potential only
   LELF         =      F    write electronic localiz. function (ELF)
   LORBIT       =      0    0 simple, 1 ext, 2 COOP (PROOUT), +10 PAW based schemes


 Dipole corrections
   LMONO  =      F    monopole corrections only (constant potential shift)
   LDIPOL =      F    correct potential (dipole corrections)
   IDIPOL =      0    1-x, 2-y, 3-z, 4-all directions 
   EPSILON=  1.0000000 bulk dielectric constant

 Exchange correlation treatment:
   GGA     =    ML    GGA type
   LEXCH   =    44    internal setting for exchange type
   LIBXC   =     F    Libxc                    
   VOSKOWN =     0    Vosko Wilk Nusair interpolation
   LHFCALC =     F    Hartree Fock is set to
   LHFONE  =     F    Hartree Fock one center treatment
   AEXX    =    0.0000 exact exchange contribution

 vdW DFT:
   LUSE_VDW   =     T    switch on vdW DFT
   IVDW_NL    =     1    kernel type
   LSPIN_VDW  =     F    use spin-polarized vdW DFT
   Zab_VDW    =******    correlation parameter
   PARAM1     =0.1234
   PARAM2     =1.0000
   PARAM3     =0.0000
   -- rVV10 --
   BPARAM     = 6.3000
   CPARAM     = 0.0093

 Linear response parameters
   LEPSILON=     F    determine dielectric tensor
   LRPA    =     F    only Hartree local field effects (RPA)
   LNABLA  =     F    use nabla operator in PAW spheres
   LVEL    =     F    velocity operator in full k-point grid
   CSHIFT  =0.1000    complex shift for real part using Kramers Kronig
   OMEGAMAX=  -1.0    maximum frequency
   DEG_THRESHOLD= 0.2000000E-02 threshold for treating states as degnerate
   RTIME   =   -0.100 relaxation time in fs
  (WPLASMAI=    0.000 imaginary part of plasma frequency in eV, 0.658/RTIME)
   DFIELD  = 0.0000000 0.0000000 0.0000000 field for delta impulse in time

  Optional k-point grid parameters
   LKPOINTS_OPT  =     F    use optional k-point grid
   KPOINTS_OPT_MODE=     1    mode for optional k-point grid

 Orbital magnetization related:
   ORBITALMAG=     F  switch on orbital magnetization
   LCHIMAG   =     F  perturbation theory with respect to B field
   DQ        =  0.001000  dq finite difference perturbation B field
   LLRAUG    =     F  two centre corrections for induced B field
   LBONE     =     F  B-component reconstruction in AE one-centre
   LVGVCALC  =     T  calculate vGv susceptibility
   LVGVAPPL  =     F  apply vGv susceptibility instead of pGv for G=0

 Random number generation:
   RANDOM_GENERATOR = DEFAULT
   PCG_SEED         = not used


--------------------------------------------------------------------------------------------------------


 Static calculation
 charge density and potential will be updated during run
 non-spin polarized calculation
 Conjugate gradient for all bands (Freysoldt, et al. PRB 79, 241103 (2009))
 preconditioned conjugated gradient                                        
 perform sub-space diagonalisation
    before iterative eigenvector-optimisation
 modified Broyden-mixing scheme, WC =      100.0
 initial mixing is a Kerker type mixing with AMIX =  0.4000 and BMIX =      1.0000
 Hartree-type preconditioning will be used
 using additional bands            4
 reciprocal scheme for non local part
 use partial core corrections
 no Harris-corrections to forces 
 use gradient corrections 
 use of overlap-Matrix (Vanderbilt PP)
 Gauss-broadening in eV      SIGMA  =   0.01


--------------------------------------------------------------------------------------------------------


  energy-cutoff  :     1000.00
  volume of cell :     8000.00
      direct lattice vectors                 reciprocal lattice vectors
    20.000000000  0.000000000  0.000000000     0.050000000  0.000000000  0.000000000
     0.000000000 20.000000000  0.000000000     0.000000000  0.050000000  0.000000000
     0.000000000  0.000000000 20.000000000     0.000000000  0.000000000  0.050000000

  length of vectors
    20.000000000 20.000000000 20.000000000     0.050000000  0.050000000  0.050000000



 k-points in units of 2pi/SCALE and weight: auto                                    
   0.00000000  0.00000000  0.00000000       1.000

 k-points in reciprocal lattice and weights: auto                                    
   0.00000000  0.00000000  0.00000000       1.000

 position of ions in fractional coordinates (direct lattice) 
   0.24057950  0.24102583  0.28114550
   0.27461115  0.20657817  0.24785794
   0.20654785  0.27467350  0.31443306

 position of ions in cartesian coordinates  (Angst):
   4.81159000  4.82051666  5.62291000
   5.49222294  4.13156330  4.95715878
   4.13095706  5.49347004  6.28866122



--------------------------------------------------------------------------------------------------------


 use parallel FFT for orbitals z direction half grid
 k-point   1 :   0.0000 0.0000 0.0000  plane waves:  287166

 maximum and minimum number of plane-waves per node :      8979     8970

 maximum number of plane-waves:    287166
 maximum index in each direction: 
   IXMAX=   51   IYMAX=   51   IZMAX=   51
   IXMIN=  -51   IYMIN=  -51   IZMIN=    0


 parallel 3D FFT for wavefunctions:
    minimum data exchange during FFTs selected (reduces bandwidth)
 parallel 3D FFT for charge:
    minimum data exchange during FFTs selected (reduces bandwidth)


 total amount of memory used by VASP MPI-rank0   114032. kBytes
=======================================================================

   base      :      30000. kBytes
   nonl-proj :       1580. kBytes
   fftplans  :      29139. kBytes
   grid      :      52019. kBytes
   one-center:          1. kBytes
   wavefun   :       1293. kBytes

     INWAV:  cpu time      0.0000: real time      0.0000
 Broyden mixing: mesh for mixing (old mesh)
   NGX =103   NGY =103   NGZ =103
  (NGX  =420   NGY  =420   NGZ  =420)
  gives a total of ****** points

 initial charge density was supplied:
 charge density of overlapping atoms calculated
 number of electron      16.0000000 magnetization 
 charge density for first step will be calculated from the start-wavefunctions


--------------------------------------------------------------------------------------------------------


 Maximum index for augmentation-charges            0 (set IRDMAX)


--------------------------------------------------------------------------------------------------------


 First call to EWALD:  gamma=   0.089
 Maximum number of real-space cells 3x 3x 3
 Maximum number of reciprocal cells 3x 3x 3

    FEWALD:  cpu time      0.0022: real time      0.0022


--------------------------------------- Ionic step        1  -------------------------------------------




--------------------------------------- Iteration      1(   1)  ---------------------------------------


vdW kernel read from vdw_kernel.bindat
  0.0000  0.2424  0.5071  0.7962  1.1119  1.4567  1.8333  2.2446  2.6937  3.1842
  3.7199  4.3049  4.9438  5.6415  6.4036  7.2358  8.1446  9.1372 10.2212 11.4050
 12.6979 14.1099 15.6519 17.3360 19.1751 21.1837 23.3773 25.7729 28.3892 31.2465
 34.3669 37.7748 41.4965 45.5611 50.0000

    POTLOK:  cpu time     33.0149: real time     33.0267
    SETDIJ:  cpu time      0.0722: real time      0.0728
    TRIAL :  cpu time      0.4907: real time      0.4927
    CORREC:  cpu time      0.0011: real time      0.0011
    --------------------------------------------
      LOOP:  cpu time     33.5896: real time     33.6165

 eigenvalue-minimisations  :    40
 total energy-change (2. order) : 0.1641819E+03  (-0.3986526E+03)
 number of electron      16.0000000 magnetization 
 augmentation part       16.0000000 magnetization 

 Free energy of the ion-electron system (eV)
  ---------------------------------------------------
  alpha Z        PSCENC =         0.08964095
  Ewald energy   TEWEN  =       551.41483388
  -Hartree energ DENC   =     -1354.68489605
  -exchange      EXHF   =         0.00000000
  -V(xc)+E(xc)   XCENC  =        55.55397990
  PAW double counting   =       811.69278475     -809.82440165
  entropy T*S    EENTRO =        -0.00000000
  eigenvalues    EBANDS =      -118.03056027
  atomic energy  EATOM  =      1027.97048504
  ---------------------------------------------------
  free energy    TOTEN  =       164.18186655 eV

  energy without entropy =      164.18186655  energy(sigma->0) =      164.18186655


--------------------------------------------------------------------------------------------------------




--------------------------------------- Iteration      1(   2)  ---------------------------------------


    TRIAL :  cpu time      0.4838: real time      0.4839
    CORREC:  cpu time      0.0000: real time      0.0000
    --------------------------------------------
      LOOP:  cpu time      0.4963: real time      0.5106

 eigenvalue-minimisations  :    44
 total energy-change (2. order) :-0.1074308E+03  (-0.1070295E+03)
 number of electron      16.0000000 magnetization 
 augmentation part       16.0000000 magnetization 

 Free energy of the ion-electron system (eV)
  ---------------------------------------------------
  alpha Z        PSCENC =         0.08964095
  Ewald energy   TEWEN  =       551.41483388
  -Hartree energ DENC   =     -1354.68489605
  -exchange      EXHF   =         0.00000000
  -V(xc)+E(xc)   XCENC  =        55.55397990
  PAW double counting   =       811.69278475     -809.82440165
  entropy T*S    EENTRO =        -0.00000000
  eigenvalues    EBANDS =      -225.46134257
  atomic energy  EATOM  =      1027.97048504
  ---------------------------------------------------
  free energy    TOTEN  =        56.75108425 eV

  energy without entropy =       56.75108425  energy(sigma->0) =       56.75108425


--------------------------------------------------------------------------------------------------------




--------------------------------------- Iteration      1(   3)  ---------------------------------------


    TRIAL :  cpu time      0.5166: real time      0.5171
    CORREC:  cpu time      0.0001: real time      0.0001
    --------------------------------------------
      LOOP:  cpu time      0.5294: real time      0.5461

 eigenvalue-minimisations  :    48
 total energy-change (2. order) :-0.5118855E+02  (-0.4962195E+02)
 number of electron      16.0000000 magnetization 
 augmentation part       16.0000000 magnetization 

 Free energy of the ion-electron system (eV)
  ---------------------------------------------------
  alpha Z        PSCENC =         0.08964095
  Ewald energy   TEWEN  =       551.41483388
  -Hartree energ DENC   =     -1354.68489605
  -exchange      EXHF   =         0.00000000
  -V(xc)+E(xc)   XCENC  =        55.55397990
  PAW double counting   =       811.69278475     -809.82440165
  entropy T*S    EENTRO =        -0.00000000
  eigenvalues    EBANDS =      -276.64988879
  atomic energy  EATOM  =      1027.97048504
  ---------------------------------------------------
  free energy    TOTEN  =         5.56253803 eV

  energy without entropy =        5.56253803  energy(sigma->0) =        5.56253803


--------------------------------------------------------------------------------------------------------




--------------------------------------- Iteration      1(   4)  ---------------------------------------


    TRIAL :  cpu time      0.4475: real time      0.4476
    CORREC:  cpu time      0.0001: real time      0.0001
    --------------------------------------------
      LOOP:  cpu time      0.4764: real time      0.4768

 eigenvalue-minimisations  :    40
 total energy-change (2. order) :-0.2357418E+02  (-0.2352922E+02)
 number of electron      16.0000000 magnetization 
 augmentation part       16.0000000 magnetization 

 Free energy of the ion-electron system (eV)
  ---------------------------------------------------
  alpha Z        PSCENC =         0.08964095
  Ewald energy   TEWEN  =       551.41483388
  -Hartree energ DENC   =     -1354.68489605
  -exchange      EXHF   =         0.00000000
  -V(xc)+E(xc)   XCENC  =        55.55397990
  PAW double counting   =       811.69278475     -809.82440165
  entropy T*S    EENTRO =        -0.00000000
  eigenvalues    EBANDS =      -300.22406576
  atomic energy  EATOM  =      1027.97048504
  ---------------------------------------------------
  free energy    TOTEN  =       -18.01163893 eV

  energy without entropy =      -18.01163893  energy(sigma->0) =      -18.01163893


--------------------------------------------------------------------------------------------------------




--------------------------------------- Iteration      1(   5)  ---------------------------------------


    TRIAL :  cpu time      0.3813: real time      0.3818
    CORREC:  cpu time      0.0001: real time      0.0001
    CHARGE:  cpu time      0.1425: real time      0.1427
    --------------------------------------------
      LOOP:  cpu time      0.5374: real time      0.5538

 eigenvalue-minimisations  :    32
 total energy-change (2. order) :-0.1917476E+01  (-0.1914692E+01)
 number of electron      16.0000000 magnetization 
 augmentation part        0.1490111 magnetization 

 Free energy of the ion-electron system (eV)
  ---------------------------------------------------
  alpha Z        PSCENC =         0.08964095
  Ewald energy   TEWEN  =       551.41483388
  -Hartree energ DENC   =     -1354.68489605
  -exchange      EXHF   =         0.00000000
  -V(xc)+E(xc)   XCENC  =        55.55397990
  PAW double counting   =       811.69278475     -809.82440165
  entropy T*S    EENTRO =        -0.00000000
  eigenvalues    EBANDS =      -302.14154205
  atomic energy  EATOM  =      1027.97048504
  ---------------------------------------------------
  free energy    TOTEN  =       -19.92911522 eV

  energy without entropy =      -19.92911522  energy(sigma->0) =      -19.92911522


--------------------------------------------------------------------------------------------------------




--------------------------------------- Iteration      1(   6)  ---------------------------------------


    POTLOK:  cpu time     32.6109: real time     32.6226
    SETDIJ:  cpu time      0.0682: real time      0.0682
    TRIAL :  cpu time      0.2367: real time      0.2383
    CORREC:  cpu time     32.9370: real time     32.9500
    CHARGE:  cpu time      0.1258: real time      0.1258
    --------------------------------------------
      LOOP:  cpu time     65.9936: real time     66.0370

 eigenvalue-minimisations  :     0
 total energy-change (2. order) : 0.5615774E+01  (-0.3029971E+01)
 number of electron      16.0000000 magnetization 
 augmentation part        0.0985805 magnetization 

 Free energy of the ion-electron system (eV)
  ---------------------------------------------------
  alpha Z        PSCENC =         0.08964095
  Ewald energy   TEWEN  =       551.41483388
  -Hartree energ DENC   =     -1449.35945522
  -exchange      EXHF   =         0.00000000
  -V(xc)+E(xc)   XCENC  =        60.98262659
  PAW double counting   =      7833.26960953    -7833.30726611
  entropy T*S    EENTRO =        -0.00000000
  eigenvalues    EBANDS =      -205.37381631
  atomic energy  EATOM  =      1027.97048504
  ---------------------------------------------------
  free energy    TOTEN  =       -14.31334165 eV

  energy without entropy =      -14.31334165  energy(sigma->0) =      -14.31334165


--------------------------------------------------------------------------------------------------------




--------------------------------------- Iteration      1(   7)  ---------------------------------------


    POTLOK:  cpu time     32.6125: real time     32.6230
    SETDIJ:  cpu time      0.0679: real time      0.0679
    TRIAL :  cpu time      0.2206: real time      0.2209
    CORREC:  cpu time     32.8932: real time     32.9048
    CHARGE:  cpu time      0.1257: real time      0.1257
    --------------------------------------------
      LOOP:  cpu time     65.9487: real time     65.9713

 eigenvalue-minimisations  :     0
 total energy-change (2. order) :-0.3077020E+01  (-0.2831048E+00)
 number of electron      16.0000000 magnetization 
 augmentation part        0.0747644 magnetization 

 Free energy of the ion-electron system (eV)
  ---------------------------------------------------
  alpha Z        PSCENC =         0.08964095
  Ewald energy   TEWEN  =       551.41483388
  -Hartree energ DENC   =     -1392.35473129
  -exchange      EXHF   =         0.00000000
  -V(xc)+E(xc)   XCENC  =        57.80802610
  PAW double counting   =      9214.66318209    -9213.86397071
  entropy T*S    EENTRO =        -0.00000000
  eigenvalues    EBANDS =      -263.11782798
  atomic energy  EATOM  =      1027.97048504
  ---------------------------------------------------
  free energy    TOTEN  =       -17.39036191 eV

  energy without entropy =      -17.39036191  energy(sigma->0) =      -17.39036191


--------------------------------------------------------------------------------------------------------




--------------------------------------- Iteration      1(   8)  ---------------------------------------


    POTLOK:  cpu time     32.6474: real time     32.6582
    SETDIJ:  cpu time      0.0679: real time      0.0679
    TRIAL :  cpu time      0.2213: real time      0.2216
    CORREC:  cpu time     32.8640: real time     32.8752
    CHARGE:  cpu time      0.1258: real time      0.1258
    --------------------------------------------
      LOOP:  cpu time     65.9433: real time     65.9794

 eigenvalue-minimisations  :     0
 total energy-change (2. order) :-0.2830790E+00  (-0.9999302E-01)
 number of electron      16.0000000 magnetization 
 augmentation part        0.0701287 magnetization 

 Free energy of the ion-electron system (eV)
  ---------------------------------------------------
  alpha Z        PSCENC =         0.08964095
  Ewald energy   TEWEN  =       551.41483388
  -Hartree energ DENC   =     -1396.04277581
  -exchange      EXHF   =         0.00000000
  -V(xc)+E(xc)   XCENC  =        57.87715618
  PAW double counting   =      9536.98836364    -9536.05963128
  entropy T*S    EENTRO =        -0.00000000
  eigenvalues    EBANDS =      -259.91151349
  atomic energy  EATOM  =      1027.97048504
  ---------------------------------------------------
  free energy    TOTEN  =       -17.67344089 eV

  energy without entropy =      -17.67344089  energy(sigma->0) =      -17.67344089


--------------------------------------------------------------------------------------------------------




--------------------------------------- Iteration      1(   9)  ---------------------------------------


    POTLOK:  cpu time     32.6380: real time     32.6500
    SETDIJ:  cpu time      0.0679: real time      0.0679
    TRIAL :  cpu time      0.2199: real time      0.2203
    CORREC:  cpu time     32.8763: real time     32.8877
    CHARGE:  cpu time      0.1264: real time      0.1264
    --------------------------------------------
      LOOP:  cpu time     65.9403: real time     65.9821

 eigenvalue-minimisations  :     0
 total energy-change (2. order) :-0.9996216E-01  (-0.4555760E-01)
 number of electron      16.0000000 magnetization 
 augmentation part        0.0710234 magnetization 

 Free energy of the ion-electron system (eV)
  ---------------------------------------------------
  alpha Z        PSCENC =         0.08964095
  Ewald energy   TEWEN  =       551.41483388
  -Hartree energ DENC   =     -1398.87947706
  -exchange      EXHF   =         0.00000000
  -V(xc)+E(xc)   XCENC  =        57.96955977
  PAW double counting   =     10095.23925218   -10094.28303573
  entropy T*S    EENTRO =        -0.00000000
  eigenvalues    EBANDS =      -257.29466209
  atomic energy  EATOM  =      1027.97048504
  ---------------------------------------------------
  free energy    TOTEN  =       -17.77340306 eV

  energy without entropy =      -17.77340306  energy(sigma->0) =      -17.77340306


--------------------------------------------------------------------------------------------------------




--------------------------------------- Iteration      1(  10)  ---------------------------------------


    POTLOK:  cpu time     32.6431: real time     32.6543
    SETDIJ:  cpu time      0.0678: real time      0.0678
    TRIAL :  cpu time      0.2196: real time      0.2199
    CORREC:  cpu time     32.8681: real time     32.8794
    CHARGE:  cpu time      0.1249: real time      0.1256
    --------------------------------------------
      LOOP:  cpu time     65.9373: real time     65.9779

 eigenvalue-minimisations  :     0
 total energy-change (2. order) :-0.4579335E-01  (-0.1390778E-01)
 number of electron      16.0000000 magnetization 
 augmentation part        0.0722432 magnetization 

 Free energy of the ion-electron system (eV)
  ---------------------------------------------------
  alpha Z        PSCENC =         0.08964095
  Ewald energy   TEWEN  =       551.41483388
  -Hartree energ DENC   =     -1397.36436742
  -exchange      EXHF   =         0.00000000
  -V(xc)+E(xc)   XCENC  =        57.89840478
  PAW double counting   =     10394.92536698   -10393.95473678
  entropy T*S    EENTRO =        -0.00000000
  eigenvalues    EBANDS =      -258.79882385
  atomic energy  EATOM  =      1027.97048504
  ---------------------------------------------------
  free energy    TOTEN  =       -17.81919640 eV

  energy without entropy =      -17.81919640  energy(sigma->0) =      -17.81919640


--------------------------------------------------------------------------------------------------------




--------------------------------------- Iteration      1(  11)  ---------------------------------------


    POTLOK:  cpu time     32.6349: real time     32.6469
    SETDIJ:  cpu time      0.0681: real time      0.0681
    TRIAL :  cpu time      0.2206: real time      0.2211
    CORREC:  cpu time     32.9303: real time     32.9408
    CHARGE:  cpu time      0.1265: real time      0.1266
    --------------------------------------------
      LOOP:  cpu time     66.0103: real time     66.0335

 eigenvalue-minimisations  :     0
 total energy-change (2. order) :-0.1399312E-01  (-0.4937066E-02)
 number of electron      16.0000000 magnetization 
 augmentation part        0.0737762 magnetization 

 Free energy of the ion-electron system (eV)
  ---------------------------------------------------
  alpha Z        PSCENC =         0.08964095
  Ewald energy   TEWEN  =       551.41483388
  -Hartree energ DENC   =     -1396.61501738
  -exchange      EXHF   =         0.00000000
  -V(xc)+E(xc)   XCENC  =        57.86344161
  PAW double counting   =     10358.23253463   -10357.26837962
  entropy T*S    EENTRO =        -0.00000000
  eigenvalues    EBANDS =      -259.52072864
  atomic energy  EATOM  =      1027.97048504
  ---------------------------------------------------
  free energy    TOTEN  =       -17.83318952 eV

  energy without entropy =      -17.83318952  energy(sigma->0) =      -17.83318952


--------------------------------------------------------------------------------------------------------




--------------------------------------- Iteration      1(  12)  ---------------------------------------


    POTLOK:  cpu time     32.6758: real time     32.6866
    SETDIJ:  cpu time      0.0680: real time      0.0680
    TRIAL :  cpu time      0.2206: real time      0.2215
    CORREC:  cpu time     32.8163: real time     32.8278
    CHARGE:  cpu time      0.1248: real time      0.1253
    --------------------------------------------
      LOOP:  cpu time     65.9357: real time     65.9594

 eigenvalue-minimisations  :     0
 total energy-change (2. order) :-0.4943522E-02  (-0.1195998E-02)
 number of electron      16.0000000 magnetization 
 augmentation part        0.0743661 magnetization 

 Free energy of the ion-electron system (eV)
  ---------------------------------------------------
  alpha Z        PSCENC =         0.08964095
  Ewald energy   TEWEN  =       551.41483388
  -Hartree energ DENC   =     -1396.92064780
  -exchange      EXHF   =         0.00000000
  -V(xc)+E(xc)   XCENC  =        57.87047863
  PAW double counting   =     10318.80128476   -10317.85230564
  entropy T*S    EENTRO =        -0.00000000
  eigenvalues    EBANDS =      -259.21190287
  atomic energy  EATOM  =      1027.97048504
  ---------------------------------------------------
  free energy    TOTEN  =       -17.83813305 eV

  energy without entropy =      -17.83813305  energy(sigma->0) =      -17.83813305


--------------------------------------------------------------------------------------------------------




--------------------------------------- Iteration      1(  13)  ---------------------------------------


    POTLOK:  cpu time     32.5892: real time     32.6014
    SETDIJ:  cpu time      0.0679: real time      0.0679
    TRIAL :  cpu time      0.2207: real time      0.2216
    CORREC:  cpu time     32.7877: real time     32.7995
    CHARGE:  cpu time      0.1260: real time      0.1260
    --------------------------------------------
      LOOP:  cpu time     65.8040: real time     65.8460

 eigenvalue-minimisations  :     0
 total energy-change (2. order) :-0.1195618E-02  (-0.3628114E-03)
 number of electron      16.0000000 magnetization 
 augmentation part        0.0743546 magnetization 

 Free energy of the ion-electron system (eV)
  ---------------------------------------------------
  alpha Z        PSCENC =         0.08964095
  Ewald energy   TEWEN  =       551.41483388
  -Hartree energ DENC   =     -1397.04832886
  -exchange      EXHF   =         0.00000000
  -V(xc)+E(xc)   XCENC  =        57.87502812
  PAW double counting   =     10307.63653247   -10306.69240721
  entropy T*S    EENTRO =        -0.00000000
  eigenvalues    EBANDS =      -259.08511304
  atomic energy  EATOM  =      1027.97048504
  ---------------------------------------------------
  free energy    TOTEN  =       -17.83932866 eV

  energy without entropy =      -17.83932866  energy(sigma->0) =      -17.83932866


--------------------------------------------------------------------------------------------------------




--------------------------------------- Iteration      1(  14)  ---------------------------------------


    POTLOK:  cpu time     32.5413: real time     32.5531
    SETDIJ:  cpu time      0.0678: real time      0.0678
    TRIAL :  cpu time      0.2211: real time      0.2212
    CORREC:  cpu time     32.7071: real time     32.7191
    CHARGE:  cpu time      0.1260: real time      0.1260
    --------------------------------------------
      LOOP:  cpu time     65.6758: real time     65.7181

 eigenvalue-minimisations  :     0
 total energy-change (2. order) :-0.3631786E-03  (-0.9789356E-04)
 number of electron      16.0000000 magnetization 
 augmentation part        0.0742791 magnetization 

 Free energy of the ion-electron system (eV)
  ---------------------------------------------------
  alpha Z        PSCENC =         0.08964095
  Ewald energy   TEWEN  =       551.41483388
  -Hartree energ DENC   =     -1396.90298583
  -exchange      EXHF   =         0.00000000
  -V(xc)+E(xc)   XCENC  =        57.86895868
  PAW double counting   =     10299.99321723   -10299.04737681
  entropy T*S    EENTRO =        -0.00000000
  eigenvalues    EBANDS =      -259.22646497
  atomic energy  EATOM  =      1027.97048504
  ---------------------------------------------------
  free energy    TOTEN  =       -17.83969184 eV

  energy without entropy =      -17.83969184  energy(sigma->0) =      -17.83969184


--------------------------------------------------------------------------------------------------------




--------------------------------------- Iteration      1(  15)  ---------------------------------------


    POTLOK:  cpu time     32.5336: real time     32.5458
    SETDIJ:  cpu time      0.0679: real time      0.0679
    TRIAL :  cpu time      0.2204: real time      0.2204
    CORREC:  cpu time     32.7790: real time     32.7922
    CHARGE:  cpu time      0.1265: real time      0.1265
    --------------------------------------------
      LOOP:  cpu time     65.7574: real time     65.7830

 eigenvalue-minimisations  :     0
 total energy-change (2. order) :-0.9751396E-04  (-0.3118179E-04)
 number of electron      16.0000000 magnetization 
 augmentation part        0.0742525 magnetization 

 Free energy of the ion-electron system (eV)
  ---------------------------------------------------
  alpha Z        PSCENC =         0.08964095
  Ewald energy   TEWEN  =       551.41483388
  -Hartree energ DENC   =     -1396.90371821
  -exchange      EXHF   =         0.00000000
  -V(xc)+E(xc)   XCENC  =        57.86925415
  PAW double counting   =     10296.79217425   -10295.84541569
  entropy T*S    EENTRO =        -0.00000000
  eigenvalues    EBANDS =      -259.22704373
  atomic energy  EATOM  =      1027.97048504
  ---------------------------------------------------
  free energy    TOTEN  =       -17.83978936 eV

  energy without entropy =      -17.83978936  energy(sigma->0) =      -17.83978936


--------------------------------------------------------------------------------------------------------




--------------------------------------- Iteration      1(  16)  ---------------------------------------


    POTLOK:  cpu time     32.5728: real time     32.5842
    SETDIJ:  cpu time      0.0679: real time      0.0679
    TRIAL :  cpu time      0.2205: real time      0.2205
    CORREC:  cpu time     32.7162: real time     32.7279
    CHARGE:  cpu time      0.1254: real time      0.1254
    --------------------------------------------
      LOOP:  cpu time     65.7165: real time     65.7569

 eigenvalue-minimisations  :     0
 total energy-change (2. order) :-0.3103449E-04  (-0.1053642E-04)
 number of electron      16.0000000 magnetization 
 augmentation part        0.0742320 magnetization 

 Free energy of the ion-electron system (eV)
  ---------------------------------------------------
  alpha Z        PSCENC =         0.08964095
  Ewald energy   TEWEN  =       551.41483388
  -Hartree energ DENC   =     -1396.91876864
  -exchange      EXHF   =         0.00000000
  -V(xc)+E(xc)   XCENC  =        57.86988972
  PAW double counting   =     10294.29362871   -10293.34662227
  entropy T*S    EENTRO =        -0.00000000
  eigenvalues    EBANDS =      -259.21290780
  atomic energy  EATOM  =      1027.97048504
  ---------------------------------------------------
  free energy    TOTEN  =       -17.83982039 eV

  energy without entropy =      -17.83982039  energy(sigma->0) =      -17.83982039


--------------------------------------------------------------------------------------------------------




--------------------------------------- Iteration      1(  17)  ---------------------------------------


    POTLOK:  cpu time     32.4683: real time     32.4806
    SETDIJ:  cpu time      0.0679: real time      0.0679
    TRIAL :  cpu time      0.2202: real time      0.2202
    CORREC:  cpu time     32.7294: real time     32.7414
    CHARGE:  cpu time      0.1264: real time      0.1264
    --------------------------------------------
      LOOP:  cpu time     65.6270: real time     65.6686

 eigenvalue-minimisations  :     0
 total energy-change (2. order) :-0.1052608E-04  (-0.4382941E-05)
 number of electron      16.0000000 magnetization 
 augmentation part        0.0742080 magnetization 

 Free energy of the ion-electron system (eV)
  ---------------------------------------------------
  alpha Z        PSCENC =         0.08964095
  Ewald energy   TEWEN  =       551.41483388
  -Hartree energ DENC   =     -1396.91360922
  -exchange      EXHF   =         0.00000000
  -V(xc)+E(xc)   XCENC  =        57.86974645
  PAW double counting   =     10289.70071271   -10288.75363968
  entropy T*S    EENTRO =        -0.00000000
  eigenvalues    EBANDS =      -259.21800106
  atomic energy  EATOM  =      1027.97048504
  ---------------------------------------------------
  free energy    TOTEN  =       -17.83983092 eV

  energy without entropy =      -17.83983092  energy(sigma->0) =      -17.83983092


--------------------------------------------------------------------------------------------------------




--------------------------------------- Iteration      1(  18)  ---------------------------------------


    POTLOK:  cpu time     32.4433: real time     32.4550
    SETDIJ:  cpu time      0.0680: real time      0.0680
    TRIAL :  cpu time      0.2221: real time      0.2221
    CORREC:  cpu time     32.7522: real time     32.7648
    CHARGE:  cpu time      0.1260: real time      0.1260
    --------------------------------------------
      LOOP:  cpu time     65.6239: real time     65.6662

 eigenvalue-minimisations  :     0
 total energy-change (2. order) :-0.4353506E-05  (-0.1800686E-05)
 number of electron      16.0000000 magnetization 
 augmentation part        0.0741816 magnetization 

 Free energy of the ion-electron system (eV)
  ---------------------------------------------------
  alpha Z        PSCENC =         0.08964095
  Ewald energy   TEWEN  =       551.41483388
  -Hartree energ DENC   =     -1396.91790031
  -exchange      EXHF   =         0.00000000
  -V(xc)+E(xc)   XCENC  =        57.86998396
  PAW double counting   =     10285.96395456   -10285.01694260
  entropy T*S    EENTRO =        -0.00000000
  eigenvalues    EBANDS =      -259.21389076
  atomic energy  EATOM  =      1027.97048504
  ---------------------------------------------------
  free energy    TOTEN  =       -17.83983527 eV

  energy without entropy =      -17.83983527  energy(sigma->0) =      -17.83983527


--------------------------------------------------------------------------------------------------------




--------------------------------------- Iteration      1(  19)  ---------------------------------------


    POTLOK:  cpu time     32.4613: real time     32.4739
    SETDIJ:  cpu time      0.0680: real time      0.0680
    TRIAL :  cpu time      0.2219: real time      0.2220
    CORREC:  cpu time     32.7321: real time     32.7446
    CHARGE:  cpu time      0.1264: real time      0.1264
    --------------------------------------------
      LOOP:  cpu time     65.6217: real time     65.6656

 eigenvalue-minimisations  :     0
 total energy-change (2. order) :-0.1751987E-05  (-0.7768560E-06)
 number of electron      16.0000000 magnetization 
 augmentation part        0.0741646 magnetization 

 Free energy of the ion-electron system (eV)
  ---------------------------------------------------
  alpha Z        PSCENC =         0.08964095
  Ewald energy   TEWEN  =       551.41483388
  -Hartree energ DENC   =     -1396.91530619
  -exchange      EXHF   =         0.00000000
  -V(xc)+E(xc)   XCENC  =        57.86976064
  PAW double counting   =     10285.59501361   -10284.64791456
  entropy T*S    EENTRO =        -0.00000000
  eigenvalues    EBANDS =      -259.21635040
  atomic energy  EATOM  =      1027.97048504
  ---------------------------------------------------
  free energy    TOTEN  =       -17.83983702 eV

  energy without entropy =      -17.83983702  energy(sigma->0) =      -17.83983702


--------------------------------------------------------------------------------------------------------




--------------------------------------- Iteration      1(  20)  ---------------------------------------


    POTLOK:  cpu time     32.4611: real time     32.4733
    SETDIJ:  cpu time      0.0680: real time      0.0680
    TRIAL :  cpu time      0.2216: real time      0.2216
    CORREC:  cpu time     32.7965: real time     32.8088
    CHARGE:  cpu time      0.1246: real time      0.1247
    --------------------------------------------
      LOOP:  cpu time     65.6828: real time     65.7255

 eigenvalue-minimisations  :     0
 total energy-change (2. order) :-0.7152667E-06  (-0.2934550E-06)
 number of electron      16.0000000 magnetization 
 augmentation part        0.0741535 magnetization 

 Free energy of the ion-electron system (eV)
  ---------------------------------------------------
  alpha Z        PSCENC =         0.08964095
  Ewald energy   TEWEN  =       551.41483388
  -Hartree energ DENC   =     -1396.91824203
  -exchange      EXHF   =         0.00000000
  -V(xc)+E(xc)   XCENC  =        57.86989108
  PAW double counting   =     10287.39419683   -10286.44704481
  entropy T*S    EENTRO =        -0.00000000
  eigenvalues    EBANDS =      -259.21359869
  atomic energy  EATOM  =      1027.97048504
  ---------------------------------------------------
  free energy    TOTEN  =       -17.83983774 eV

  energy without entropy =      -17.83983774  energy(sigma->0) =      -17.83983774


--------------------------------------------------------------------------------------------------------




--------------------------------------- Iteration      1(  21)  ---------------------------------------


    POTLOK:  cpu time     32.4811: real time     32.4935
    SETDIJ:  cpu time      0.0679: real time      0.0679
    TRIAL :  cpu time      0.2213: real time      0.2213
    CORREC:  cpu time     32.7572: real time     32.7696
    CHARGE:  cpu time      0.1265: real time      0.1265
    --------------------------------------------
      LOOP:  cpu time     65.6663: real time     65.7096

 eigenvalue-minimisations  :     0
 total energy-change (2. order) :-0.2494653E-06  (-0.9910020E-07)
 number of electron      16.0000000 magnetization 
 augmentation part        0.0741504 magnetization 

 Free energy of the ion-electron system (eV)
  ---------------------------------------------------
  alpha Z        PSCENC =         0.08964095
  Ewald energy   TEWEN  =       551.41483388
  -Hartree energ DENC   =     -1396.91727880
  -exchange      EXHF   =         0.00000000
  -V(xc)+E(xc)   XCENC  =        57.86985541
  PAW double counting   =     10289.22476733   -10288.27753272
  entropy T*S    EENTRO =        -0.00000000
  eigenvalues    EBANDS =      -259.21460908
  atomic energy  EATOM  =      1027.97048504
  ---------------------------------------------------
  free energy    TOTEN  =       -17.83983799 eV

  energy without entropy =      -17.83983799  energy(sigma->0) =      -17.83983799


--------------------------------------------------------------------------------------------------------




--------------------------------------- Iteration      1(  22)  ---------------------------------------


    POTLOK:  cpu time     32.4982: real time     32.5104
    SETDIJ:  cpu time      0.0678: real time      0.0678
    TRIAL :  cpu time      0.2226: real time      0.2227
    CORREC:  cpu time     32.7005: real time     32.7126
    EDDIAG:  cpu time      0.0992: real time      0.0996
    CHARGE:  cpu time      0.1258: real time      0.1258
    --------------------------------------------
      LOOP:  cpu time     65.7252: real time     65.7688

 eigenvalue-minimisations  :     0
 total energy-change (2. order) :-0.8702045E-07  (-0.2263551E-07)
 number of electron      16.0000000 magnetization 
 augmentation part        0.0741514 magnetization 

 Free energy of the ion-electron system (eV)
  ---------------------------------------------------
  alpha Z        PSCENC =         0.08964095
  Ewald energy   TEWEN  =       551.41483388
  -Hartree energ DENC   =     -1396.91792581
  -exchange      EXHF   =         0.00000000
  -V(xc)+E(xc)   XCENC  =        57.86988853
  PAW double counting   =     10289.93157952   -10288.98431930
  entropy T*S    EENTRO =        -0.00000000
  eigenvalues    EBANDS =      -259.21402089
  atomic energy  EATOM  =      1027.97048504
  ---------------------------------------------------
  free energy    TOTEN  =       -17.83983807 eV

  energy without entropy =      -17.83983807  energy(sigma->0) =      -17.83983807


--------------------------------------------------------------------------------------------------------


  average scaling for gradient   0.9233


 average (electrostatic) potential at core
  the test charge radii are     0.5770  0.5955
  (the norm of the test charge is              1.0000)
       1 -92.4057       2-122.1574       3-122.2350



 E-fermi :  -9.3322     XC(G=0):  -0.1443     alpha+bet : -0.0337

 Fermi energy:        -9.3322270045

 k-point     1 :       0.0000    0.0000    0.0000
  band No.  band energies     occupation 
      1     -29.3638      2.00000
      2     -28.3977      2.00000
      3     -14.1326      2.00000
      4     -13.0515      2.00000
      5     -12.9377      2.00000
      6     -12.9377      2.00000
      7      -9.3931      2.00000
      8      -9.3930      2.00000
      9      -1.4879      0.00000
     10      -0.8917      0.00000
     11      -0.8884      0.00000
     12       0.0286      0.00000


--------------------------------------------------------------------------------------------------------


 soft charge-density along one line, spin component           1
         0         1         2         3         4         5         6         7         8         9
 total charge-density along one line

 pseudopotential strength for first ion, spin component:           1
 12.835  21.606   0.001   0.001  -0.001   0.001   0.001  -0.001
 21.606  36.369   0.001   0.001  -0.001   0.002   0.002  -0.002
  0.001   0.001  -3.419   0.019  -0.019  -6.133   0.033  -0.034
  0.001   0.001   0.019  -3.419  -0.019   0.033  -6.135  -0.033
 -0.001  -0.001  -0.019  -0.019  -3.419  -0.034  -0.033  -6.133
  0.001   0.002  -6.133   0.033  -0.034 -10.981   0.058  -0.060
  0.001   0.002   0.033  -6.135  -0.033   0.058 -10.984  -0.058
 -0.001  -0.002  -0.034  -0.033  -6.133  -0.060  -0.058 -10.981
 total augmentation occupancy for first ion, spin component:           1
  8.520  -3.285   0.068   0.128  -0.131  -0.031  -0.056   0.058
 -3.285   1.445  -0.030  -0.057   0.059   0.014   0.025  -0.025
  0.068  -0.030   6.252   3.715  -3.798  -2.159  -1.594   1.629
  0.128  -0.057   3.715   6.087  -3.714  -1.594  -2.088   1.593
 -0.131   0.059  -3.798  -3.714   6.251   1.629   1.593  -2.158
 -0.031   0.014  -2.159  -1.594   1.629   0.804   0.675  -0.690
 -0.056   0.025  -1.594  -2.088   1.593   0.675   0.774  -0.674
  0.058  -0.025   1.629   1.593  -2.158  -0.690  -0.674   0.804


------------------------ aborting loop because EDIFF is reached ----------------------------------------


    FORLOC:  cpu time      0.0296: real time      0.0296
    FORNL :  cpu time      0.0113: real time      0.0115
    STRESS:  cpu time      0.1248: real time      0.1252
    FORCOR:  cpu time     32.3781: real time     32.3906
    OFIELD:  cpu time      0.0054: real time      0.0054

  FORCE on cell =-STRESS in cart. coord.  units (eV):
  Direction    XX          YY          ZZ          XY          YZ          ZX
  --------------------------------------------------------------------------------------
  Alpha Z     0.08964     0.08964     0.08964
  Ewald     187.69780   187.92873   175.78830  -273.62111   267.63906  -267.54050
  Hartree   467.51197   467.63468   461.77124  -130.86365   128.00297  -127.94750
  E(xc)     -79.86173   -79.86045   -79.93200    -1.62531     1.58977    -1.58923
  Local    -980.62431  -980.95793  -963.95568   381.78366  -373.43731   373.28983
  n-local   -24.93261   -24.92814   -25.03093    -2.27410     2.22437    -2.22277
  augment     1.13288     1.13234     1.14122     0.19127    -0.18706     0.18688
  Kinetic   428.98654   428.95371   430.12822    26.40646   -25.82906    25.81724
  Fock        0.00000     0.00000     0.00000     0.00000     0.00000     0.00000
  -------------------------------------------------------------------------------------
  Total       0.00019    -0.00741     0.00001    -0.00277     0.00274    -0.00605
  in kB       0.00004    -0.00148     0.00000    -0.00055     0.00055    -0.00121
  external pressure =       -0.00 kB  Pullay stress =        0.00 kB


 VOLUME and BASIS-vectors are now :
 -----------------------------------------------------------------------------
  energy-cutoff  :     1000.00
  volume of cell :     8000.00
      direct lattice vectors                 reciprocal lattice vectors
    20.000000000  0.000000000  0.000000000     0.050000000  0.000000000  0.000000000
     0.000000000 20.000000000  0.000000000     0.000000000  0.050000000  0.000000000
     0.000000000  0.000000000 20.000000000     0.000000000  0.000000000  0.050000000

  length of vectors
    20.000000000 20.000000000 20.000000000     0.050000000  0.050000000  0.050000000


 FORCES acting on ions:
    Electron-Ion                     Ewald-Force                    Non-Local-Force
 -----------------------------------------------------------------------------------------------
   -.327E+01 -.269E+00 0.320E+01   0.350E+01 -.553E-01 -.342E+01   0.205E+00 -.210E+00 -.201E+00
   -.164E+03 0.165E+03 0.160E+03   0.199E+03 -.201E+03 -.195E+03   -.360E+02 0.366E+02 0.352E+02
   0.167E+03 -.165E+03 -.163E+03   -.203E+03 0.201E+03 0.198E+03   0.364E+02 -.358E+02 -.356E+02
 -----------------------------------------------------------------------------------------------
   -.605E+00 -.505E+00 0.592E+00   0.000E+00 0.000E+00 0.284E-13   0.606E+00 0.505E+00 -.592E+00


 POSITION                                       TOTAL-FORCE (eV/Angst)
 -----------------------------------------------------------------------------------
      4.81159      4.82052      5.62291         0.421873     -0.525288     -0.412617
      5.49222      4.13156      4.95716        -0.206543      0.260734      0.202022
      4.13096      5.49347      6.28866        -0.215330      0.264554      0.210595
 -----------------------------------------------------------------------------------
    total drift:                                0.000191      0.000255     -0.000310


--------------------------------------------------------------------------------------------------------



  FREE ENERGIE OF THE ION-ELECTRON SYSTEM (eV)
  ---------------------------------------------------
  free  energy   TOTEN  =       -17.83983807 eV

  energy  without entropy=      -17.83983807  energy(sigma->0) =      -17.83983807



--------------------------------------------------------------------------------------------------------


    POTLOK:  cpu time     32.5855: real time     32.5976


--------------------------------------------------------------------------------------------------------


 stress matrix after NEB project (eV)
      0.00019     -0.00277     -0.00605
     -0.00277     -0.00741      0.00274
     -0.00605      0.00274      0.00001
  FORCES: max atom, RMS     0.790036    0.558664
  FORCE total and by dimension    0.967635    0.525288
  Stress total and by dimension    0.012592    0.007412
     LOOP+:  cpu time   1219.4702: real time   1220.2516
    4ORBIT:  cpu time      0.0000: real time      0.0000

 total amount of memory used by VASP MPI-rank0   114032. kBytes
=======================================================================

   base      :      30000. kBytes
   nonl-proj :       1580. kBytes
   fftplans  :      29139. kBytes
   grid      :      52019. kBytes
   one-center:          1. kBytes
   wavefun   :       1293. kBytes

  
  
 General timing and accounting informations for this job:
 ========================================================
  
                  Total CPU time used (sec):     1231.530
                            User time (sec):     1219.314
                          System time (sec):       12.216
                         Elapsed time (sec):     1232.387
  
                   Maximum memory used (kb):      699116.
                   Average memory used (kb):          N/A
  
                          Minor page faults:       336407
                          Major page faults:         1157
                 Voluntary context switches:         2830
