 vasp.6.4.1 05Apr23 (build Jun  6 2023 14:46:38) gamma-only                      
 executed on        HPECrayEX_GCC date 2024.07.05  20:58:57
 running  128 mpi-ranks, with    1 threads/rank, on    1 nodes
 distrk:  each k-point on  128 cores,    1 groups
 distr:  one band on NCORE=  32 cores,    4 groups


--------------------------------------------------------------------------------------------------------


 INCAR:
   NPAR = 4
   ISMEAR = 0
   SIGMA = 0.01
   PREC = Accurate
   EDIFF = 1E-7
   ENCUT = 1000
   ISIF = 2
   GGA = ML
   LUSE_VDW = .TRUE.
   ZAB_VDW = -1.8867
   AGGAC = 0.0000
   LASPH = .TRUE.
   SYMPREC = 1E-7
   ALGO = Conjugate
   LWAVE = .FALSE.
   LCHARG = .FALSE.

 POTCAR:    PAW_PBE C_h 06Feb2004                 
 POTCAR:    PAW_PBE O_h 06Feb2004                 
 -----------------------------------------------------------------------------
|                                                                             |
|               ----> ADVICE to this user running VASP <----                  |
|                                                                             |
|     You have switched on vdW-DFT.                                           |
|     This routine was written and supplied by Jiri Klimes. We recommend      |
|     that you carefully read and cite the following publications:            |
|       J. Klimes, D.R. Bowler, A. Michelides                                 |
|          J. Phys.: Cond Matt. 22 022201 (2010)                              |
|       J. Klimes, D.R. Bowler, A. Michelides                                 |
|          Phys. Rev. B. 83, 195131 (2011)                                    |
|     and references therein.                                                 |
|                                                                             |
 -----------------------------------------------------------------------------

 POTCAR:    PAW_PBE C_h 06Feb2004                 
   VRHFIN =C: s2p2                                                                                  
   LEXCH  = PE                                                                                      
   EATOM  =   147.1560 eV,   10.8157 Ry                                                             
                                                                                                    
   TITEL  = PAW_PBE C_h 06Feb2004                                                                   
   LULTRA =        F    use ultrasoft PP ?                                                          
   IUNSCR =        1    unscreen: 0-lin 1-nonlin 2-no                                               
   RPACOR =    0.800    partial core radius                                                         
   POMASS =   12.011; ZVAL   =    4.000    mass and valenz                                          
   RCORE  =    1.100    outmost cutoff radius                                                       
   RWIGS  =    1.630; RWIGS  =    0.863    wigner-seitz radius (au A)                               
   ENMAX  =  700.000; ENMIN  =  500.000 eV                                                          
   ICORE  =        2    local potential                                                             
   LCOR   =        T    correct aug charges                                                         
   LPAW   =        T    paw PP                                                                      
   EAUG   =  946.768                                                                                
   DEXC   =    0.000                                                                                
   RMAX   =    1.128    core radius for proj-oper                                                   
   RAUG   =    1.300    factor for augmentation sphere                                              
   RDEP   =    1.162    radius for radial grids                                                     
   RDEPT  =    1.088    core radius for aug-charge                                                  
                                                                                                    
   Atomic configuration                                                                             
    4 entries                                                                                       
     n  l   j            E        occ.                                                              
     1  0  0.50      -273.3789   2.0000                                                             
     2  0  0.50       -13.7508   2.0000                                                             
     2  1  0.50        -5.2854   2.0000                                                             
     3  2  1.50        -5.4423   0.0000                                                             
   Description                                                                                      
     l       E           TYP  RCUT    TYP  RCUT                                                     
     0    -13.7508458     23  1.100                                                                 
     0     -8.2022199     23  1.100                                                                 
     1     -5.2854383     23  1.100                                                                 
     1      1.1560700     23  1.100                                                                 
     2     -5.4423304      7  1.100                                                                 
  local pseudopotential read in
  partial core-charges read in
  partial kinetic energy density read in
  atomic valenz-charges read in
  non local Contribution for L=           0  read in
    real space projection operators read in
  non local Contribution for L=           0  read in
    real space projection operators read in
  non local Contribution for L=           1  read in
    real space projection operators read in
  non local Contribution for L=           1  read in
    real space projection operators read in
    PAW grid and wavefunctions read in

   number of l-projection  operators is LMAX  =           4
   number of lm-projection operators is LMMAX =           8

 POTCAR:    PAW_PBE O_h 06Feb2004                 
   VRHFIN =O: s2p4                                                                                  
   LEXCH  = PE                                                                                      
   EATOM  =   432.3788 eV,   31.7789 Ry                                                             
                                                                                                    
   TITEL  = PAW_PBE O_h 06Feb2004                                                                   
   LULTRA =        F    use ultrasoft PP ?                                                          
   IUNSCR =        1    unscreen: 0-lin 1-nonlin 2-no                                               
   RPACOR =    0.800    partial core radius                                                         
   POMASS =   16.000; ZVAL   =    6.000    mass and valenz                                          
   RCORE  =    1.100    outmost cutoff radius                                                       
   RWIGS  =    1.400; RWIGS  =    0.741    wigner-seitz radius (au A)                               
   ENMAX  =  700.000; ENMIN  =  500.000 eV                                                          
   ICORE  =        2    local potential                                                             
   LCOR   =        T    correct aug charges                                                         
   LPAW   =        T    paw PP                                                                      
   EAUG   =  888.804                                                                                
   DEXC   =    0.000                                                                                
   RMAX   =    1.128    core radius for proj-oper                                                   
   RAUG   =    1.300    factor for augmentation sphere                                              
   RDEP   =    1.125    radius for radial grids                                                     
   RDEPT  =    1.088    core radius for aug-charge                                                  
                                                                                                    
   Atomic configuration                                                                             
    4 entries                                                                                       
     n  l   j            E        occ.                                                              
     1  0  0.50      -514.6923   2.0000                                                             
     2  0  0.50       -23.9615   2.0000                                                             
     2  1  0.50        -9.0305   4.0000                                                             
     3  2  1.50        -9.5241   0.0000                                                             
   Description                                                                                      
     l       E           TYP  RCUT    TYP  RCUT                                                     
     0    -23.9615319     23  1.100                                                                 
     0    -25.3221145     23  1.100                                                                 
     1     -9.0304911     23  1.100                                                                 
     1     -5.4802209     23  1.100                                                                 
     2     -9.5240782      7  1.100                                                                 
  local pseudopotential read in
  partial core-charges read in
  partial kinetic energy density read in
  atomic valenz-charges read in
  non local Contribution for L=           0  read in
    real space projection operators read in
  non local Contribution for L=           0  read in
    real space projection operators read in
  non local Contribution for L=           1  read in
    real space projection operators read in
  non local Contribution for L=           1  read in
    real space projection operators read in
    PAW grid and wavefunctions read in

   number of l-projection  operators is LMAX  =           4
   number of lm-projection operators is LMMAX =           8

 -----------------------------------------------------------------------------
|                                                                             |
|               ----> ADVICE to this user running VASP <----                  |
|                                                                             |
|     You enforced a specific xc type in the INCAR file but a different       |
|     type was found in the POTCAR file.                                      |
|     I HOPE YOU KNOW WHAT YOU ARE DOING!                                     |
|                                                                             |
 -----------------------------------------------------------------------------

  PAW_PBE C_h 06Feb2004                 :
 energy of atom  1       EATOM= -147.1560
 kinetic energy error for atom=    0.0031 (will be added to EATOM!!)
  PAW_PBE O_h 06Feb2004                 :
 energy of atom  2       EATOM= -432.3788
 kinetic energy error for atom=    0.0171 (will be added to EATOM!!)


 POSCAR: super cell
  positions in direct lattice
  No initial velocities read in
 exchange correlation table for  LEXCH =       44
   RHO(1)=    0.500       N(1)  =     2000
   RHO(2)=  100.500       N(2)  =     4000

 VTST: version 4.1, (05/19/21)

 CHAIN: initializing optimizer
 
 OPT: Using VASP Dynamics algorithm
 CHAIN: Read ICHAIN            0

 POSCAR: super cell
  positions in direct lattice
  No initial velocities read in



--------------------------------------------------------------------------------------------------------


 ion  position               nearest neighbor table
   1  0.241  0.241  0.281-   2 1.17   3 1.17
   2  0.275  0.207  0.248-   1 1.17
   3  0.207  0.275  0.314-   1 1.17

  LATTYP: Found a simple cubic cell.
 ALAT       =    20.0000000000
  
  Lattice vectors:
  
 A1 = (  20.0000000000,   0.0000000000,   0.0000000000)
 A2 = (   0.0000000000,  20.0000000000,   0.0000000000)
 A3 = (   0.0000000000,   0.0000000000,  20.0000000000)


Analysis of symmetry for initial positions (statically):
=====================================================================
 Subroutine PRICEL returns:
 Original cell was already a primitive cell.
 

 Routine SETGRP: Setting up the symmetry group for a 
 simple cubic supercell.


 Subroutine GETGRP returns: Found  1 space group operations
 (whereof  1 operations were pure point group operations)
 out of a pool of 48 trial point group operations.


The static configuration has the point symmetry C_1 .


Analysis of symmetry for dynamics (positions and initial velocities):
=====================================================================
 Subroutine PRICEL returns:
 Original cell was already a primitive cell.
 

 Routine SETGRP: Setting up the symmetry group for a 
 simple cubic supercell.


 Subroutine GETGRP returns: Found  1 space group operations
 (whereof  1 operations were pure point group operations)
 out of a pool of 48 trial point group operations.


The dynamic configuration has the point symmetry C_1 .


 Subroutine INISYM returns: Found  1 space group operations
 (whereof  1 operations are pure point group operations),
 and found     1 'primitive' translations


----------------------------------------------------------------------------------------

                                     Primitive cell                                     

  volume of cell :    8000.0000

  direct lattice vectors                    reciprocal lattice vectors
    20.000000000  0.000000000  0.000000000     0.050000000  0.000000000  0.000000000
     0.000000000 20.000000000  0.000000000     0.000000000  0.050000000  0.000000000
     0.000000000  0.000000000 20.000000000     0.000000000  0.000000000  0.050000000

  length of vectors
    20.000000000 20.000000000 20.000000000     0.050000000  0.050000000  0.050000000

  position of ions in fractional coordinates (direct lattice)
     0.240579500  0.240625833  0.281145500
     0.274611147  0.206578165  0.248257939
     0.206547853  0.274673502  0.314433061

  ion indices of the primitive-cell ions
   primitive index   ion index
                 1           1
                 2           2
                 3           3

----------------------------------------------------------------------------------------



 KPOINTS: auto                                    

Automatic generation of k-mesh.
 Grid dimensions read from file:
 generate k-points for:    1    1    1

 Generating k-lattice:

  Cartesian coordinates                     Fractional coordinates (reciprocal lattice)
     0.050000000  0.000000000  0.000000000     1.000000000  0.000000000  0.000000000
     0.000000000  0.050000000  0.000000000     0.000000000  1.000000000  0.000000000
     0.000000000  0.000000000  0.050000000     0.000000000  0.000000000  1.000000000

  Length of vectors
     0.050000000  0.050000000  0.050000000

  Shift w.r.t. Gamma in fractional coordinates (k-lattice)
     0.000000000  0.000000000  0.000000000

 
 Subroutine IBZKPT returns following result:
 ===========================================
 
 Found      1 irreducible k-points:
 
 Following reciprocal coordinates:
            Coordinates               Weight
  0.000000  0.000000  0.000000      1.000000
 
 Following cartesian coordinates:
            Coordinates               Weight
  0.000000  0.000000  0.000000      1.000000
 


--------------------------------------------------------------------------------------------------------




 Dimension of arrays:
   k-points           NKPTS =      1   k-points in BZ     NKDIM =      1   number of bands    NBANDS=     12
   number of dos      NEDOS =    301   number of ions     NIONS =      3
   non local maximal  LDIM  =      4   non local SUM 2l+1 LMDIM =      8
   total plane-waves  NPLWV = ******
   max r-space proj   IRMAX =      1   max aug-charges    IRDMAX=   8641
   dimension x,y,z NGX =   210 NGY =  210 NGZ =  210
   dimension x,y,z NGXF=   420 NGYF=  420 NGZF=  420
   support grid    NGXF=   420 NGYF=  420 NGZF=  420
   ions per type =               1   2
   NGX,Y,Z   is equivalent  to a cutoff of  17.46, 17.46, 17.46 a.u.
   NGXF,Y,Z  is equivalent  to a cutoff of  34.91, 34.91, 34.91 a.u.

 SYSTEM =  unknown system                          
 POSCAR =  super cell                              

 Startparameter for this run:
   NWRITE =      2    write-flag & timer
   PREC   = accura    normal or accurate (medium, high low for compatibility)
   ISTART =      0    job   : 0-new  1-cont  2-samecut
   ICHARG =      2    charge: 1-file 2-atom 10-const
   ISPIN  =      1    spin polarized calculation?
   LNONCOLLINEAR =      F non collinear calculations
   LSORBIT =      F    spin-orbit coupling
   INIWAV =      1    electr: 0-lowe 1-rand  2-diag
   LASPH  =      T    aspherical Exc in radial PAW
 Electronic Relaxation 1
   ENCUT  = 1000.0 eV  73.50 Ry    8.57 a.u.  51.57 51.57 51.57*2*pi/ulx,y,z
   ENINI  = 1000.0     initial cutoff
   ENAUG  =  946.8 eV  augmentation charge cutoff
   NELM   =     60;   NELMIN=  2; NELMDL=  0     # of ELM steps 
   EDIFF  = 0.1E-06   stopping-criterion for ELM
   LREAL  =      F    real-space projection
   NLSPLINE    = F    spline interpolate recip. space projectors
   LCOMPAT=      F    compatible to vasp.4.4
   GGA_COMPAT  = T    GGA compatible to vasp.4.4-vasp.4.6
   LMAXPAW     = -100 max onsite density
   LMAXMIX     =    2 max onsite mixed and CHGCAR
   VOSKOWN=      0    Vosko Wilk Nusair interpolation
   ROPT   =    0.00000   0.00000
 Ionic relaxation
   EDIFFG = 0.1E-05   stopping-criterion for IOM
   NSW    =      0    number of steps for IOM
   NBLOCK =      1;   KBLOCK =      1    inner block; outer block 
   IBRION =     -1    ionic relax: 0-MD 1-quasi-New 2-CG
   NFREE  =      0    steps in history (QN), initial steepest desc. (CG)
   ISIF   =      2    stress and relaxation
   IWAVPR =     10    prediction:  0-non 1-charg 2-wave 3-comb
   ISYM   =      2    0-nonsym 1-usesym 2-fastsym
   LCORR  =      T    Harris-Foulkes like correction to forces

   POTIM  = 0.5000    time-step for ionic-motion
   TEIN   =    0.0    initial temperature
   TEBEG  =    0.0;   TEEND  =   0.0 temperature during run
   SMASS  =  -3.00    Nose mass-parameter (am)
   estimated Nose-frequenzy (Omega)   =  0.10E-29 period in steps = 0.13E+47 mass=  -0.914E-26a.u.
   SCALEE = 1.0000    scale energy and forces
   NPACO  =    256;   APACO  = 10.0  distance and # of slots for P.C.
   PSTRESS=    0.0 pullay stress

  Mass of Ions in am
   POMASS =  12.01 16.00
  Ionic Valenz
   ZVAL   =   4.00  6.00
  Atomic Wigner-Seitz radii
   RWIGS  =  -1.00 -1.00
  virtual crystal weights 
   VCA    =   1.00  1.00
   NELECT =      16.0000    total number of electrons
   NUPDOWN=      -1.0000    fix difference up-down

 DOS related values:
   EMIN   =  10.00;   EMAX   =-10.00  energy-range for DOS
   EFERMI =   0.00;   METHOD = LEGACY      
   ISMEAR =     0;   SIGMA  =   0.01  broadening in eV -4-tet -1-fermi 0-gaus

 Electronic relaxation 2 (details)
   IALGO  =     58    algorithm
   LDIAG  =      T    sub-space diagonalisation (order eigenvalues)
   LSUBROT=      F    optimize rotation matrix (better conditioning)
   TURBO    =      0    0=normal 1=particle mesh
   IRESTART =      0    0=no restart 2=restart with 2 vectors
   NREBOOT  =      0    no. of reboots
   NMIN     =      0    reboot dimension
   EREF     =   0.00    reference energy to select bands
   IMIX   =      4    mixing-type and parameters
     AMIX     =   0.40;   BMIX     =  1.00
     AMIX_MAG =   1.60;   BMIX_MAG =  1.00
     AMIN     =   0.10
     WC   =   100.;   INIMIX=   1;  MIXPRE=   1;  MAXMIX= -45

 Intra band minimization:
   WEIMIN = 0.0000     energy-eigenvalue tresh-hold
   EBREAK =  0.21E-08  absolut break condition
   DEPER  =   0.30     relativ break condition  

   TIME   =   0.40     timestep for ELM

  volume/ion in A,a.u.               =    2666.67     17995.55
  Fermi-wavevector in a.u.,A,eV,Ry     =   0.206261  0.389778  0.578844  0.042544
  Thomas-Fermi vector in A             =   0.968418

 Write flags
   LWAVE        =      F    write WAVECAR
   LDOWNSAMPLE  =      F    k-point downsampling of WAVECAR
   LCHARG       =      F    write CHGCAR
   LVTOT        =      F    write LOCPOT, total local potential
   LVHAR        =      F    write LOCPOT, Hartree potential only
   LELF         =      F    write electronic localiz. function (ELF)
   LORBIT       =      0    0 simple, 1 ext, 2 COOP (PROOUT), +10 PAW based schemes


 Dipole corrections
   LMONO  =      F    monopole corrections only (constant potential shift)
   LDIPOL =      F    correct potential (dipole corrections)
   IDIPOL =      0    1-x, 2-y, 3-z, 4-all directions 
   EPSILON=  1.0000000 bulk dielectric constant

 Exchange correlation treatment:
   GGA     =    ML    GGA type
   LEXCH   =    44    internal setting for exchange type
   LIBXC   =     F    Libxc                    
   VOSKOWN =     0    Vosko Wilk Nusair interpolation
   LHFCALC =     F    Hartree Fock is set to
   LHFONE  =     F    Hartree Fock one center treatment
   AEXX    =    0.0000 exact exchange contribution

 vdW DFT:
   LUSE_VDW   =     T    switch on vdW DFT
   IVDW_NL    =     1    kernel type
   LSPIN_VDW  =     F    use spin-polarized vdW DFT
   Zab_VDW    =******    correlation parameter
   PARAM1     =0.1234
   PARAM2     =1.0000
   PARAM3     =0.0000
   -- rVV10 --
   BPARAM     = 6.3000
   CPARAM     = 0.0093

 Linear response parameters
   LEPSILON=     F    determine dielectric tensor
   LRPA    =     F    only Hartree local field effects (RPA)
   LNABLA  =     F    use nabla operator in PAW spheres
   LVEL    =     F    velocity operator in full k-point grid
   CSHIFT  =0.1000    complex shift for real part using Kramers Kronig
   OMEGAMAX=  -1.0    maximum frequency
   DEG_THRESHOLD= 0.2000000E-02 threshold for treating states as degnerate
   RTIME   =   -0.100 relaxation time in fs
  (WPLASMAI=    0.000 imaginary part of plasma frequency in eV, 0.658/RTIME)
   DFIELD  = 0.0000000 0.0000000 0.0000000 field for delta impulse in time

  Optional k-point grid parameters
   LKPOINTS_OPT  =     F    use optional k-point grid
   KPOINTS_OPT_MODE=     1    mode for optional k-point grid

 Orbital magnetization related:
   ORBITALMAG=     F  switch on orbital magnetization
   LCHIMAG   =     F  perturbation theory with respect to B field
   DQ        =  0.001000  dq finite difference perturbation B field
   LLRAUG    =     F  two centre corrections for induced B field
   LBONE     =     F  B-component reconstruction in AE one-centre
   LVGVCALC  =     T  calculate vGv susceptibility
   LVGVAPPL  =     F  apply vGv susceptibility instead of pGv for G=0

 Random number generation:
   RANDOM_GENERATOR = DEFAULT
   PCG_SEED         = not used


--------------------------------------------------------------------------------------------------------


 Static calculation
 charge density and potential will be updated during run
 non-spin polarized calculation
 Conjugate gradient for all bands (Freysoldt, et al. PRB 79, 241103 (2009))
 preconditioned conjugated gradient                                        
 perform sub-space diagonalisation
    before iterative eigenvector-optimisation
 modified Broyden-mixing scheme, WC =      100.0
 initial mixing is a Kerker type mixing with AMIX =  0.4000 and BMIX =      1.0000
 Hartree-type preconditioning will be used
 using additional bands            4
 reciprocal scheme for non local part
 use partial core corrections
 no Harris-corrections to forces 
 use gradient corrections 
 use of overlap-Matrix (Vanderbilt PP)
 Gauss-broadening in eV      SIGMA  =   0.01


--------------------------------------------------------------------------------------------------------


  energy-cutoff  :     1000.00
  volume of cell :     8000.00
      direct lattice vectors                 reciprocal lattice vectors
    20.000000000  0.000000000  0.000000000     0.050000000  0.000000000  0.000000000
     0.000000000 20.000000000  0.000000000     0.000000000  0.050000000  0.000000000
     0.000000000  0.000000000 20.000000000     0.000000000  0.000000000  0.050000000

  length of vectors
    20.000000000 20.000000000 20.000000000     0.050000000  0.050000000  0.050000000



 k-points in units of 2pi/SCALE and weight: auto                                    
   0.00000000  0.00000000  0.00000000       1.000

 k-points in reciprocal lattice and weights: auto                                    
   0.00000000  0.00000000  0.00000000       1.000

 position of ions in fractional coordinates (direct lattice) 
   0.24057950  0.24062583  0.28114550
   0.27461115  0.20657817  0.24825794
   0.20654785  0.27467350  0.31443306

 position of ions in cartesian coordinates  (Angst):
   4.81159000  4.81251666  5.62291000
   5.49222294  4.13156330  4.96515878
   4.13095706  5.49347004  6.28866122



--------------------------------------------------------------------------------------------------------


 use parallel FFT for orbitals z direction half grid
 k-point   1 :   0.0000 0.0000 0.0000  plane waves:  287166

 maximum and minimum number of plane-waves per node :      8979     8970

 maximum number of plane-waves:    287166
 maximum index in each direction: 
   IXMAX=   51   IYMAX=   51   IZMAX=   51
   IXMIN=  -51   IYMIN=  -51   IZMIN=    0


 parallel 3D FFT for wavefunctions:
    minimum data exchange during FFTs selected (reduces bandwidth)
 parallel 3D FFT for charge:
    minimum data exchange during FFTs selected (reduces bandwidth)


 total amount of memory used by VASP MPI-rank0   114032. kBytes
=======================================================================

   base      :      30000. kBytes
   nonl-proj :       1580. kBytes
   fftplans  :      29139. kBytes
   grid      :      52019. kBytes
   one-center:          1. kBytes
   wavefun   :       1293. kBytes

     INWAV:  cpu time      0.0001: real time      0.0001
 Broyden mixing: mesh for mixing (old mesh)
   NGX =103   NGY =103   NGZ =103
  (NGX  =420   NGY  =420   NGZ  =420)
  gives a total of ****** points

 initial charge density was supplied:
 charge density of overlapping atoms calculated
 number of electron      16.0000000 magnetization 
 charge density for first step will be calculated from the start-wavefunctions


--------------------------------------------------------------------------------------------------------


 Maximum index for augmentation-charges            0 (set IRDMAX)


--------------------------------------------------------------------------------------------------------


 First call to EWALD:  gamma=   0.089
 Maximum number of real-space cells 3x 3x 3
 Maximum number of reciprocal cells 3x 3x 3

    FEWALD:  cpu time      0.0019: real time      0.0019


--------------------------------------- Ionic step        1  -------------------------------------------




--------------------------------------- Iteration      1(   1)  ---------------------------------------


vdW kernel read from vdw_kernel.bindat
  0.0000  0.2424  0.5071  0.7962  1.1119  1.4567  1.8333  2.2446  2.6937  3.1842
  3.7199  4.3049  4.9438  5.6415  6.4036  7.2358  8.1446  9.1372 10.2212 11.4050
 12.6979 14.1099 15.6519 17.3360 19.1751 21.1837 23.3773 25.7729 28.3892 31.2465
 34.3669 37.7748 41.4965 45.5611 50.0000

    POTLOK:  cpu time     33.0075: real time     33.0191
    SETDIJ:  cpu time      0.0741: real time      0.0744
    TRIAL :  cpu time      0.4832: real time      0.4842
    CORREC:  cpu time      0.0014: real time      0.0014
    --------------------------------------------
      LOOP:  cpu time     33.5692: real time     33.6059

 eigenvalue-minimisations  :    40
 total energy-change (2. order) : 0.1645181E+03  (-0.3988295E+03)
 number of electron      16.0000000 magnetization 
 augmentation part       16.0000000 magnetization 

 Free energy of the ion-electron system (eV)
  ---------------------------------------------------
  alpha Z        PSCENC =         0.08964095
  Ewald energy   TEWEN  =       552.98856492
  -Hartree energ DENC   =     -1355.79758245
  -exchange      EXHF   =         0.00000000
  -V(xc)+E(xc)   XCENC  =        55.57584019
  PAW double counting   =       811.69278475     -809.82440165
  entropy T*S    EENTRO =        -0.00000000
  eigenvalues    EBANDS =      -118.17722792
  atomic energy  EATOM  =      1027.97048504
  ---------------------------------------------------
  free energy    TOTEN  =       164.51810384 eV

  energy without entropy =      164.51810384  energy(sigma->0) =      164.51810384


--------------------------------------------------------------------------------------------------------




--------------------------------------- Iteration      1(   2)  ---------------------------------------


    TRIAL :  cpu time      0.4833: real time      0.4838
    CORREC:  cpu time      0.0001: real time      0.0000
    --------------------------------------------
      LOOP:  cpu time      0.4993: real time      0.5126

 eigenvalue-minimisations  :    44
 total energy-change (2. order) :-0.1076414E+03  (-0.1072807E+03)
 number of electron      16.0000000 magnetization 
 augmentation part       16.0000000 magnetization 

 Free energy of the ion-electron system (eV)
  ---------------------------------------------------
  alpha Z        PSCENC =         0.08964095
  Ewald energy   TEWEN  =       552.98856492
  -Hartree energ DENC   =     -1355.79758245
  -exchange      EXHF   =         0.00000000
  -V(xc)+E(xc)   XCENC  =        55.57584019
  PAW double counting   =       811.69278475     -809.82440165
  entropy T*S    EENTRO =        -0.00000000
  eigenvalues    EBANDS =      -225.81859973
  atomic energy  EATOM  =      1027.97048504
  ---------------------------------------------------
  free energy    TOTEN  =        56.87673203 eV

  energy without entropy =       56.87673203  energy(sigma->0) =       56.87673203


--------------------------------------------------------------------------------------------------------




--------------------------------------- Iteration      1(   3)  ---------------------------------------


    TRIAL :  cpu time      0.5156: real time      0.5156
    CORREC:  cpu time      0.0000: real time      0.0000
    --------------------------------------------
      LOOP:  cpu time      0.5287: real time      0.5436

 eigenvalue-minimisations  :    48
 total energy-change (2. order) :-0.5041407E+02  (-0.4884465E+02)
 number of electron      16.0000000 magnetization 
 augmentation part       16.0000000 magnetization 

 Free energy of the ion-electron system (eV)
  ---------------------------------------------------
  alpha Z        PSCENC =         0.08964095
  Ewald energy   TEWEN  =       552.98856492
  -Hartree energ DENC   =     -1355.79758245
  -exchange      EXHF   =         0.00000000
  -V(xc)+E(xc)   XCENC  =        55.57584019
  PAW double counting   =       811.69278475     -809.82440165
  entropy T*S    EENTRO =        -0.00000000
  eigenvalues    EBANDS =      -276.23267097
  atomic energy  EATOM  =      1027.97048504
  ---------------------------------------------------
  free energy    TOTEN  =         6.46266079 eV

  energy without entropy =        6.46266079  energy(sigma->0) =        6.46266079


--------------------------------------------------------------------------------------------------------




--------------------------------------- Iteration      1(   4)  ---------------------------------------


    TRIAL :  cpu time      0.4139: real time      0.4142
    CORREC:  cpu time      0.0000: real time      0.0000
    --------------------------------------------
      LOOP:  cpu time      0.4264: real time      0.4440

 eigenvalue-minimisations  :    36
 total energy-change (2. order) :-0.2429036E+02  (-0.2424395E+02)
 number of electron      16.0000000 magnetization 
 augmentation part       16.0000000 magnetization 

 Free energy of the ion-electron system (eV)
  ---------------------------------------------------
  alpha Z        PSCENC =         0.08964095
  Ewald energy   TEWEN  =       552.98856492
  -Hartree energ DENC   =     -1355.79758245
  -exchange      EXHF   =         0.00000000
  -V(xc)+E(xc)   XCENC  =        55.57584019
  PAW double counting   =       811.69278475     -809.82440165
  entropy T*S    EENTRO =        -0.00000000
  eigenvalues    EBANDS =      -300.52302774
  atomic energy  EATOM  =      1027.97048504
  ---------------------------------------------------
  free energy    TOTEN  =       -17.82769598 eV

  energy without entropy =      -17.82769598  energy(sigma->0) =      -17.82769598


--------------------------------------------------------------------------------------------------------




--------------------------------------- Iteration      1(   5)  ---------------------------------------


    TRIAL :  cpu time      0.3790: real time      0.3790
    CORREC:  cpu time      0.0000: real time      0.0000
    CHARGE:  cpu time      0.1404: real time      0.1417
    --------------------------------------------
      LOOP:  cpu time      0.5434: real time      0.5503

 eigenvalue-minimisations  :    32
 total energy-change (2. order) :-0.2120982E+01  (-0.2119878E+01)
 number of electron      16.0000000 magnetization 
 augmentation part        0.1495917 magnetization 

 Free energy of the ion-electron system (eV)
  ---------------------------------------------------
  alpha Z        PSCENC =         0.08964095
  Ewald energy   TEWEN  =       552.98856492
  -Hartree energ DENC   =     -1355.79758245
  -exchange      EXHF   =         0.00000000
  -V(xc)+E(xc)   XCENC  =        55.57584019
  PAW double counting   =       811.69278475     -809.82440165
  entropy T*S    EENTRO =        -0.00000000
  eigenvalues    EBANDS =      -302.64400992
  atomic energy  EATOM  =      1027.97048504
  ---------------------------------------------------
  free energy    TOTEN  =       -19.94867816 eV

  energy without entropy =      -19.94867816  energy(sigma->0) =      -19.94867816


--------------------------------------------------------------------------------------------------------




--------------------------------------- Iteration      1(   6)  ---------------------------------------


    POTLOK:  cpu time     32.6874: real time     32.6988
    SETDIJ:  cpu time      0.0671: real time      0.0672
    TRIAL :  cpu time      0.2361: real time      0.2366
    CORREC:  cpu time     32.8640: real time     32.8774
    CHARGE:  cpu time      0.1249: real time      0.1249
    --------------------------------------------
      LOOP:  cpu time     65.9943: real time     66.0346

 eigenvalue-minimisations  :     0
 total energy-change (2. order) : 0.5633580E+01  (-0.2998195E+01)
 number of electron      16.0000000 magnetization 
 augmentation part        0.0995266 magnetization 

 Free energy of the ion-electron system (eV)
  ---------------------------------------------------
  alpha Z        PSCENC =         0.08964095
  Ewald energy   TEWEN  =       552.98856492
  -Hartree energ DENC   =     -1450.96573919
  -exchange      EXHF   =         0.00000000
  -V(xc)+E(xc)   XCENC  =        61.02618673
  PAW double counting   =      7895.04843256    -7895.09905520
  entropy T*S    EENTRO =        -0.00000000
  eigenvalues    EBANDS =      -205.37361420
  atomic energy  EATOM  =      1027.97048504
  ---------------------------------------------------
  free energy    TOTEN  =       -14.31509839 eV

  energy without entropy =      -14.31509839  energy(sigma->0) =      -14.31509839


--------------------------------------------------------------------------------------------------------




--------------------------------------- Iteration      1(   7)  ---------------------------------------


    POTLOK:  cpu time     32.5966: real time     32.6088
    SETDIJ:  cpu time      0.0671: real time      0.0671
    TRIAL :  cpu time      0.2202: real time      0.2202
    CORREC:  cpu time     32.8484: real time     32.8603
    CHARGE:  cpu time      0.1251: real time      0.1251
    --------------------------------------------
      LOOP:  cpu time     65.8723: real time     65.9105

 eigenvalue-minimisations  :     0
 total energy-change (2. order) :-0.3042544E+01  (-0.3018141E+00)
 number of electron      16.0000000 magnetization 
 augmentation part        0.0747497 magnetization 

 Free energy of the ion-electron system (eV)
  ---------------------------------------------------
  alpha Z        PSCENC =         0.08964095
  Ewald energy   TEWEN  =       552.98856492
  -Hartree energ DENC   =     -1394.10093466
  -exchange      EXHF   =         0.00000000
  -V(xc)+E(xc)   XCENC  =        57.87252547
  PAW double counting   =      9298.37880779    -9297.59465722
  entropy T*S    EENTRO =        -0.00000000
  eigenvalues    EBANDS =      -262.96207510
  atomic energy  EATOM  =      1027.97048504
  ---------------------------------------------------
  free energy    TOTEN  =       -17.35764281 eV

  energy without entropy =      -17.35764281  energy(sigma->0) =      -17.35764281


--------------------------------------------------------------------------------------------------------




--------------------------------------- Iteration      1(   8)  ---------------------------------------


    POTLOK:  cpu time     32.6330: real time     32.6444
    SETDIJ:  cpu time      0.0670: real time      0.0670
    TRIAL :  cpu time      0.2191: real time      0.2191
    CORREC:  cpu time     32.8727: real time     32.8843
    CHARGE:  cpu time      0.1244: real time      0.1244
    --------------------------------------------
      LOOP:  cpu time     65.9314: real time     65.9698

 eigenvalue-minimisations  :     0
 total energy-change (2. order) :-0.3017640E+00  (-0.1170168E+00)
 number of electron      16.0000000 magnetization 
 augmentation part        0.0697379 magnetization 

 Free energy of the ion-electron system (eV)
  ---------------------------------------------------
  alpha Z        PSCENC =         0.08964095
  Ewald energy   TEWEN  =       552.98856492
  -Hartree energ DENC   =     -1397.41282632
  -exchange      EXHF   =         0.00000000
  -V(xc)+E(xc)   XCENC  =        57.92036209
  PAW double counting   =      9668.25293833    -9667.33015432
  entropy T*S    EENTRO =        -0.00000000
  eigenvalues    EBANDS =      -260.13841749
  atomic energy  EATOM  =      1027.97048504
  ---------------------------------------------------
  free energy    TOTEN  =       -17.65940680 eV

  energy without entropy =      -17.65940680  energy(sigma->0) =      -17.65940680


--------------------------------------------------------------------------------------------------------




--------------------------------------- Iteration      1(   9)  ---------------------------------------


    POTLOK:  cpu time     32.6108: real time     32.6219
    SETDIJ:  cpu time      0.0669: real time      0.0669
    TRIAL :  cpu time      0.2195: real time      0.2196
    CORREC:  cpu time     32.9412: real time     32.9512
    CHARGE:  cpu time      0.1252: real time      0.1252
    --------------------------------------------
      LOOP:  cpu time     65.9766: real time     66.0150

 eigenvalue-minimisations  :     0
 total energy-change (2. order) :-0.1172340E+00  (-0.4388751E-01)
 number of electron      16.0000000 magnetization 
 augmentation part        0.0712239 magnetization 

 Free energy of the ion-electron system (eV)
  ---------------------------------------------------
  alpha Z        PSCENC =         0.08964095
  Ewald energy   TEWEN  =       552.98856492
  -Hartree energ DENC   =     -1400.01272179
  -exchange      EXHF   =         0.00000000
  -V(xc)+E(xc)   XCENC  =        57.99629223
  PAW double counting   =     10270.22628801   -10269.27241705
  entropy T*S    EENTRO =        -0.00000000
  eigenvalues    EBANDS =      -257.76277313
  atomic energy  EATOM  =      1027.97048504
  ---------------------------------------------------
  free energy    TOTEN  =       -17.77664082 eV

  energy without entropy =      -17.77664082  energy(sigma->0) =      -17.77664082


--------------------------------------------------------------------------------------------------------




--------------------------------------- Iteration      1(  10)  ---------------------------------------


    POTLOK:  cpu time     32.6441: real time     32.6545
    SETDIJ:  cpu time      0.0669: real time      0.0669
    TRIAL :  cpu time      0.2193: real time      0.2193
    CORREC:  cpu time     32.9107: real time     32.9218
    CHARGE:  cpu time      0.1247: real time      0.1247
    --------------------------------------------
      LOOP:  cpu time     65.9779: real time     66.0184

 eigenvalue-minimisations  :     0
 total energy-change (2. order) :-0.4414321E-01  (-0.1370228E-01)
 number of electron      16.0000000 magnetization 
 augmentation part        0.0728513 magnetization 

 Free energy of the ion-electron system (eV)
  ---------------------------------------------------
  alpha Z        PSCENC =         0.08964095
  Ewald energy   TEWEN  =       552.98856492
  -Hartree energ DENC   =     -1398.47232724
  -exchange      EXHF   =         0.00000000
  -V(xc)+E(xc)   XCENC  =        57.92126374
  PAW double counting   =     10516.03167380   -10515.06912836
  entropy T*S    EENTRO =        -0.00000000
  eigenvalues    EBANDS =      -259.28095688
  atomic energy  EATOM  =      1027.97048504
  ---------------------------------------------------
  free energy    TOTEN  =       -17.82078403 eV

  energy without entropy =      -17.82078403  energy(sigma->0) =      -17.82078403


--------------------------------------------------------------------------------------------------------




--------------------------------------- Iteration      1(  11)  ---------------------------------------


    POTLOK:  cpu time     32.7058: real time     32.7171
    SETDIJ:  cpu time      0.0671: real time      0.0671
    TRIAL :  cpu time      0.2205: real time      0.2205
    CORREC:  cpu time     32.8902: real time     32.9034
    CHARGE:  cpu time      0.1263: real time      0.1263
    --------------------------------------------
      LOOP:  cpu time     66.0381: real time     66.0629

 eigenvalue-minimisations  :     0
 total energy-change (2. order) :-0.1379466E-01  (-0.4614888E-02)
 number of electron      16.0000000 magnetization 
 augmentation part        0.0743477 magnetization 

 Free energy of the ion-electron system (eV)
  ---------------------------------------------------
  alpha Z        PSCENC =         0.08964095
  Ewald energy   TEWEN  =       552.98856492
  -Hartree energ DENC   =     -1398.13086400
  -exchange      EXHF   =         0.00000000
  -V(xc)+E(xc)   XCENC  =        57.90352676
  PAW double counting   =     10458.10160653   -10457.15065227
  entropy T*S    EENTRO =        -0.00000000
  eigenvalues    EBANDS =      -259.60688662
  atomic energy  EATOM  =      1027.97048504
  ---------------------------------------------------
  free energy    TOTEN  =       -17.83457870 eV

  energy without entropy =      -17.83457870  energy(sigma->0) =      -17.83457870


--------------------------------------------------------------------------------------------------------




--------------------------------------- Iteration      1(  12)  ---------------------------------------


    POTLOK:  cpu time     32.6249: real time     32.6369
    SETDIJ:  cpu time      0.0670: real time      0.0670
    TRIAL :  cpu time      0.2198: real time      0.2198
    CORREC:  cpu time     32.8121: real time     32.8240
    CHARGE:  cpu time      0.1238: real time      0.1238
    --------------------------------------------
      LOOP:  cpu time     65.8611: real time     65.9015

 eigenvalue-minimisations  :     0
 total energy-change (2. order) :-0.4616062E-02  (-0.1214458E-02)
 number of electron      16.0000000 magnetization 
 augmentation part        0.0748875 magnetization 

 Free energy of the ion-electron system (eV)
  ---------------------------------------------------
  alpha Z        PSCENC =         0.08964095
  Ewald energy   TEWEN  =       552.98856492
  -Hartree energ DENC   =     -1398.45838516
  -exchange      EXHF   =         0.00000000
  -V(xc)+E(xc)   XCENC  =        57.91224676
  PAW double counting   =     10421.91211623   -10420.97485725
  entropy T*S    EENTRO =        -0.00000000
  eigenvalues    EBANDS =      -259.27900625
  atomic energy  EATOM  =      1027.97048504
  ---------------------------------------------------
  free energy    TOTEN  =       -17.83919476 eV

  energy without entropy =      -17.83919476  energy(sigma->0) =      -17.83919476


--------------------------------------------------------------------------------------------------------




--------------------------------------- Iteration      1(  13)  ---------------------------------------


    POTLOK:  cpu time     32.6403: real time     32.6516
    SETDIJ:  cpu time      0.0671: real time      0.0671
    TRIAL :  cpu time      0.2202: real time      0.2202
    CORREC:  cpu time     32.7275: real time     32.7390
    CHARGE:  cpu time      0.1250: real time      0.1250
    --------------------------------------------
      LOOP:  cpu time     65.7943: real time     65.8329

 eigenvalue-minimisations  :     0
 total energy-change (2. order) :-0.1213870E-02  (-0.3566559E-03)
 number of electron      16.0000000 magnetization 
 augmentation part        0.0749392 magnetization 

 Free energy of the ion-electron system (eV)
  ---------------------------------------------------
  alpha Z        PSCENC =         0.08964095
  Ewald energy   TEWEN  =       552.98856492
  -Hartree energ DENC   =     -1398.46792666
  -exchange      EXHF   =         0.00000000
  -V(xc)+E(xc)   XCENC  =        57.91148451
  PAW double counting   =     10412.48181744   -10411.54743370
  entropy T*S    EENTRO =        -0.00000000
  eigenvalues    EBANDS =      -259.26704112
  atomic energy  EATOM  =      1027.97048504
  ---------------------------------------------------
  free energy    TOTEN  =       -17.84040863 eV

  energy without entropy =      -17.84040863  energy(sigma->0) =      -17.84040863


--------------------------------------------------------------------------------------------------------




--------------------------------------- Iteration      1(  14)  ---------------------------------------


    POTLOK:  cpu time     32.6068: real time     32.6183
    SETDIJ:  cpu time      0.0670: real time      0.0670
    TRIAL :  cpu time      0.2198: real time      0.2198
    CORREC:  cpu time     32.8025: real time     32.8129
    CHARGE:  cpu time      0.1246: real time      0.1246
    --------------------------------------------
      LOOP:  cpu time     65.8341: real time     65.8732

 eigenvalue-minimisations  :     0
 total energy-change (2. order) :-0.3571603E-03  (-0.9768101E-04)
 number of electron      16.0000000 magnetization 
 augmentation part        0.0749269 magnetization 

 Free energy of the ion-electron system (eV)
  ---------------------------------------------------
  alpha Z        PSCENC =         0.08964095
  Ewald energy   TEWEN  =       552.98856492
  -Hartree energ DENC   =     -1398.33563659
  -exchange      EXHF   =         0.00000000
  -V(xc)+E(xc)   XCENC  =        57.90602959
  PAW double counting   =     10404.14658108   -10403.21062527
  entropy T*S    EENTRO =        -0.00000000
  eigenvalues    EBANDS =      -259.39580552
  atomic energy  EATOM  =      1027.97048504
  ---------------------------------------------------
  free energy    TOTEN  =       -17.84076579 eV

  energy without entropy =      -17.84076579  energy(sigma->0) =      -17.84076579


--------------------------------------------------------------------------------------------------------




--------------------------------------- Iteration      1(  15)  ---------------------------------------


    POTLOK:  cpu time     32.5063: real time     32.5160
    SETDIJ:  cpu time      0.0671: real time      0.0671
    TRIAL :  cpu time      0.2192: real time      0.2196
    CORREC:  cpu time     32.7721: real time     32.7823
    CHARGE:  cpu time      0.1237: real time      0.1241
    --------------------------------------------
      LOOP:  cpu time     65.7180: real time     65.7389

 eigenvalue-minimisations  :     0
 total energy-change (2. order) :-0.9739118E-04  (-0.3146686E-04)
 number of electron      16.0000000 magnetization 
 augmentation part        0.0749037 magnetization 

 Free energy of the ion-electron system (eV)
  ---------------------------------------------------
  alpha Z        PSCENC =         0.08964095
  Ewald energy   TEWEN  =       552.98856492
  -Hartree energ DENC   =     -1398.34921689
  -exchange      EXHF   =         0.00000000
  -V(xc)+E(xc)   XCENC  =        57.90695951
  PAW double counting   =     10400.02354097   -10399.08704960
  entropy T*S    EENTRO =        -0.00000000
  eigenvalues    EBANDS =      -259.38378808
  atomic energy  EATOM  =      1027.97048504
  ---------------------------------------------------
  free energy    TOTEN  =       -17.84086318 eV

  energy without entropy =      -17.84086318  energy(sigma->0) =      -17.84086318


--------------------------------------------------------------------------------------------------------




--------------------------------------- Iteration      1(  16)  ---------------------------------------


    POTLOK:  cpu time     32.4437: real time     32.4560
    SETDIJ:  cpu time      0.0672: real time      0.0673
    TRIAL :  cpu time      0.2197: real time      0.2197
    CORREC:  cpu time     32.6884: real time     32.7019
    CHARGE:  cpu time      0.1244: real time      0.1244
    --------------------------------------------
      LOOP:  cpu time     65.5575: real time     65.5999

 eigenvalue-minimisations  :     0
 total energy-change (2. order) :-0.3128025E-04  (-0.1065679E-04)
 number of electron      16.0000000 magnetization 
 augmentation part        0.0748721 magnetization 

 Free energy of the ion-electron system (eV)
  ---------------------------------------------------
  alpha Z        PSCENC =         0.08964095
  Ewald energy   TEWEN  =       552.98856492
  -Hartree energ DENC   =     -1398.35679068
  -exchange      EXHF   =         0.00000000
  -V(xc)+E(xc)   XCENC  =        57.90725663
  PAW double counting   =     10396.14779736   -10395.21106999
  entropy T*S    EENTRO =        -0.00000000
  eigenvalues    EBANDS =      -259.37677869
  atomic energy  EATOM  =      1027.97048504
  ---------------------------------------------------
  free energy    TOTEN  =       -17.84089446 eV

  energy without entropy =      -17.84089446  energy(sigma->0) =      -17.84089446


--------------------------------------------------------------------------------------------------------




--------------------------------------- Iteration      1(  17)  ---------------------------------------


    POTLOK:  cpu time     32.4515: real time     32.4634
    SETDIJ:  cpu time      0.0669: real time      0.0669
    TRIAL :  cpu time      0.2200: real time      0.2200
    CORREC:  cpu time     32.7161: real time     32.7284
    CHARGE:  cpu time      0.1248: real time      0.1248
    --------------------------------------------
      LOOP:  cpu time     65.5935: real time     65.6347

 eigenvalue-minimisations  :     0
 total energy-change (2. order) :-0.1058915E-04  (-0.4284086E-05)
 number of electron      16.0000000 magnetization 
 augmentation part        0.0748437 magnetization 

 Free energy of the ion-electron system (eV)
  ---------------------------------------------------
  alpha Z        PSCENC =         0.08964095
  Ewald energy   TEWEN  =       552.98856492
  -Hartree energ DENC   =     -1398.35229095
  -exchange      EXHF   =         0.00000000
  -V(xc)+E(xc)   XCENC  =        57.90711200
  PAW double counting   =     10390.66181737   -10389.72502677
  entropy T*S    EENTRO =        -0.00000000
  eigenvalues    EBANDS =      -259.38120761
  atomic energy  EATOM  =      1027.97048504
  ---------------------------------------------------
  free energy    TOTEN  =       -17.84090505 eV

  energy without entropy =      -17.84090505  energy(sigma->0) =      -17.84090505


--------------------------------------------------------------------------------------------------------




--------------------------------------- Iteration      1(  18)  ---------------------------------------


    POTLOK:  cpu time     32.4833: real time     32.4954
    SETDIJ:  cpu time      0.0670: real time      0.0670
    TRIAL :  cpu time      0.2187: real time      0.2192
    CORREC:  cpu time     32.7426: real time     32.7537
    CHARGE:  cpu time      0.1244: real time      0.1244
    --------------------------------------------
      LOOP:  cpu time     65.6652: real time     65.6892

 eigenvalue-minimisations  :     0
 total energy-change (2. order) :-0.4243188E-05  (-0.1697158E-05)
 number of electron      16.0000000 magnetization 
 augmentation part        0.0748198 magnetization 

 Free energy of the ion-electron system (eV)
  ---------------------------------------------------
  alpha Z        PSCENC =         0.08964095
  Ewald energy   TEWEN  =       552.98856492
  -Hartree energ DENC   =     -1398.35487720
  -exchange      EXHF   =         0.00000000
  -V(xc)+E(xc)   XCENC  =        57.90723069
  PAW double counting   =     10387.25492103   -10386.31817431
  entropy T*S    EENTRO =        -0.00000000
  eigenvalues    EBANDS =      -259.37870041
  atomic energy  EATOM  =      1027.97048504
  ---------------------------------------------------
  free energy    TOTEN  =       -17.84090929 eV

  energy without entropy =      -17.84090929  energy(sigma->0) =      -17.84090929


--------------------------------------------------------------------------------------------------------




--------------------------------------- Iteration      1(  19)  ---------------------------------------


    POTLOK:  cpu time     32.4733: real time     32.4848
    SETDIJ:  cpu time      0.0669: real time      0.0669
    TRIAL :  cpu time      0.2196: real time      0.2196
    CORREC:  cpu time     32.7983: real time     32.8101
    CHARGE:  cpu time      0.1245: real time      0.1245
    --------------------------------------------
      LOOP:  cpu time     65.6939: real time     65.7358

 eigenvalue-minimisations  :     0
 total energy-change (2. order) :-0.1659702E-05  (-0.7327925E-06)
 number of electron      16.0000000 magnetization 
 augmentation part        0.0748035 magnetization 

 Free energy of the ion-electron system (eV)
  ---------------------------------------------------
  alpha Z        PSCENC =         0.08964095
  Ewald energy   TEWEN  =       552.98856492
  -Hartree energ DENC   =     -1398.35310981
  -exchange      EXHF   =         0.00000000
  -V(xc)+E(xc)   XCENC  =        57.90706674
  PAW double counting   =     10387.49840447   -10386.56159326
  entropy T*S    EENTRO =        -0.00000000
  eigenvalues    EBANDS =      -259.38037000
  atomic energy  EATOM  =      1027.97048504
  ---------------------------------------------------
  free energy    TOTEN  =       -17.84091095 eV

  energy without entropy =      -17.84091095  energy(sigma->0) =      -17.84091095


--------------------------------------------------------------------------------------------------------




--------------------------------------- Iteration      1(  20)  ---------------------------------------


    POTLOK:  cpu time     32.4290: real time     32.4413
    SETDIJ:  cpu time      0.0670: real time      0.0670
    TRIAL :  cpu time      0.2195: real time      0.2196
    CORREC:  cpu time     32.7116: real time     32.7232
    CHARGE:  cpu time      0.1250: real time      0.1250
    --------------------------------------------
      LOOP:  cpu time     65.5641: real time     65.6057

 eigenvalue-minimisations  :     0
 total energy-change (2. order) :-0.6771443E-06  (-0.2800692E-06)
 number of electron      16.0000000 magnetization 
 augmentation part        0.0747909 magnetization 

 Free energy of the ion-electron system (eV)
  ---------------------------------------------------
  alpha Z        PSCENC =         0.08964095
  Ewald energy   TEWEN  =       552.98856492
  -Hartree energ DENC   =     -1398.35644315
  -exchange      EXHF   =         0.00000000
  -V(xc)+E(xc)   XCENC  =        57.90723316
  PAW double counting   =     10389.64234342   -10388.70548211
  entropy T*S    EENTRO =        -0.00000000
  eigenvalues    EBANDS =      -259.37725385
  atomic energy  EATOM  =      1027.97048504
  ---------------------------------------------------
  free energy    TOTEN  =       -17.84091163 eV

  energy without entropy =      -17.84091163  energy(sigma->0) =      -17.84091163


--------------------------------------------------------------------------------------------------------




--------------------------------------- Iteration      1(  21)  ---------------------------------------


    POTLOK:  cpu time     32.5221: real time     32.5334
    SETDIJ:  cpu time      0.0669: real time      0.0669
    TRIAL :  cpu time      0.2195: real time      0.2200
    CORREC:  cpu time     32.7538: real time     32.7655
    CHARGE:  cpu time      0.1240: real time      0.1244
    --------------------------------------------
      LOOP:  cpu time     65.7012: real time     65.7402

 eigenvalue-minimisations  :     0
 total energy-change (2. order) :-0.2358283E-06  (-0.9339607E-07)
 number of electron      16.0000000 magnetization 
 augmentation part        0.0747883 magnetization 

 Free energy of the ion-electron system (eV)
  ---------------------------------------------------
  alpha Z        PSCENC =         0.08964095
  Ewald energy   TEWEN  =       552.98856492
  -Hartree energ DENC   =     -1398.35424171
  -exchange      EXHF   =         0.00000000
  -V(xc)+E(xc)   XCENC  =        57.90713139
  PAW double counting   =     10391.35560165   -10390.41863459
  entropy T*S    EENTRO =        -0.00000000
  eigenvalues    EBANDS =      -259.37945952
  atomic energy  EATOM  =      1027.97048504
  ---------------------------------------------------
  free energy    TOTEN  =       -17.84091186 eV

  energy without entropy =      -17.84091186  energy(sigma->0) =      -17.84091186


--------------------------------------------------------------------------------------------------------




--------------------------------------- Iteration      1(  22)  ---------------------------------------


    POTLOK:  cpu time     32.4982: real time     32.5108
    SETDIJ:  cpu time      0.0670: real time      0.0670
    TRIAL :  cpu time      0.2198: real time      0.2198
    CORREC:  cpu time     32.7058: real time     32.7174
    EDDIAG:  cpu time      0.0970: real time      0.0979
    CHARGE:  cpu time      0.1240: real time      0.1240
    --------------------------------------------
      LOOP:  cpu time     65.7245: real time     65.7668

 eigenvalue-minimisations  :     0
 total energy-change (2. order) :-0.8364623E-07  (-0.2485676E-07)
 number of electron      16.0000000 magnetization 
 augmentation part        0.0747891 magnetization 

 Free energy of the ion-electron system (eV)
  ---------------------------------------------------
  alpha Z        PSCENC =         0.08964095
  Ewald energy   TEWEN  =       552.98856492
  -Hartree energ DENC   =     -1398.35588129
  -exchange      EXHF   =         0.00000000
  -V(xc)+E(xc)   XCENC  =        57.90720960
  PAW double counting   =     10391.86658986   -10390.92960706
  entropy T*S    EENTRO =        -0.00000000
  eigenvalues    EBANDS =      -259.37791396
  atomic energy  EATOM  =      1027.97048504
  ---------------------------------------------------
  free energy    TOTEN  =       -17.84091195 eV

  energy without entropy =      -17.84091195  energy(sigma->0) =      -17.84091195


--------------------------------------------------------------------------------------------------------


  average scaling for gradient   0.8939


 average (electrostatic) potential at core
  the test charge radii are     0.5770  0.5955
  (the norm of the test charge is              1.0000)
       1 -92.3898       2-122.2088       3-122.1710



 E-fermi :  -9.3382     XC(G=0):  -0.1439     alpha+bet : -0.0337

 Fermi energy:        -9.3382401601

 k-point     1 :       0.0000    0.0000    0.0000
  band No.  band energies     occupation 
      1     -29.3833      2.00000
      2     -28.4319      2.00000
      3     -14.1198      2.00000
      4     -13.0518      2.00000
      5     -12.9562      2.00000
      6     -12.9562      2.00000
      7      -9.3949      2.00000
      8      -9.3949      2.00000
      9      -1.4758      0.00000
     10      -0.8516      0.00000
     11      -0.8512      0.00000
     12       0.0291      0.00000


--------------------------------------------------------------------------------------------------------


 soft charge-density along one line, spin component           1
         0         1         2         3         4         5         6         7         8         9
 total charge-density along one line

 pseudopotential strength for first ion, spin component:           1
 12.836  21.607  -0.000  -0.000   0.000  -0.001  -0.001   0.001
 21.607  36.370  -0.001  -0.001   0.001  -0.001  -0.001   0.001
 -0.000  -0.001  -3.417   0.019  -0.020  -6.131   0.033  -0.034
 -0.000  -0.001   0.019  -3.419  -0.019   0.033  -6.133  -0.033
  0.000   0.001  -0.020  -0.019  -3.417  -0.034  -0.033  -6.131
 -0.001  -0.001  -6.131   0.033  -0.034 -10.978   0.059  -0.060
 -0.001  -0.001   0.033  -6.133  -0.033   0.059 -10.981  -0.058
  0.001   0.001  -0.034  -0.033  -6.131  -0.060  -0.058 -10.978
 total augmentation occupancy for first ion, spin component:           1
  8.599  -3.321  -0.064  -0.031   0.064   0.028   0.014  -0.028
 -3.321   1.460   0.029   0.013  -0.029  -0.012  -0.006   0.012
 -0.064   0.029   6.327   3.742  -3.849  -2.190  -1.606   1.652
 -0.031   0.013   3.742   6.113  -3.740  -1.606  -2.098   1.605
  0.064  -0.029  -3.849  -3.740   6.324   1.652   1.605  -2.189
  0.028  -0.012  -2.190  -1.606   1.652   0.817   0.680  -0.700
  0.014  -0.006  -1.606  -2.098   1.605   0.680   0.778  -0.680
 -0.028   0.012   1.652   1.605  -2.189  -0.700  -0.680   0.816


------------------------ aborting loop because EDIFF is reached ----------------------------------------


    FORLOC:  cpu time      0.0298: real time      0.0298
    FORNL :  cpu time      0.0111: real time      0.0113
    STRESS:  cpu time      0.1256: real time      0.1262
    FORCOR:  cpu time     32.4189: real time     32.4306
    OFIELD:  cpu time      0.0080: real time      0.0084

  FORCE on cell =-STRESS in cart. coord.  units (eV):
  Direction    XX          YY          ZZ          XY          YZ          ZX
  --------------------------------------------------------------------------------------
  Alpha Z     0.08964     0.08964     0.08964
  Ewald     189.29569   189.55652   174.13626  -275.24562   267.60374  -267.47783
  Hartree   468.50800   468.63354   461.21421  -131.43931   127.79256  -127.73244
  E(xc)     -79.89497   -79.89343   -79.98436    -1.63368     1.58831    -1.58756
  Local    -983.13750  -983.50227  -961.93786   383.76696  -373.11514   372.93958
  n-local   -25.00347   -25.00133   -25.12749    -2.27757     2.21451    -2.21346
  augment     1.13887     1.13868     1.14920     0.18974    -0.18448     0.18438
  Kinetic   429.17991   429.15496   430.62482    26.45733   -25.72319    25.71110
  Fock        0.00000     0.00000     0.00000     0.00000     0.00000     0.00000
  -------------------------------------------------------------------------------------
  Total       0.17617     0.17632     0.16442    -0.18214     0.17631    -0.17622
  in kB       0.03528     0.03531     0.03293    -0.03648     0.03531    -0.03529
  external pressure =        0.03 kB  Pullay stress =        0.00 kB


 VOLUME and BASIS-vectors are now :
 -----------------------------------------------------------------------------
  energy-cutoff  :     1000.00
  volume of cell :     8000.00
      direct lattice vectors                 reciprocal lattice vectors
    20.000000000  0.000000000  0.000000000     0.050000000  0.000000000  0.000000000
     0.000000000 20.000000000  0.000000000     0.000000000  0.050000000  0.000000000
     0.000000000  0.000000000 20.000000000     0.000000000  0.000000000  0.050000000

  length of vectors
    20.000000000 20.000000000 20.000000000     0.050000000  0.050000000  0.050000000


 FORCES acting on ions:
    Electron-Ion                     Ewald-Force                    Non-Local-Force
 -----------------------------------------------------------------------------------------------
   0.160E+01 -.161E+01 0.222E+00   -.172E+01 0.172E+01 -.635E-01   -.102E+00 0.103E+00 0.101E+00
   -.167E+03 0.167E+03 0.162E+03   0.203E+03 -.203E+03 -.197E+03   -.364E+02 0.364E+02 0.351E+02
   0.165E+03 -.166E+03 -.162E+03   -.201E+03 0.202E+03 0.197E+03   0.362E+02 -.362E+02 -.355E+02
 -----------------------------------------------------------------------------------------------
   0.296E+00 -.297E+00 0.270E+00   0.000E+00 0.000E+00 0.000E+00   -.297E+00 0.297E+00 -.270E+00


 POSITION                                       TOTAL-FORCE (eV/Angst)
 -----------------------------------------------------------------------------------
      4.81159      4.81252      5.62291        -0.209946      0.210114      0.254940
      5.49222      4.13156      4.96516         0.238445     -0.238607     -0.256474
      4.13096      5.49347      6.28866        -0.028500      0.028492      0.001533
 -----------------------------------------------------------------------------------
    total drift:                               -0.000163      0.000155     -0.000439


--------------------------------------------------------------------------------------------------------



  FREE ENERGIE OF THE ION-ELECTRON SYSTEM (eV)
  ---------------------------------------------------
  free  energy   TOTEN  =       -17.84091195 eV

  energy  without entropy=      -17.84091195  energy(sigma->0) =      -17.84091195



--------------------------------------------------------------------------------------------------------


    POTLOK:  cpu time     32.5120: real time     32.5229


--------------------------------------------------------------------------------------------------------


 stress matrix after NEB project (eV)
      0.17617     -0.18214     -0.17622
     -0.18214      0.17632      0.17631
     -0.17622      0.17631      0.16442
  FORCES: max atom, RMS     0.423755    0.333873
  FORCE total and by dimension    0.578286    0.256474
  Stress total and by dimension    0.528949    0.182143
     LOOP+:  cpu time   1219.2838: real time   1220.0990
    4ORBIT:  cpu time      0.0000: real time      0.0000

 total amount of memory used by VASP MPI-rank0   114032. kBytes
=======================================================================

   base      :      30000. kBytes
   nonl-proj :       1580. kBytes
   fftplans  :      29139. kBytes
   grid      :      52019. kBytes
   one-center:          1. kBytes
   wavefun   :       1293. kBytes

  
  
 General timing and accounting informations for this job:
 ========================================================
  
                  Total CPU time used (sec):     1231.309
                            User time (sec):     1218.523
                          System time (sec):       12.786
                         Elapsed time (sec):     1232.357
  
                   Maximum memory used (kb):      699364.
                   Average memory used (kb):          N/A
  
                          Minor page faults:       347201
                          Major page faults:         1147
                 Voluntary context switches:         2862
