       N       E                     dE             d eps       ncg     rms          ort
DAV:   1     0.440031807655E+03    0.44003E+03   -0.22744E+04   512   0.112E+02
DAV:   2    -0.744129622200E+02   -0.51444E+03   -0.51240E+03   512   0.947E+00
DAV:   3    -0.769358564062E+02   -0.25229E+01   -0.25229E+01   512   0.217E+00
DAV:   4    -0.769479155423E+02   -0.12059E-01   -0.12059E-01   512   0.156E-01
DAV:   5    -0.769479158565E+02   -0.31414E-06   -0.34748E-06   512   0.901E-04
SDA:   6    -0.576624541984E+02    0.19285E+02   -0.34748E-06   512   0.477E+02 0.000E+00
CGA:   7    -0.660668362137E+02   -0.84044E+01   -0.83824E+01   512   0.495E+01 0.168E+00
CGA:   8    -0.674782429837E+02   -0.14114E+01   -0.14010E+01   512   0.207E+01 0.724E-01
CGA:   9    -0.680870056156E+02   -0.60876E+00   -0.61348E+00   512   0.878E+00-0.455E-01
CGA:  10    -0.683234684448E+02   -0.23646E+00   -0.23800E+00   512   0.254E+00-0.164E-01
CGA:  11    -0.683897592332E+02   -0.66291E-01   -0.66360E-01   512   0.609E-01-0.870E-03
CGA:  12    -0.684070261222E+02   -0.17267E-01   -0.17272E-01   512   0.159E-01-0.528E-04
CGA:  13    -0.684119847813E+02   -0.49587E-02   -0.49617E-02   512   0.475E-02-0.345E-04
CGA:  14    -0.684135822265E+02   -0.15974E-02   -0.15998E-02   512   0.145E-02-0.232E-04
CGA:  15    -0.684140864186E+02   -0.50419E-03   -0.50530E-03   512   0.416E-03-0.943E-05
CGA:  16    -0.684142290983E+02   -0.14268E-03   -0.14267E-03   512   0.107E-03 0.440E-07
CGA:  17    -0.684142668700E+02   -0.37772E-04   -0.37537E-04   512   0.272E-04 0.211E-05
CGA:  18    -0.684142771185E+02   -0.10248E-04   -0.10123E-04   512   0.777E-05 0.103E-05
CGA:  19    -0.684142801712E+02   -0.30528E-05   -0.30145E-05   512   0.218E-05 0.307E-06
CGA:  20    -0.684142811013E+02   -0.93012E-06   -0.93606E-06   512   0.715E-06-0.399E-07
CGA:  21    -0.684142813761E+02   -0.27476E-06   -0.27346E-06   512   0.196E-06 0.761E-08
CGA:  22    -0.684142814587E+02   -0.82578E-07   -0.81246E-07   512   0.660E-07 0.605E-08
CGA:  23    -0.684142814795E+02   -0.20864E-07   -0.20212E-07   512   0.201E-07 0.187E-07
CGA:  24    -0.684142814884E+02   -0.88130E-08   -0.82225E-08   512   0.765E-08 0.581E-08
   1 F= -.68414281E+02 E0= -.68414281E+02  d E =-.331821E-27
 Found    36 degrees of freedom:
       N       E                     dE             d eps       ncg     rms          ort
SDA:   1    -0.683848888545E+02    0.29393E-01    0.00000E+00   512   0.501E-01 0.000E+00
CGA:   2    -0.684066736467E+02   -0.21785E-01   -0.21787E-01   512   0.237E-01-0.143E-04
CGA:   3    -0.684114371851E+02   -0.47635E-02   -0.47653E-02   512   0.329E-02 0.411E-05
CGA:   4    -0.684121194102E+02   -0.68223E-03   -0.68239E-03   512   0.793E-03 0.759E-07
CGA:   5    -0.684123030373E+02   -0.18363E-03   -0.18359E-03   512   0.212E-03-0.951E-06
CGA:   6    -0.684123626862E+02   -0.59649E-04   -0.59645E-04   512   0.748E-04-0.429E-06
CGA:   7    -0.684123861356E+02   -0.23449E-04   -0.23451E-04   512   0.305E-04-0.114E-06
CGA:   8    -0.684123963969E+02   -0.10261E-04   -0.10264E-04   512   0.116E-04-0.874E-07
CGA:   9    -0.684124002842E+02   -0.38872E-05   -0.38856E-05   512   0.372E-05 0.298E-07
CGA:  10    -0.684124015778E+02   -0.12936E-05   -0.12958E-05   512   0.114E-05-0.516E-07
CGA:  11    -0.684124019848E+02   -0.40697E-06   -0.40750E-06   512   0.347E-06-0.156E-07
CGA:  12    -0.684124021151E+02   -0.13029E-06   -0.13097E-06   512   0.106E-06-0.125E-07
CGA:  13    -0.684124021548E+02   -0.39707E-07   -0.39531E-07   512   0.295E-07-0.165E-08
CGA:  14    -0.684124021645E+02   -0.97079E-08   -0.93788E-08   512   0.763E-08 0.529E-08
   2 F= -.68412402E+02 E0= -.68412402E+02  d E =-.244931E-37
       N       E                     dE             d eps       ncg     rms          ort
SDA:   1    -0.683020205760E+02    0.11038E+00    0.00000E+00   512   0.201E+00 0.000E+00
CGA:   2    -0.683897526160E+02   -0.87732E-01   -0.87743E-01   512   0.933E-01-0.133E-03
CGA:   3    -0.684085400550E+02   -0.18787E-01   -0.18778E-01   512   0.133E-01-0.219E-04
CGA:   4    -0.684112894497E+02   -0.27494E-02   -0.27498E-02   512   0.320E-02-0.202E-05
CGA:   5    -0.684120277833E+02   -0.73833E-03   -0.73866E-03   512   0.865E-03 0.210E-05
CGA:   6    -0.684122692881E+02   -0.24150E-03   -0.24155E-03   512   0.309E-03 0.129E-05
CGA:   7    -0.684123664845E+02   -0.97196E-04   -0.97193E-04   512   0.128E-03 0.547E-06
CGA:   8    -0.684124095837E+02   -0.43099E-04   -0.43088E-04   512   0.488E-04 0.322E-06
CGA:   9    -0.684124260440E+02   -0.16460E-04   -0.16460E-04   512   0.159E-04-0.959E-08
CGA:  10    -0.684124313832E+02   -0.53392E-05   -0.53358E-05   512   0.465E-05 0.114E-06
CGA:  11    -0.684124330325E+02   -0.16493E-05   -0.16474E-05   512   0.139E-05 0.373E-07
CGA:  12    -0.684124335452E+02   -0.51271E-06   -0.51116E-06   512   0.403E-06 0.223E-07
CGA:  13    -0.684124337044E+02   -0.15923E-06   -0.15879E-06   512   0.122E-06 0.230E-08
CGA:  14    -0.684124337583E+02   -0.53884E-07   -0.56266E-07   512   0.516E-07-0.193E-07
CGA:  15    -0.684124337727E+02   -0.14390E-07   -0.14123E-07   512   0.143E-07 0.420E-08
CGA:  16    -0.684124337794E+02   -0.67430E-08   -0.65957E-08   512   0.766E-08-0.232E-08
   3 F= -.68412434E+02 E0= -.68412434E+02  d E =-.164777E-21
       N       E                     dE             d eps       ncg     rms          ort
SDA:   1    -0.683542271571E+02    0.58207E-01    0.00000E+00   512   0.107E+00 0.000E+00
CGA:   2    -0.683975281306E+02   -0.43301E-01   -0.43313E-01   512   0.603E-01-0.137E-03
CGA:   3    -0.684097356126E+02   -0.12207E-01   -0.12218E-01   512   0.722E-02-0.536E-06
CGA:   4    -0.684111956380E+02   -0.14600E-02   -0.14608E-02   512   0.180E-02 0.249E-05
CGA:   5    -0.684116291083E+02   -0.43347E-03   -0.43338E-03   512   0.470E-03-0.202E-05
CGA:   6    -0.684117653729E+02   -0.13626E-03   -0.13621E-03   512   0.170E-03-0.218E-05
CGA:   7    -0.684118182787E+02   -0.52906E-04   -0.52905E-04   512   0.697E-04-0.650E-06
CGA:   8    -0.684118422626E+02   -0.23984E-04   -0.23988E-04   512   0.279E-04-0.148E-06
CGA:   9    -0.684118519726E+02   -0.97100E-05   -0.97113E-05   512   0.950E-05-0.554E-07
CGA:  10    -0.684118553550E+02   -0.33824E-05   -0.33868E-05   512   0.300E-05-0.119E-06
CGA:  11    -0.684118564566E+02   -0.11016E-05   -0.11045E-05   512   0.941E-06-0.602E-07
CGA:  12    -0.684118568126E+02   -0.35596E-06   -0.35818E-06   512   0.293E-06-0.368E-07
CGA:  13    -0.684118569199E+02   -0.10736E-06   -0.10719E-06   512   0.840E-07-0.544E-09
CGA:  14    -0.684118569459E+02   -0.25948E-07   -0.26126E-07   512   0.230E-07 0.179E-07
CGA:  15    -0.684118569552E+02   -0.93059E-08   -0.91100E-08   512   0.869E-08 0.673E-08
   4 F= -.68411857E+02 E0= -.68411857E+02  d E =-.198103E-25
       N       E                     dE             d eps       ncg     rms          ort
SDA:   1    -0.682979870310E+02    0.11387E+00    0.00000E+00   512   0.209E+00 0.000E+00
CGA:   2    -0.683849066581E+02   -0.86920E-01   -0.86899E-01   512   0.115E+00 0.130E-03
CGA:   3    -0.684075742134E+02   -0.22668E-01   -0.22641E-01   512   0.145E-01 0.150E-05
CGA:   4    -0.684105048957E+02   -0.29307E-02   -0.29302E-02   512   0.363E-02-0.781E-05
CGA:   5    -0.684113738171E+02   -0.86892E-03   -0.86936E-03   512   0.953E-03 0.313E-05
CGA:   6    -0.684116452476E+02   -0.27143E-03   -0.27155E-03   512   0.343E-03 0.355E-05
CGA:   7    -0.684117517938E+02   -0.10655E-03   -0.10655E-03   512   0.140E-03 0.113E-05
CGA:   8    -0.684117998591E+02   -0.48065E-04   -0.48054E-04   512   0.548E-04 0.346E-06
CGA:   9    -0.684118188063E+02   -0.18947E-04   -0.18944E-04   512   0.182E-04 0.860E-07
CGA:  10    -0.684118251259E+02   -0.63196E-05   -0.63141E-05   512   0.550E-05 0.162E-06
CGA:  11    -0.684118271265E+02   -0.20007E-05   -0.19967E-05   512   0.169E-05 0.858E-07
CGA:  12    -0.684118277623E+02   -0.63580E-06   -0.63365E-06   512   0.514E-06 0.355E-07
CGA:  13    -0.684118279643E+02   -0.20200E-06   -0.20121E-06   512   0.161E-06 0.575E-08
CGA:  14    -0.684118280375E+02   -0.73127E-07   -0.78953E-07   512   0.809E-07-0.398E-07
CGA:  15    -0.684118280592E+02   -0.21684E-07   -0.21303E-07   512   0.232E-07-0.116E-08
CGA:  16    -0.684118280682E+02   -0.90713E-08   -0.88320E-08   512   0.104E-07-0.166E-08
   5 F= -.68411828E+02 E0= -.68411828E+02  d E =-.437063E-21
       N       E                     dE             d eps       ncg     rms          ort
SDA:   1    -0.683591124227E+02    0.52716E-01    0.00000E+00   512   0.100E+00 0.000E+00
CGA:   2    -0.684021855474E+02   -0.43073E-01   -0.43091E-01   512   0.480E-01-0.142E-03
CGA:   3    -0.684116377334E+02   -0.94522E-02   -0.94628E-02   512   0.725E-02-0.474E-05
CGA:   4    -0.684131340831E+02   -0.14963E-02   -0.14970E-02   512   0.168E-02 0.198E-05
CGA:   5    -0.684135145016E+02   -0.38042E-03   -0.38030E-03   512   0.420E-03-0.178E-05
CGA:   6    -0.684136331572E+02   -0.11866E-03   -0.11862E-03   512   0.141E-03-0.117E-05
CGA:   7    -0.684136771378E+02   -0.43981E-04   -0.43979E-04   512   0.585E-04-0.237E-06
CGA:   8    -0.684136971331E+02   -0.19995E-04   -0.19999E-04   512   0.234E-04-0.242E-06
CGA:   9    -0.684137053562E+02   -0.82231E-05   -0.82238E-05   512   0.821E-05-0.464E-07
CGA:  10    -0.684137082868E+02   -0.29306E-05   -0.29323E-05   512   0.272E-05-0.649E-07
CGA:  11    -0.684137093051E+02   -0.10182E-05   -0.10196E-05   512   0.906E-06-0.356E-07
CGA:  12    -0.684137096545E+02   -0.34948E-06   -0.35083E-06   512   0.293E-06-0.276E-07
CGA:  13    -0.684137097641E+02   -0.10958E-06   -0.10950E-06   512   0.854E-07-0.627E-08
CGA:  14    -0.684137097907E+02   -0.26550E-07   -0.26489E-07   512   0.221E-07 0.135E-07
CGA:  15    -0.684137098003E+02   -0.96770E-08   -0.91846E-08   512   0.796E-08 0.321E-08
   6 F= -.68413710E+02 E0= -.68413710E+02  d E =-.152212E-14
       N       E                     dE             d eps       ncg     rms          ort
SDA:   1    -0.683096988537E+02    0.10401E+00    0.00000E+00   512   0.189E+00 0.000E+00
CGA:   2    -0.683968974905E+02   -0.87199E-01   -0.87263E-01   512   0.614E-01-0.425E-03
CGA:   3    -0.684103979745E+02   -0.13500E-01   -0.13504E-01   512   0.127E-01-0.132E-04
CGA:   4    -0.684127661655E+02   -0.23682E-02   -0.23680E-02   512   0.269E-02-0.114E-05
CGA:   5    -0.684134075197E+02   -0.64135E-03   -0.64139E-03   512   0.684E-03-0.407E-06
CGA:   6    -0.684135910348E+02   -0.18352E-03   -0.18355E-03   512   0.234E-03 0.213E-06
CGA:   7    -0.684136639427E+02   -0.72908E-04   -0.72911E-04   512   0.886E-04 0.120E-06
CGA:   8    -0.684136939149E+02   -0.29972E-04   -0.29971E-04   512   0.332E-04 0.359E-07
CGA:   9    -0.684137048689E+02   -0.10954E-04   -0.10952E-04   512   0.104E-04 0.130E-06
CGA:  10    -0.684137085060E+02   -0.36371E-05   -0.36362E-05   512   0.321E-05 0.136E-07
CGA:  11    -0.684137096840E+02   -0.11780E-05   -0.11758E-05   512   0.104E-05 0.334E-07
CGA:  12    -0.684137100868E+02   -0.40280E-06   -0.40144E-06   512   0.329E-06 0.121E-07
CGA:  13    -0.684137102192E+02   -0.13246E-06   -0.13200E-06   512   0.976E-07-0.332E-09
CGA:  14    -0.684137102571E+02   -0.37860E-07   -0.37094E-07   512   0.275E-07 0.341E-08
CGA:  15    -0.684137102702E+02   -0.13073E-07   -0.12612E-07   512   0.105E-07-0.221E-08
CGA:  16    -0.684137102735E+02   -0.33342E-08   -0.29600E-08   512   0.320E-08 0.273E-08
   7 F= -.68413710E+02 E0= -.68413710E+02  d E =-.588172E-14
       N       E                     dE             d eps       ncg     rms          ort
SDA:   1    -0.683564723994E+02    0.57238E-01    0.00000E+00   512   0.102E+00 0.000E+00
CGA:   2    -0.683998390629E+02   -0.43367E-01   -0.43362E-01   512   0.489E-01 0.283E-04
CGA:   3    -0.684095863324E+02   -0.97473E-02   -0.97387E-02   512   0.735E-02-0.657E-05
CGA:   4    -0.684111226847E+02   -0.15364E-02   -0.15364E-02   512   0.168E-02-0.425E-05
CGA:   5    -0.684115018362E+02   -0.37915E-03   -0.37952E-03   512   0.421E-03 0.276E-05
CGA:   6    -0.684116198466E+02   -0.11801E-03   -0.11809E-03   512   0.136E-03 0.193E-05
CGA:   7    -0.684116632830E+02   -0.43436E-04   -0.43437E-04   512   0.561E-04 0.487E-06
CGA:   8    -0.684116825890E+02   -0.19306E-04   -0.19298E-04   512   0.225E-04 0.280E-06
CGA:   9    -0.684116905515E+02   -0.79625E-05   -0.79625E-05   512   0.812E-05-0.151E-07
CGA:  10    -0.684116934213E+02   -0.28698E-05   -0.28684E-05   512   0.270E-05 0.323E-07
CGA:  11    -0.684116944329E+02   -0.10116E-05   -0.10101E-05   512   0.900E-06 0.215E-07
CGA:  12    -0.684116947703E+02   -0.33741E-06   -0.33517E-06   512   0.269E-06 0.416E-07
CGA:  13    -0.684116948847E+02   -0.11437E-06   -0.11417E-06   512   0.855E-07-0.320E-08
CGA:  14    -0.684116949230E+02   -0.38292E-07   -0.40260E-07   512   0.343E-07-0.170E-07
CGA:  15    -0.684116949341E+02   -0.11070E-07   -0.10764E-07   512   0.952E-08-0.144E-08
CGA:  16    -0.684116949390E+02   -0.49440E-08   -0.55237E-08   512   0.920E-08-0.460E-08
   8 F= -.68411695E+02 E0= -.68411695E+02  d E =-.478027E-29
       N       E                     dE             d eps       ncg     rms          ort
SDA:   1    -0.682948495384E+02    0.11685E+00    0.00000E+00   512   0.220E+00 0.000E+00
CGA:   2    -0.683806868460E+02   -0.85837E-01   -0.85864E-01   512   0.128E+00-0.463E-03
CGA:   3    -0.684071214672E+02   -0.26435E-01   -0.26474E-01   512   0.160E-01-0.423E-04
CGA:   4    -0.684104028392E+02   -0.32814E-02   -0.32827E-02   512   0.375E-02 0.628E-05
CGA:   5    -0.684112946478E+02   -0.89181E-03   -0.89154E-03   512   0.954E-03-0.409E-05
CGA:   6    -0.684115714417E+02   -0.27679E-03   -0.27666E-03   512   0.327E-03-0.398E-05
CGA:   7    -0.684116767153E+02   -0.10527E-03   -0.10527E-03   512   0.133E-03-0.105E-05
CGA:   8    -0.684117238326E+02   -0.47117E-04   -0.47118E-04   512   0.530E-04-0.672E-07
CGA:   9    -0.684117425846E+02   -0.18752E-04   -0.18749E-04   512   0.181E-04 0.126E-06
CGA:  10    -0.684117490406E+02   -0.64559E-05   -0.64578E-05   512   0.566E-05-0.820E-07
CGA:  11    -0.684117511209E+02   -0.20804E-05   -0.20810E-05   512   0.173E-05-0.249E-07
CGA:  12    -0.684117517987E+02   -0.67774E-06   -0.68218E-06   512   0.566E-06-0.761E-07
CGA:  13    -0.684117520024E+02   -0.20370E-06   -0.20301E-06   512   0.152E-06 0.109E-07
CGA:  14    -0.684117520604E+02   -0.58038E-07   -0.57411E-07   512   0.459E-07 0.138E-07
CGA:  15    -0.684117520769E+02   -0.16482E-07   -0.16481E-07   512   0.140E-07 0.118E-07
CGA:  16    -0.684117520836E+02   -0.66539E-08   -0.64150E-08   512   0.555E-08 0.351E-08
   9 F= -.68411752E+02 E0= -.68411752E+02  d E =-.292293E-84
       N       E                     dE             d eps       ncg     rms          ort
SDA:   1    -0.683576775009E+02    0.54075E-01    0.00000E+00   512   0.102E+00 0.000E+00
CGA:   2    -0.683999730311E+02   -0.42296E-01   -0.42293E-01   512   0.520E-01 0.441E-05
CGA:   3    -0.684107312736E+02   -0.10758E-01   -0.10750E-01   512   0.716E-02-0.735E-05
CGA:   4    -0.684122280386E+02   -0.14968E-02   -0.14970E-02   512   0.172E-02-0.297E-05
CGA:   5    -0.684126232989E+02   -0.39526E-03   -0.39556E-03   512   0.451E-03 0.198E-05
CGA:   6    -0.684127512637E+02   -0.12796E-03   -0.12802E-03   512   0.151E-03 0.115E-05
CGA:   7    -0.684127996473E+02   -0.48384E-04   -0.48386E-04   512   0.594E-04 0.473E-06
CGA:   8    -0.684128198807E+02   -0.20233E-04   -0.20229E-04   512   0.219E-04 0.273E-06
CGA:   9    -0.684128274314E+02   -0.75507E-05   -0.75500E-05   512   0.716E-05 0.284E-07
CGA:  10    -0.684128298712E+02   -0.24398E-05   -0.24382E-05   512   0.215E-05 0.989E-07
CGA:  11    -0.684128306565E+02   -0.78527E-06   -0.78436E-06   512   0.666E-06 0.214E-07
CGA:  12    -0.684128308987E+02   -0.24224E-06   -0.24128E-06   512   0.191E-06 0.290E-07
CGA:  13    -0.684128309819E+02   -0.83157E-07   -0.84528E-07   512   0.665E-07-0.148E-07
CGA:  14    -0.684128310077E+02   -0.25835E-07   -0.26432E-07   512   0.208E-07-0.726E-08
CGA:  15    -0.684128310164E+02   -0.87020E-08   -0.10120E-07   512   0.120E-07-0.748E-08
  10 F= -.68412831E+02 E0= -.68412831E+02  d E =-.171768E-16
       N       E                     dE             d eps       ncg     rms          ort
SDA:   1    -0.683033941900E+02    0.10944E+00    0.00000E+00   512   0.198E+00 0.000E+00
CGA:   2    -0.683920094547E+02   -0.88615E-01   -0.88628E-01   512   0.815E-01-0.130E-03
CGA:   3    -0.684092569740E+02   -0.17248E-01   -0.17239E-01   512   0.123E-01 0.791E-05
CGA:   4    -0.684117797260E+02   -0.25228E-02   -0.25229E-02   512   0.290E-02-0.142E-05
CGA:   5    -0.684124621672E+02   -0.68244E-03   -0.68280E-03   512   0.789E-03 0.175E-05
CGA:   6    -0.684126851278E+02   -0.22296E-03   -0.22307E-03   512   0.278E-03 0.166E-05
CGA:   7    -0.684127742857E+02   -0.89158E-04   -0.89161E-04   512   0.108E-03 0.129E-06
CGA:   8    -0.684128105878E+02   -0.36302E-04   -0.36303E-04   512   0.374E-04-0.154E-06
CGA:   9    -0.684128230952E+02   -0.12507E-04   -0.12507E-04   512   0.113E-04-0.727E-07
CGA:  10    -0.684128269926E+02   -0.38974E-05   -0.38988E-05   512   0.346E-05-0.107E-06
CGA:  11    -0.684128282280E+02   -0.12354E-05   -0.12342E-05   512   0.110E-05 0.279E-07
CGA:  12    -0.684128286515E+02   -0.42349E-06   -0.42259E-06   512   0.370E-06 0.798E-08
CGA:  13    -0.684128287941E+02   -0.14253E-06   -0.14113E-06   512   0.115E-06 0.209E-07
CGA:  14    -0.684128288453E+02   -0.51214E-07   -0.50757E-07   512   0.429E-07 0.223E-09
CGA:  15    -0.684128288628E+02   -0.17470E-07   -0.16882E-07   512   0.130E-07 0.305E-08
CGA:  16    -0.684128288701E+02   -0.73251E-08   -0.70399E-08   512   0.698E-08-0.242E-08
  11 F= -.68412829E+02 E0= -.68412829E+02  d E =-.774956E-26
       N       E                     dE             d eps       ncg     rms          ort
SDA:   1    -0.683608785887E+02    0.51950E-01    0.00000E+00   512   0.961E-01 0.000E+00
CGA:   2    -0.684042859969E+02   -0.43407E-01   -0.43414E-01   512   0.357E-01-0.629E-04
CGA:   3    -0.684119996766E+02   -0.77137E-02   -0.77167E-02   512   0.624E-02-0.499E-05
CGA:   4    -0.684132364509E+02   -0.12368E-02   -0.12372E-02   512   0.137E-02 0.254E-06
CGA:   5    -0.684135579737E+02   -0.32152E-03   -0.32149E-03   512   0.356E-03-0.996E-06
CGA:   6    -0.684136573851E+02   -0.99411E-04   -0.99394E-04   512   0.121E-03-0.497E-06
CGA:   7    -0.684136957020E+02   -0.38317E-04   -0.38320E-04   512   0.468E-04 0.126E-06
CGA:   8    -0.684137114910E+02   -0.15789E-04   -0.15788E-04   512   0.167E-04 0.143E-06
CGA:   9    -0.684137171740E+02   -0.56830E-05   -0.56820E-05   512   0.522E-05 0.855E-07
CGA:  10    -0.684137189944E+02   -0.18204E-05   -0.18189E-05   512   0.162E-05 0.851E-07
CGA:  11    -0.684137196147E+02   -0.62033E-06   -0.61982E-06   512   0.553E-06 0.581E-08
CGA:  12    -0.684137198359E+02   -0.22121E-06   -0.22154E-06   512   0.185E-06-0.109E-07
CGA:  13    -0.684137199092E+02   -0.73331E-07   -0.73246E-07   512   0.567E-07-0.369E-08
CGA:  14    -0.684137199334E+02   -0.24142E-07   -0.24270E-07   512   0.200E-07-0.471E-08
CGA:  15    -0.684137199411E+02   -0.76743E-08   -0.73927E-08   512   0.597E-08 0.218E-09
  12 F= -.68413720E+02 E0= -.68413720E+02  d E =-.605679E-31
       N       E                     dE             d eps       ncg     rms          ort
SDA:   1    -0.683120601917E+02    0.10166E+00    0.00000E+00   512   0.186E+00 0.000E+00
CGA:   2    -0.683970069787E+02   -0.84947E-01   -0.85005E-01   512   0.598E-01-0.424E-03
CGA:   3    -0.684104803992E+02   -0.13473E-01   -0.13479E-01   512   0.124E-01-0.133E-04
CGA:   4    -0.684128141387E+02   -0.23337E-02   -0.23332E-02   512   0.257E-02 0.355E-06
CGA:   5    -0.684134351267E+02   -0.62099E-03   -0.62102E-03   512   0.658E-03-0.475E-06
CGA:   6    -0.684136117746E+02   -0.17665E-03   -0.17669E-03   512   0.217E-03 0.227E-06
CGA:   7    -0.684136802209E+02   -0.68446E-04   -0.68450E-04   512   0.782E-04 0.705E-07
CGA:   8    -0.684137065473E+02   -0.26326E-04   -0.26326E-04   512   0.281E-04 0.123E-07
CGA:   9    -0.684137157573E+02   -0.92099E-05   -0.92104E-05   512   0.860E-05 0.132E-06
CGA:  10    -0.684137187881E+02   -0.30308E-05   -0.30301E-05   512   0.272E-05 0.787E-08
CGA:  11    -0.684137197995E+02   -0.10114E-05   -0.10095E-05   512   0.918E-06 0.354E-07
CGA:  12    -0.684137201639E+02   -0.36441E-06   -0.36350E-06   512   0.301E-06 0.485E-08
CGA:  13    -0.684137202841E+02   -0.12024E-06   -0.11935E-06   512   0.858E-07 0.449E-08
CGA:  14    -0.684137203198E+02   -0.35692E-07   -0.35010E-07   512   0.248E-07 0.148E-10
CGA:  15    -0.684137203312E+02   -0.11371E-07   -0.10706E-07   512   0.786E-08-0.998E-09
CGA:  16    -0.684137203339E+02   -0.27576E-08   -0.23699E-08   512   0.230E-08 0.207E-08
  13 F= -.68413720E+02 E0= -.68413720E+02  d E =-.120190E-30
       N       E                     dE             d eps       ncg     rms          ort
SDA:   1    -0.683579284216E+02    0.55792E-01    0.00000E+00   512   0.972E-01 0.000E+00
CGA:   2    -0.684033297481E+02   -0.45401E-01   -0.45409E-01   512   0.328E-01-0.446E-04
CGA:   3    -0.684105354555E+02   -0.72057E-02   -0.72095E-02   512   0.549E-02-0.586E-05
CGA:   4    -0.684116218317E+02   -0.10864E-02   -0.10866E-02   512   0.121E-02 0.857E-06
CGA:   5    -0.684119062939E+02   -0.28446E-03   -0.28456E-03   512   0.307E-03 0.338E-06
CGA:   6    -0.684119910695E+02   -0.84776E-04   -0.84793E-04   512   0.100E-03 0.145E-06
CGA:   7    -0.684120223561E+02   -0.31287E-04   -0.31287E-04   512   0.360E-04-0.270E-07
CGA:   8    -0.684120344395E+02   -0.12083E-04   -0.12082E-04   512   0.124E-04 0.738E-07
CGA:   9    -0.684120387034E+02   -0.42639E-05   -0.42631E-05   512   0.405E-05 0.406E-07
CGA:  10    -0.684120401626E+02   -0.14592E-05   -0.14592E-05   512   0.138E-05-0.143E-07
CGA:  11    -0.684120406786E+02   -0.51604E-06   -0.51433E-06   512   0.469E-06 0.313E-07
CGA:  12    -0.684120408752E+02   -0.19659E-06   -0.19705E-06   512   0.174E-06-0.115E-07
CGA:  13    -0.684120409408E+02   -0.65565E-07   -0.65071E-07   512   0.495E-07 0.363E-08
CGA:  14    -0.684120409628E+02   -0.21968E-07   -0.22005E-07   512   0.177E-07-0.498E-08
CGA:  15    -0.684120409683E+02   -0.54915E-08   -0.52040E-08   512   0.437E-08 0.255E-08
  14 F= -.68412041E+02 E0= -.68412041E+02  d E =-.120454E-23
       N       E                     dE             d eps       ncg     rms          ort
SDA:   1    -0.682974211431E+02    0.11462E+00    0.00000E+00   512   0.201E+00 0.000E+00
CGA:   2    -0.683946363982E+02   -0.97215E-01   -0.97243E-01   512   0.681E-01-0.152E-03
CGA:   3    -0.684092904806E+02   -0.14654E-01   -0.14647E-01   512   0.873E-02 0.252E-04
CGA:   4    -0.684112284271E+02   -0.19379E-02   -0.19385E-02   512   0.204E-02-0.397E-06
CGA:   5    -0.684117371635E+02   -0.50874E-03   -0.50882E-03   512   0.575E-03-0.264E-06
CGA:   6    -0.684119071612E+02   -0.17000E-03   -0.17001E-03   512   0.193E-03 0.143E-07
CGA:   7    -0.684119687645E+02   -0.61603E-04   -0.61609E-04   512   0.666E-04 0.268E-06
CGA:   8    -0.684119910508E+02   -0.22286E-04   -0.22286E-04   512   0.212E-04 0.255E-07
CGA:   9    -0.684119984628E+02   -0.74119E-05   -0.74109E-05   512   0.660E-05 0.500E-07
CGA:  10    -0.684120009012E+02   -0.24384E-05   -0.24373E-05   512   0.219E-05 0.229E-07
CGA:  11    -0.684120017743E+02   -0.87313E-06   -0.87275E-06   512   0.767E-06 0.254E-08
CGA:  12    -0.684120020823E+02   -0.30801E-06   -0.30657E-06   512   0.253E-06 0.196E-07
CGA:  13    -0.684120021904E+02   -0.10807E-06   -0.10847E-06   512   0.876E-07-0.761E-08
CGA:  14    -0.684120022205E+02   -0.30153E-07   -0.29917E-07   512   0.228E-07 0.690E-08
CGA:  15    -0.684120022320E+02   -0.11461E-07   -0.12105E-07   512   0.125E-07-0.642E-08
CGA:  16    -0.684120022346E+02   -0.26175E-08   -0.25432E-08   512   0.377E-08 0.141E-08
  15 F= -.68412002E+02 E0= -.68412002E+02  d E =-.538938E-18
       N       E                     dE             d eps       ncg     rms          ort
SDA:   1    -0.683543508961E+02    0.57651E-01    0.00000E+00   512   0.104E+00 0.000E+00
CGA:   2    -0.684026008131E+02   -0.48250E-01   -0.48251E-01   512   0.357E-01-0.294E-04
CGA:   3    -0.684108423098E+02   -0.82415E-02   -0.82445E-02   512   0.486E-02-0.138E-04
CGA:   4    -0.684119203056E+02   -0.10780E-02   -0.10783E-02   512   0.109E-02 0.541E-07
CGA:   5    -0.684121829738E+02   -0.26267E-03   -0.26281E-03   512   0.289E-03 0.793E-06
CGA:   6    -0.684122661927E+02   -0.83219E-04   -0.83236E-04   512   0.924E-04 0.207E-06
CGA:   7    -0.684122947598E+02   -0.28567E-04   -0.28571E-04   512   0.297E-04 0.130E-06
CGA:   8    -0.684123043063E+02   -0.95466E-05   -0.95472E-05   512   0.869E-05 0.813E-07
CGA:   9    -0.684123072466E+02   -0.29402E-05   -0.29401E-05   512   0.250E-05-0.255E-07
CGA:  10    -0.684123081160E+02   -0.86941E-06   -0.86888E-06   512   0.728E-06 0.182E-07
CGA:  11    -0.684123083946E+02   -0.27865E-06   -0.27782E-06   512   0.235E-06 0.101E-07
CGA:  12    -0.684123084948E+02   -0.10014E-06   -0.99768E-07   512   0.843E-07 0.725E-09
CGA:  13    -0.684123085329E+02   -0.38186E-07   -0.38480E-07   512   0.311E-07-0.441E-08
CGA:  14    -0.684123085468E+02   -0.13813E-07   -0.14058E-07   512   0.112E-07-0.445E-08
CGA:  15    -0.684123085509E+02   -0.41564E-08   -0.39111E-08   512   0.288E-08-0.460E-09
  16 F= -.68412309E+02 E0= -.68412309E+02  d E =-.150405E-30
       N       E                     dE             d eps       ncg     rms          ort
SDA:   1    -0.682988267829E+02    0.11348E+00    0.00000E+00   512   0.203E+00 0.000E+00
CGA:   2    -0.683934537702E+02   -0.94627E-01   -0.94641E-01   512   0.698E-01-0.122E-03
CGA:   3    -0.684094773904E+02   -0.16024E-01   -0.16018E-01   512   0.938E-02 0.215E-04
CGA:   4    -0.684115875129E+02   -0.21101E-02   -0.21106E-02   512   0.205E-02 0.571E-06
CGA:   5    -0.684120925801E+02   -0.50507E-03   -0.50507E-03   512   0.552E-03-0.157E-05
CGA:   6    -0.684122470854E+02   -0.15451E-03   -0.15452E-03   512   0.178E-03-0.184E-06
CGA:   7    -0.684123011170E+02   -0.54032E-04   -0.54029E-04   512   0.587E-04-0.161E-06
CGA:   8    -0.684123200465E+02   -0.18930E-04   -0.18930E-04   512   0.180E-04 0.310E-07
CGA:   9    -0.684123261098E+02   -0.60633E-05   -0.60633E-05   512   0.530E-05 0.897E-07
CGA:  10    -0.684123280262E+02   -0.19164E-05   -0.19162E-05   512   0.167E-05-0.275E-08
CGA:  11    -0.684123286579E+02   -0.63169E-06   -0.63043E-06   512   0.553E-06 0.246E-07
CGA:  12    -0.684123288899E+02   -0.23193E-06   -0.23225E-06   512   0.210E-06-0.804E-08
CGA:  13    -0.684123289666E+02   -0.76712E-07   -0.76038E-07   512   0.637E-07 0.178E-07
CGA:  14    -0.684123289969E+02   -0.30321E-07   -0.30522E-07   512   0.267E-07-0.508E-08
CGA:  15    -0.684123290049E+02   -0.79890E-08   -0.78169E-08   512   0.661E-08 0.390E-08
  17 F= -.68412329E+02 E0= -.68412329E+02  d E =-.815582E-31
       N       E                     dE             d eps       ncg     rms          ort
SDA:   1    -0.683577134460E+02    0.54616E-01    0.00000E+00   512   0.101E+00 0.000E+00
CGA:   2    -0.684052680351E+02   -0.47555E-01   -0.47573E-01   512   0.311E-01-0.123E-03
CGA:   3    -0.684125622036E+02   -0.72942E-02   -0.72959E-02   512   0.473E-02-0.696E-05
CGA:   4    -0.684136226494E+02   -0.10604E-02   -0.10608E-02   512   0.997E-03-0.156E-06
CGA:   5    -0.684138665216E+02   -0.24387E-03   -0.24401E-03   512   0.258E-03 0.711E-06
CGA:   6    -0.684139388180E+02   -0.72296E-04   -0.72309E-04   512   0.846E-04 0.571E-07
CGA:   7    -0.684139644257E+02   -0.25608E-04   -0.25614E-04   512   0.278E-04 0.143E-06
CGA:   8    -0.684139733840E+02   -0.89583E-05   -0.89589E-05   512   0.809E-05 0.542E-07
CGA:   9    -0.684139761040E+02   -0.27199E-05   -0.27197E-05   512   0.232E-05-0.180E-07
CGA:  10    -0.684139769228E+02   -0.81878E-06   -0.81801E-06   512   0.739E-06 0.207E-07
CGA:  11    -0.684139772239E+02   -0.30117E-06   -0.30072E-06   512   0.290E-06 0.126E-08
CGA:  12    -0.684139773465E+02   -0.12259E-06   -0.12136E-06   512   0.111E-06 0.104E-07
CGA:  13    -0.684139773995E+02   -0.52938E-07   -0.53820E-07   512   0.494E-07-0.103E-07
CGA:  14    -0.684139774156E+02   -0.16100E-07   -0.15671E-07   512   0.129E-07 0.436E-08
CGA:  15    -0.684139774220E+02   -0.64629E-08   -0.61502E-08   512   0.561E-08-0.199E-08
  18 F= -.68413977E+02 E0= -.68413977E+02  d E =-.136434E-30
       N       E                     dE             d eps       ncg     rms          ort
SDA:   1    -0.683026776467E+02    0.11130E+00    0.00000E+00   512   0.201E+00 0.000E+00
CGA:   2    -0.683981001590E+02   -0.95423E-01   -0.95528E-01   512   0.538E-01-0.638E-03
CGA:   3    -0.684112057946E+02   -0.13106E-01   -0.13107E-01   512   0.942E-02 0.643E-06
CGA:   4    -0.684132658252E+02   -0.20600E-02   -0.20604E-02   512   0.196E-02-0.480E-06
CGA:   5    -0.684137547666E+02   -0.48894E-03   -0.48900E-03   512   0.512E-03-0.449E-06
CGA:   6    -0.684138980293E+02   -0.14326E-03   -0.14328E-03   512   0.176E-03-0.127E-07
CGA:   7    -0.684139514901E+02   -0.53461E-04   -0.53463E-04   512   0.575E-04 0.388E-09
CGA:   8    -0.684139699606E+02   -0.18470E-04   -0.18470E-04   512   0.161E-04-0.282E-07
CGA:   9    -0.684139752311E+02   -0.52705E-05   -0.52702E-05   512   0.439E-05 0.212E-07
CGA:  10    -0.684139767839E+02   -0.15528E-05   -0.15521E-05   512   0.144E-05 0.976E-08
CGA:  11    -0.684139773786E+02   -0.59465E-06   -0.59363E-06   512   0.591E-06 0.415E-08
CGA:  12    -0.684139776435E+02   -0.26490E-06   -0.26327E-06   512   0.243E-06 0.102E-07
CGA:  13    -0.684139777502E+02   -0.10671E-06   -0.10604E-06   512   0.851E-07 0.988E-09
CGA:  14    -0.684139777861E+02   -0.35883E-07   -0.35266E-07   512   0.251E-07 0.618E-09
CGA:  15    -0.684139777972E+02   -0.11112E-07   -0.10706E-07   512   0.740E-08-0.453E-09
CGA:  16    -0.684139778002E+02   -0.30068E-08   -0.25866E-08   512   0.174E-08 0.104E-08
  19 F= -.68413978E+02 E0= -.68413978E+02  d E =-.137608E-30
       N       E                     dE             d eps       ncg     rms          ort
SDA:   1    -0.683543177618E+02    0.59660E-01    0.00000E+00   512   0.104E+00 0.000E+00
CGA:   2    -0.684021656524E+02   -0.47848E-01   -0.47859E-01   512   0.359E-01-0.504E-04
CGA:   3    -0.684102447786E+02   -0.80791E-02   -0.80824E-02   512   0.539E-02 0.102E-04
CGA:   4    -0.684114391584E+02   -0.11944E-02   -0.11948E-02   512   0.113E-02 0.359E-07
CGA:   5    -0.684117107243E+02   -0.27157E-03   -0.27153E-03   512   0.285E-03-0.106E-05
CGA:   6    -0.684117908966E+02   -0.80172E-04   -0.80172E-04   512   0.912E-04-0.164E-06
CGA:   7    -0.684118193304E+02   -0.28434E-04   -0.28438E-04   512   0.311E-04 0.131E-06
CGA:   8    -0.684118296629E+02   -0.10333E-04   -0.10332E-04   512   0.972E-05-0.286E-07
CGA:   9    -0.684118329557E+02   -0.32928E-05   -0.32923E-05   512   0.289E-05 0.434E-07
CGA:  10    -0.684118339965E+02   -0.10408E-05   -0.10393E-05   512   0.946E-06 0.513E-07
CGA:  11    -0.684118343938E+02   -0.39729E-06   -0.39733E-06   512   0.378E-06-0.378E-08
CGA:  12    -0.684118345522E+02   -0.15846E-06   -0.15765E-06   512   0.136E-06 0.830E-08
CGA:  13    -0.684118346120E+02   -0.59801E-07   -0.59947E-07   512   0.484E-07-0.516E-08
CGA:  14    -0.684118346296E+02   -0.17553E-07   -0.17332E-07   512   0.128E-07 0.226E-08
CGA:  15    -0.684118346358E+02   -0.62464E-08   -0.64067E-08   512   0.611E-08-0.271E-08
  20 F= -.68411835E+02 E0= -.68411835E+02  d E =-.814806E-17
       N       E                     dE             d eps       ncg     rms          ort
SDA:   1    -0.682939344344E+02    0.11790E+00    0.00000E+00   512   0.214E+00 0.000E+00
CGA:   2    -0.683889507517E+02   -0.95016E-01   -0.95066E-01   512   0.879E-01-0.387E-03
CGA:   3    -0.684084471259E+02   -0.19496E-01   -0.19494E-01   512   0.115E-01-0.186E-05
CGA:   4    -0.684109550620E+02   -0.25079E-02   -0.25085E-02   512   0.251E-02-0.114E-05
CGA:   5    -0.684115705422E+02   -0.61548E-03   -0.61580E-03   512   0.661E-03 0.181E-05
CGA:   6    -0.684117599255E+02   -0.18938E-03   -0.18944E-03   512   0.219E-03 0.792E-06
CGA:   7    -0.684118302466E+02   -0.70321E-04   -0.70323E-04   512   0.789E-04-0.231E-08
CGA:   8    -0.684118573197E+02   -0.27073E-04   -0.27072E-04   512   0.275E-04 0.435E-07
CGA:   9    -0.684118670142E+02   -0.96945E-05   -0.96946E-05   512   0.896E-05-0.307E-07
CGA:  10    -0.684118703128E+02   -0.32986E-05   -0.33007E-05   512   0.294E-05-0.721E-07
CGA:  11    -0.684118714332E+02   -0.11205E-05   -0.11189E-05   512   0.953E-06 0.272E-07
CGA:  12    -0.684118718258E+02   -0.39255E-06   -0.39233E-06   512   0.323E-06-0.173E-08
CGA:  13    -0.684118719511E+02   -0.12529E-06   -0.12445E-06   512   0.932E-07 0.137E-07
CGA:  14    -0.684118719927E+02   -0.41586E-07   -0.41677E-07   512   0.320E-07-0.468E-08
CGA:  15    -0.684118720045E+02   -0.11838E-07   -0.11440E-07   512   0.806E-08 0.173E-08
CGA:  16    -0.684118720090E+02   -0.45129E-08   -0.51201E-08   512   0.709E-08-0.380E-08
  21 F= -.68411872E+02 E0= -.68411872E+02  d E =-.135141E-24
       N       E                     dE             d eps       ncg     rms          ort
SDA:   1    -0.683567150170E+02    0.55157E-01    0.00000E+00   512   0.101E+00 0.000E+00
CGA:   2    -0.684014471356E+02   -0.44732E-01   -0.44731E-01   512   0.435E-01-0.170E-04
CGA:   3    -0.684107603496E+02   -0.93132E-02   -0.93164E-02   512   0.524E-02-0.105E-04
CGA:   4    -0.684119388442E+02   -0.11785E-02   -0.11788E-02   512   0.116E-02 0.210E-06
CGA:   5    -0.684122269478E+02   -0.28810E-03   -0.28806E-03   512   0.306E-03-0.102E-05
CGA:   6    -0.684123131446E+02   -0.86197E-04   -0.86170E-04   512   0.968E-04-0.603E-06
CGA:   7    -0.684123439870E+02   -0.30842E-04   -0.30844E-04   512   0.347E-04 0.854E-08
CGA:   8    -0.684123557900E+02   -0.11803E-04   -0.11803E-04   512   0.120E-04 0.112E-06
CGA:   9    -0.684123600023E+02   -0.42123E-05   -0.42110E-05   512   0.383E-05 0.100E-06
CGA:  10    -0.684123614086E+02   -0.14064E-05   -0.14040E-05   512   0.124E-05 0.836E-07
CGA:  11    -0.684123619144E+02   -0.50579E-06   -0.50552E-06   512   0.445E-06-0.155E-08
CGA:  12    -0.684123620980E+02   -0.18353E-06   -0.18365E-06   512   0.149E-06-0.533E-08
CGA:  13    -0.684123621635E+02   -0.65555E-07   -0.67432E-07   512   0.551E-07-0.192E-07
CGA:  14    -0.684123621816E+02   -0.18083E-07   -0.17918E-07   512   0.132E-07 0.263E-09
CGA:  15    -0.684123621874E+02   -0.58208E-08   -0.57211E-08   512   0.499E-08-0.152E-08
  22 F= -.68412362E+02 E0= -.68412362E+02  d E =-.456038E-18
       N       E                     dE             d eps       ncg     rms          ort
SDA:   1    -0.683033175540E+02    0.10904E+00    0.00000E+00   512   0.197E+00 0.000E+00
CGA:   2    -0.683924840853E+02   -0.89167E-01   -0.89195E-01   512   0.770E-01-0.192E-03
CGA:   3    -0.684091803593E+02   -0.16696E-01   -0.16688E-01   512   0.104E-01 0.320E-04
CGA:   4    -0.684115226084E+02   -0.23422E-02   -0.23427E-02   512   0.233E-02-0.714E-07
CGA:   5    -0.684120851160E+02   -0.56251E-03   -0.56270E-03   512   0.626E-03 0.251E-06
CGA:   6    -0.684122568615E+02   -0.17175E-03   -0.17183E-03   512   0.190E-03 0.951E-06
CGA:   7    -0.684123153459E+02   -0.58484E-04   -0.58496E-04   512   0.626E-04 0.297E-06
CGA:   8    -0.684123357122E+02   -0.20366E-04   -0.20367E-04   512   0.198E-04 0.256E-07
CGA:   9    -0.684123423448E+02   -0.66326E-05   -0.66324E-05   512   0.590E-05-0.252E-07
CGA:  10    -0.684123444418E+02   -0.20970E-05   -0.20983E-05   512   0.187E-05-0.695E-07
CGA:  11    -0.684123451346E+02   -0.69287E-06   -0.69141E-06   512   0.619E-06 0.259E-07
CGA:  12    -0.684123453946E+02   -0.25996E-06   -0.25926E-06   512   0.232E-06 0.264E-08
CGA:  13    -0.684123454817E+02   -0.87055E-07   -0.85940E-07   512   0.711E-07 0.271E-07
CGA:  14    -0.684123455156E+02   -0.33926E-07   -0.33409E-07   512   0.265E-07 0.113E-08
CGA:  15    -0.684123455256E+02   -0.10066E-07   -0.97137E-08   512   0.701E-08 0.321E-08
CGA:  16    -0.684123455296E+02   -0.39545E-08   -0.36210E-08   512   0.339E-08-0.105E-08
  23 F= -.68412346E+02 E0= -.68412346E+02  d E =-.927448E-23
       N       E                     dE             d eps       ncg     rms          ort
SDA:   1    -0.683600423322E+02    0.52303E-01    0.00000E+00   512   0.974E-01 0.000E+00
CGA:   2    -0.684050288464E+02   -0.44987E-01   -0.44992E-01   512   0.328E-01-0.621E-04
CGA:   3    -0.684123894082E+02   -0.73606E-02   -0.73631E-02   512   0.512E-02-0.103E-04
CGA:   4    -0.684135037844E+02   -0.11144E-02   -0.11147E-02   512   0.110E-02-0.174E-06
CGA:   5    -0.684137637912E+02   -0.26001E-03   -0.26006E-03   512   0.279E-03-0.172E-06
CGA:   6    -0.684138404107E+02   -0.76620E-04   -0.76602E-04   512   0.856E-04-0.397E-06
CGA:   7    -0.684138669787E+02   -0.26568E-04   -0.26569E-04   512   0.294E-04 0.223E-08
CGA:   8    -0.684138766337E+02   -0.96550E-05   -0.96556E-05   512   0.964E-05 0.592E-07
CGA:   9    -0.684138799279E+02   -0.32942E-05   -0.32939E-05   512   0.305E-05 0.463E-07
CGA:  10    -0.684138810252E+02   -0.10973E-05   -0.10959E-05   512   0.104E-05 0.597E-07
CGA:  11    -0.684138814512E+02   -0.42592E-06   -0.42553E-06   512   0.405E-06 0.181E-08
CGA:  12    -0.684138816212E+02   -0.17006E-06   -0.16941E-06   512   0.145E-06 0.348E-08
CGA:  13    -0.684138816858E+02   -0.64600E-07   -0.65531E-07   512   0.541E-07-0.136E-07
CGA:  14    -0.684138817048E+02   -0.18936E-07   -0.18682E-07   512   0.134E-07-0.428E-09
CGA:  15    -0.684138817108E+02   -0.59899E-08   -0.58135E-08   512   0.484E-08-0.170E-08
  24 F= -.68413882E+02 E0= -.68413882E+02  d E =-.420918E-30
       N       E                     dE             d eps       ncg     rms          ort
SDA:   1    -0.683077289390E+02    0.10615E+00    0.00000E+00   512   0.193E+00 0.000E+00
CGA:   2    -0.683974554833E+02   -0.89727E-01   -0.89822E-01   512   0.572E-01-0.628E-03
CGA:   3    -0.684110174942E+02   -0.13562E-01   -0.13562E-01   512   0.100E-01-0.861E-06
CGA:   4    -0.684131167116E+02   -0.20992E-02   -0.20995E-02   512   0.221E-02-0.115E-05
CGA:   5    -0.684136423494E+02   -0.52564E-03   -0.52573E-03   512   0.549E-03-0.352E-06
CGA:   6    -0.684137948625E+02   -0.15251E-03   -0.15254E-03   512   0.179E-03 0.891E-07
CGA:   7    -0.684138508705E+02   -0.56008E-04   -0.56008E-04   512   0.618E-04-0.633E-07
CGA:   8    -0.684138713396E+02   -0.20469E-04   -0.20469E-04   512   0.202E-04 0.398E-07
CGA:   9    -0.684138781180E+02   -0.67784E-05   -0.67780E-05   512   0.637E-05 0.616E-07
CGA:  10    -0.684138804573E+02   -0.23393E-05   -0.23390E-05   512   0.228E-05-0.861E-08
CGA:  11    -0.684138813788E+02   -0.92150E-06   -0.91892E-06   512   0.880E-06 0.308E-07
CGA:  12    -0.684138817548E+02   -0.37601E-06   -0.37511E-06   512   0.317E-06 0.308E-08
CGA:  13    -0.684138818817E+02   -0.12688E-06   -0.12608E-06   512   0.913E-07 0.360E-08
CGA:  14    -0.684138819187E+02   -0.36976E-07   -0.36361E-07   512   0.241E-07-0.153E-10
CGA:  15    -0.684138819290E+02   -0.10312E-07   -0.96987E-08   512   0.639E-08 0.411E-10
CGA:  16    -0.684138819317E+02   -0.26721E-08   -0.21747E-08   512   0.169E-08 0.124E-08
  25 F= -.68413882E+02 E0= -.68413882E+02  d E =-.482947E-30
       N       E                     dE             d eps       ncg     rms          ort
SDA:   1    -0.683844723346E+02    0.29410E-01    0.00000E+00   512   0.535E-01 0.000E+00
CGA:   2    -0.684092811810E+02   -0.24809E-01   -0.24814E-01   512   0.157E-01-0.355E-04
CGA:   3    -0.684129665200E+02   -0.36853E-02   -0.36857E-02   512   0.280E-02-0.124E-05
CGA:   4    -0.684135467064E+02   -0.58019E-03   -0.58038E-03   512   0.598E-03-0.203E-06
CGA:   5    -0.684136882811E+02   -0.14157E-03   -0.14157E-03   512   0.143E-03-0.362E-06
CGA:   6    -0.684137274987E+02   -0.39218E-04   -0.39218E-04   512   0.444E-04-0.484E-07
CGA:   7    -0.684137412653E+02   -0.13767E-04   -0.13766E-04   512   0.150E-04-0.259E-07
CGA:   8    -0.684137462537E+02   -0.49884E-05   -0.49880E-05   512   0.488E-05 0.190E-07
CGA:   9    -0.684137479043E+02   -0.16506E-05   -0.16500E-05   512   0.151E-05 0.408E-07
CGA:  10    -0.684137484663E+02   -0.56201E-06   -0.56131E-06   512   0.541E-06 0.482E-08
CGA:  11    -0.684137486846E+02   -0.21835E-06   -0.21706E-06   512   0.205E-06 0.128E-07
CGA:  12    -0.684137487753E+02   -0.90666E-07   -0.90528E-07   512   0.761E-07-0.334E-08
CGA:  13    -0.684137488056E+02   -0.30324E-07   -0.29886E-07   512   0.211E-07-0.805E-09
CGA:  14    -0.684137488138E+02   -0.81673E-08   -0.77999E-08   512   0.509E-08 0.522E-09
  26 F= -.68413749E+02 E0= -.68413749E+02  d E =-.571816E-31
       N       E                     dE             d eps       ncg     rms          ort
SDA:   1    -0.684026742373E+02    0.11075E-01    0.00000E+00   512   0.214E-01 0.000E+00
CGA:   2    -0.684120028418E+02   -0.93286E-02   -0.93299E-02   512   0.693E-02-0.129E-04
CGA:   3    -0.684134314829E+02   -0.14286E-02   -0.14286E-02   512   0.116E-02-0.446E-06
CGA:   4    -0.684136748690E+02   -0.24339E-03   -0.24341E-03   512   0.236E-03-0.412E-06
CGA:   5    -0.684137290291E+02   -0.54160E-04   -0.54227E-04   512   0.496E-04 0.500E-06
CGA:   6    -0.684137418929E+02   -0.12864E-04   -0.12883E-04   512   0.127E-04 0.249E-06
CGA:   7    -0.684137456491E+02   -0.37562E-05   -0.37578E-05   512   0.420E-05 0.485E-07
CGA:   8    -0.684137470774E+02   -0.14283E-05   -0.14280E-05   512   0.156E-05 0.191E-08
CGA:   9    -0.684137476462E+02   -0.56878E-06   -0.56954E-06   512   0.540E-06-0.296E-07
CGA:  10    -0.684137478376E+02   -0.19139E-06   -0.19135E-06   512   0.161E-06-0.109E-07
CGA:  11    -0.684137478963E+02   -0.58755E-07   -0.58484E-07   512   0.482E-07-0.323E-08
CGA:  12    -0.684137479129E+02   -0.16626E-07   -0.16256E-07   512   0.129E-07 0.538E-08
CGA:  13    -0.684137479176E+02   -0.46530E-08   -0.44073E-08   512   0.392E-08 0.411E-08
  27 F= -.68413748E+02 E0= -.68413748E+02  d E =-.530772E-29
       N       E                     dE             d eps       ncg     rms          ort
SDA:   1    -0.684076890280E+02    0.60589E-02    0.00000E+00   512   0.108E-01 0.000E+00
CGA:   2    -0.684124164453E+02   -0.47274E-02   -0.47275E-02   512   0.347E-02-0.171E-05
CGA:   3    -0.684131140191E+02   -0.69757E-03   -0.69764E-03   512   0.575E-03-0.863E-06
CGA:   4    -0.684132344478E+02   -0.12043E-03   -0.12044E-03   512   0.116E-03-0.239E-06
CGA:   5    -0.684132610681E+02   -0.26620E-04   -0.26646E-04   512   0.233E-04 0.223E-06
CGA:   6    -0.684132669707E+02   -0.59026E-05   -0.59091E-05   512   0.553E-05 0.930E-07
CGA:   7    -0.684132685474E+02   -0.15767E-05   -0.15773E-05   512   0.167E-05 0.262E-07
CGA:   8    -0.684132691070E+02   -0.55960E-06   -0.55914E-06   512   0.602E-06 0.120E-07
CGA:   9    -0.684132693304E+02   -0.22338E-06   -0.22311E-06   512   0.214E-06 0.713E-09
CGA:  10    -0.684132694088E+02   -0.78440E-07   -0.78230E-07   512   0.650E-07 0.993E-09
CGA:  11    -0.684132694334E+02   -0.24622E-07   -0.24328E-07   512   0.197E-07-0.380E-09
CGA:  12    -0.684132694406E+02   -0.71450E-08   -0.69049E-08   512   0.547E-08 0.186E-08
  28 F= -.68413269E+02 E0= -.68413269E+02  d E =-.283268E-30
       N       E                     dE             d eps       ncg     rms          ort
SDA:   1    -0.684022567817E+02    0.11013E-01    0.00000E+00   512   0.213E-01 0.000E+00
CGA:   2    -0.684114094941E+02   -0.91527E-02   -0.91509E-02   512   0.752E-02 0.119E-04
CGA:   3    -0.684129443046E+02   -0.15348E-02   -0.15355E-02   512   0.123E-02-0.801E-06
CGA:   4    -0.684132034724E+02   -0.25917E-03   -0.25928E-03   512   0.248E-03 0.528E-06
CGA:   5    -0.684132615907E+02   -0.58118E-04   -0.58045E-04   512   0.559E-04-0.984E-06
CGA:   6    -0.684132767163E+02   -0.15126E-04   -0.15104E-04   512   0.161E-04-0.523E-06
CGA:   7    -0.684132814844E+02   -0.47681E-05   -0.47666E-05   512   0.552E-05-0.115E-06
CGA:   8    -0.684132833082E+02   -0.18238E-05   -0.18236E-05   512   0.192E-05-0.436E-08
CGA:   9    -0.684132839596E+02   -0.65138E-06   -0.64980E-06   512   0.585E-06 0.459E-07
CGA:  10    -0.684132841653E+02   -0.20579E-06   -0.20494E-06   512   0.173E-06 0.196E-07
CGA:  11    -0.684132842286E+02   -0.63295E-07   -0.62671E-07   512   0.528E-07 0.108E-07
CGA:  12    -0.684132842537E+02   -0.25037E-07   -0.25679E-07   512   0.251E-07-0.651E-08
CGA:  13    -0.684132842637E+02   -0.10012E-07   -0.10384E-07   512   0.100E-07-0.554E-08
CGA:  14    -0.684132842664E+02   -0.27085E-08   -0.24422E-08   512   0.260E-08 0.104E-08
  29 F= -.68413284E+02 E0= -.68413284E+02  d E =-.171946E-29
       N       E                     dE             d eps       ncg     rms          ort
SDA:   1    -0.684086103623E+02    0.46739E-02    0.00000E+00   512   0.109E-01 0.000E+00
CGA:   2    -0.684134113758E+02   -0.48010E-02   -0.48017E-02   512   0.318E-02-0.560E-05
CGA:   3    -0.684140832391E+02   -0.67186E-03   -0.67183E-03   512   0.559E-03-0.718E-06
CGA:   4    -0.684142009231E+02   -0.11768E-03   -0.11767E-03   512   0.112E-03-0.375E-06
CGA:   5    -0.684142262891E+02   -0.25366E-04   -0.25419E-04   512   0.231E-04 0.513E-06
CGA:   6    -0.684142322157E+02   -0.59266E-05   -0.59388E-05   512   0.574E-05 0.193E-06
CGA:   7    -0.684142339000E+02   -0.16843E-05   -0.16852E-05   512   0.184E-05 0.451E-07
CGA:   8    -0.684142345137E+02   -0.61366E-06   -0.61323E-06   512   0.660E-06 0.171E-07
CGA:   9    -0.684142347592E+02   -0.24557E-06   -0.24610E-06   512   0.241E-06-0.148E-07
CGA:  10    -0.684142348442E+02   -0.84936E-07   -0.84782E-07   512   0.744E-07-0.309E-08
CGA:  11    -0.684142348727E+02   -0.28569E-07   -0.28638E-07   512   0.257E-07-0.407E-08
CGA:  12    -0.684142348803E+02   -0.75797E-08   -0.74746E-08   512   0.692E-08 0.493E-08
  30 F= -.68414235E+02 E0= -.68414235E+02  d E =-.902094E-30
       N       E                     dE             d eps       ncg     rms          ort
SDA:   1    -0.684026467677E+02    0.11588E-01    0.00000E+00   512   0.226E-01 0.000E+00
CGA:   2    -0.684127473620E+02   -0.10101E-01   -0.10101E-01   512   0.535E-02-0.162E-05
CGA:   3    -0.684139849822E+02   -0.12376E-02   -0.12377E-02   512   0.911E-03-0.590E-06
CGA:   4    -0.684141819772E+02   -0.19700E-03   -0.19702E-03   512   0.185E-03-0.389E-07
CGA:   5    -0.684142232031E+02   -0.41226E-04   -0.41232E-04   512   0.353E-04-0.863E-08
CGA:   6    -0.684142319144E+02   -0.87113E-05   -0.87118E-05   512   0.777E-05-0.194E-08
CGA:   7    -0.684142340520E+02   -0.21376E-05   -0.21375E-05   512   0.213E-05 0.147E-08
CGA:   8    -0.684142347349E+02   -0.68293E-06   -0.68259E-06   512   0.728E-06-0.443E-09
CGA:   9    -0.684142349986E+02   -0.26375E-06   -0.26344E-06   512   0.264E-06-0.711E-09
CGA:  10    -0.684142350968E+02   -0.98151E-07   -0.97679E-07   512   0.844E-07 0.619E-09
CGA:  11    -0.684142351285E+02   -0.31714E-07   -0.31314E-07   512   0.244E-07 0.704E-09
CGA:  12    -0.684142351379E+02   -0.94187E-08   -0.89450E-08   512   0.681E-08 0.149E-08
  31 F= -.68414235E+02 E0= -.68414235E+02  d E =-.192749E-29
       N       E                     dE             d eps       ncg     rms          ort
SDA:   1    -0.684072213488E+02    0.70138E-02    0.00000E+00   512   0.109E-01 0.000E+00
CGA:   2    -0.684120477497E+02   -0.48264E-02   -0.48270E-02   512   0.324E-02-0.488E-05
CGA:   3    -0.684127329391E+02   -0.68519E-03   -0.68530E-03   512   0.571E-03-0.180E-06
CGA:   4    -0.684128525480E+02   -0.11961E-03   -0.11962E-03   512   0.116E-03-0.176E-06
CGA:   5    -0.684128789958E+02   -0.26448E-04   -0.26497E-04   512   0.247E-04 0.519E-06
CGA:   6    -0.684128854447E+02   -0.64490E-05   -0.64607E-05   512   0.639E-05 0.227E-06
CGA:   7    -0.684128873713E+02   -0.19266E-05   -0.19270E-05   512   0.213E-05 0.667E-07
CGA:   8    -0.684128880803E+02   -0.70893E-06   -0.70807E-06   512   0.759E-06 0.278E-07
CGA:   9    -0.684128883565E+02   -0.27623E-06   -0.27690E-06   512   0.263E-06-0.193E-07
CGA:  10    -0.684128884480E+02   -0.91515E-07   -0.91594E-07   512   0.792E-07-0.741E-08
CGA:  11    -0.684128884774E+02   -0.29422E-07   -0.29410E-07   512   0.260E-07-0.360E-08
CGA:  12    -0.684128884862E+02   -0.87202E-08   -0.83447E-08   512   0.719E-08 0.373E-08
  32 F= -.68412888E+02 E0= -.68412888E+02  d E =-.320498E-29
       N       E                     dE             d eps       ncg     rms          ort
SDA:   1    -0.684018753480E+02    0.11013E-01    0.00000E+00   512   0.212E-01 0.000E+00
CGA:   2    -0.684110478183E+02   -0.91725E-02   -0.91697E-02   512   0.744E-02 0.175E-04
CGA:   3    -0.684125782452E+02   -0.15304E-02   -0.15307E-02   512   0.124E-02-0.136E-05
CGA:   4    -0.684128372750E+02   -0.25903E-03   -0.25908E-03   512   0.254E-03 0.631E-07
CGA:   5    -0.684128974466E+02   -0.60172E-04   -0.60106E-04   512   0.599E-04-0.102E-05
CGA:   6    -0.684129141196E+02   -0.16673E-04   -0.16657E-04   512   0.181E-04-0.594E-06
CGA:   7    -0.684129196504E+02   -0.55308E-05   -0.55309E-05   512   0.642E-05-0.134E-06
CGA:   8    -0.684129217303E+02   -0.20799E-05   -0.20798E-05   512   0.216E-05-0.120E-07
CGA:   9    -0.684129224383E+02   -0.70796E-06   -0.70648E-06   512   0.619E-06 0.583E-07
CGA:  10    -0.684129226488E+02   -0.21057E-06   -0.20951E-06   512   0.175E-06 0.354E-07
CGA:  11    -0.684129227161E+02   -0.67268E-07   -0.66390E-07   512   0.573E-07 0.941E-08
CGA:  12    -0.684129227416E+02   -0.25471E-07   -0.25349E-07   512   0.228E-07-0.165E-08
CGA:  13    -0.684129227520E+02   -0.10477E-07   -0.14034E-07   512   0.216E-07-0.129E-07
CGA:  14    -0.684129227562E+02   -0.41273E-08   -0.44620E-08   512   0.245E-08 0.416E-08
  33 F= -.68412923E+02 E0= -.68412923E+02  d E =-.235190E-29
       N       E                     dE             d eps       ncg     rms          ort
SDA:   1    -0.684085901430E+02    0.43326E-02    0.00000E+00   512   0.105E-01 0.000E+00
CGA:   2    -0.684132047695E+02   -0.46146E-02   -0.46157E-02   512   0.359E-02-0.847E-05
CGA:   3    -0.684139150935E+02   -0.71032E-03   -0.71046E-03   512   0.582E-03-0.268E-06
CGA:   4    -0.684140348719E+02   -0.11978E-03   -0.11980E-03   512   0.119E-03-0.172E-06
CGA:   5    -0.684140625367E+02   -0.27665E-04   -0.27714E-04   512   0.261E-04 0.513E-06
CGA:   6    -0.684140693923E+02   -0.68556E-05   -0.68712E-05   512   0.679E-05 0.294E-06
CGA:   7    -0.684140714065E+02   -0.20142E-05   -0.20154E-05   512   0.217E-05 0.752E-07
CGA:   8    -0.684140721207E+02   -0.71415E-06   -0.71370E-06   512   0.728E-06 0.135E-07
CGA:   9    -0.684140723772E+02   -0.25657E-06   -0.25684E-06   512   0.230E-06-0.144E-07
CGA:  10    -0.684140724578E+02   -0.80552E-07   -0.80726E-07   512   0.673E-07-0.101E-07
CGA:  11    -0.684140724815E+02   -0.23731E-07   -0.23501E-07   512   0.198E-07-0.174E-08
CGA:  12    -0.684140724886E+02   -0.70377E-08   -0.66387E-08   512   0.568E-08 0.267E-08
  34 F= -.68414072E+02 E0= -.68414072E+02  d E =-.616886E-29
       N       E                     dE             d eps       ncg     rms          ort
SDA:   1    -0.684029898999E+02    0.11083E-01    0.00000E+00   512   0.214E-01 0.000E+00
CGA:   2    -0.684123732692E+02   -0.93834E-02   -0.93828E-02   512   0.709E-02 0.192E-05
CGA:   3    -0.684137624463E+02   -0.13892E-02   -0.13894E-02   512   0.113E-02-0.147E-05
CGA:   4    -0.684139990335E+02   -0.23659E-03   -0.23664E-03   512   0.238E-03-0.529E-07
CGA:   5    -0.684140535529E+02   -0.54519E-04   -0.54521E-04   512   0.472E-04-0.872E-07
CGA:   6    -0.684140655422E+02   -0.11989E-04   -0.11987E-04   512   0.110E-04-0.660E-07
CGA:   7    -0.684140686898E+02   -0.31476E-05   -0.31472E-05   512   0.331E-05-0.188E-07
CGA:   8    -0.684140697885E+02   -0.10987E-05   -0.10984E-05   512   0.119E-05 0.517E-08
CGA:   9    -0.684140702274E+02   -0.43894E-06   -0.43915E-06   512   0.428E-06-0.760E-08
CGA:  10    -0.684140703824E+02   -0.15495E-06   -0.15467E-06   512   0.129E-06 0.113E-08
CGA:  11    -0.684140704303E+02   -0.47899E-07   -0.47649E-07   512   0.383E-07 0.668E-09
CGA:  12    -0.684140704451E+02   -0.14858E-07   -0.14457E-07   512   0.116E-07 0.221E-08
CGA:  13    -0.684140704497E+02   -0.45929E-08   -0.43228E-08   512   0.353E-08 0.256E-08
  35 F= -.68414070E+02 E0= -.68414070E+02  d E =-.892604E-29
       N       E                     dE             d eps       ncg     rms          ort
SDA:   1    -0.684085695176E+02    0.55009E-02    0.00000E+00   512   0.110E-01 0.000E+00
CGA:   2    -0.684134435820E+02   -0.48741E-02   -0.48741E-02   512   0.317E-02-0.111E-05
CGA:   3    -0.684140982776E+02   -0.65470E-03   -0.65484E-03   512   0.554E-03-0.340E-06
CGA:   4    -0.684142139311E+02   -0.11565E-03   -0.11567E-03   512   0.113E-03-0.844E-07
CGA:   5    -0.684142393101E+02   -0.25379E-04   -0.25387E-04   512   0.217E-04 0.451E-07
CGA:   6    -0.684142447374E+02   -0.54273E-05   -0.54295E-05   512   0.480E-05 0.307E-07
CGA:   7    -0.684142460748E+02   -0.13374E-05   -0.13377E-05   512   0.134E-05 0.108E-07
CGA:   8    -0.684142465087E+02   -0.43390E-06   -0.43388E-06   512   0.461E-06-0.820E-09
CGA:   9    -0.684142466752E+02   -0.16645E-06   -0.16615E-06   512   0.163E-06 0.433E-08
CGA:  10    -0.684142467369E+02   -0.61769E-07   -0.61727E-07   512   0.530E-07-0.324E-09
CGA:  11    -0.684142467566E+02   -0.19663E-07   -0.19628E-07   512   0.156E-07 0.171E-09
CGA:  12    -0.684142467628E+02   -0.62100E-08   -0.61588E-08   512   0.502E-08-0.236E-10
  36 F= -.68414247E+02 E0= -.68414247E+02  d E =-.105939E-28
       N       E                     dE             d eps       ncg     rms          ort
SDA:   1    -0.684026071222E+02    0.11640E-01    0.00000E+00   512   0.227E-01 0.000E+00
CGA:   2    -0.684127275544E+02   -0.10120E-01   -0.10120E-01   512   0.557E-02-0.160E-05
CGA:   3    -0.684139821081E+02   -0.12546E-02   -0.12547E-02   512   0.979E-03-0.732E-06
CGA:   4    -0.684141907705E+02   -0.20866E-03   -0.20870E-03   512   0.199E-03-0.735E-07
CGA:   5    -0.684142347601E+02   -0.43990E-04   -0.43997E-04   512   0.377E-04-0.787E-08
CGA:   6    -0.684142440502E+02   -0.92900E-05   -0.92905E-05   512   0.803E-05 0.550E-09
CGA:   7    -0.684142462483E+02   -0.21981E-05   -0.21980E-05   512   0.212E-05 0.227E-08
CGA:   8    -0.684142469165E+02   -0.66822E-06   -0.66782E-06   512   0.698E-06 0.525E-09
CGA:   9    -0.684142471679E+02   -0.25139E-06   -0.25091E-06   512   0.251E-06 0.474E-09
CGA:  10    -0.684142472616E+02   -0.93736E-07   -0.93249E-07   512   0.810E-07 0.105E-08
CGA:  11    -0.684142472921E+02   -0.30412E-07   -0.30067E-07   512   0.233E-07 0.580E-09
CGA:  12    -0.684142473010E+02   -0.89422E-08   -0.84661E-08   512   0.631E-08 0.148E-08
  37 F= -.68414247E+02 E0= -.68414247E+02  d E =-.409515E-28
       N       E                     dE             d eps       ncg     rms          ort
SDA:   1    -0.684080432104E+02    0.62041E-02    0.00000E+00   512   0.115E-01 0.000E+00
CGA:   2    -0.684130922140E+02   -0.50490E-02   -0.50487E-02   512   0.304E-02 0.134E-05
CGA:   3    -0.684137933139E+02   -0.70110E-03   -0.70111E-03   512   0.471E-03-0.163E-05
CGA:   4    -0.684138983959E+02   -0.10508E-03   -0.10511E-03   512   0.977E-04 0.949E-07
CGA:   5    -0.684139205071E+02   -0.22111E-04   -0.22118E-04   512   0.203E-04 0.434E-07
CGA:   6    -0.684139256659E+02   -0.51588E-05   -0.51570E-05   512   0.510E-05-0.333E-07
CGA:   7    -0.684139271798E+02   -0.15139E-05   -0.15136E-05   512   0.168E-05-0.186E-08
CGA:   8    -0.684139277603E+02   -0.58045E-06   -0.57950E-06   512   0.655E-06 0.156E-07
CGA:   9    -0.684139280073E+02   -0.24701E-06   -0.24697E-06   512   0.250E-06-0.445E-08
CGA:  10    -0.684139280994E+02   -0.92114E-07   -0.91898E-07   512   0.810E-07-0.318E-08
CGA:  11    -0.684139281293E+02   -0.29882E-07   -0.29382E-07   512   0.247E-07 0.272E-08
CGA:  12    -0.684139281397E+02   -0.10459E-07   -0.99992E-08   512   0.840E-08 0.189E-08
CGA:  13    -0.684139281435E+02   -0.37526E-08   -0.33629E-08   512   0.255E-08 0.143E-08
  38 F= -.68413928E+02 E0= -.68413928E+02  d E =-.398311E-28
       N       E                     dE             d eps       ncg     rms          ort
SDA:   1    -0.684020424466E+02    0.11886E-01    0.00000E+00   512   0.230E-01 0.000E+00
CGA:   2    -0.684121502483E+02   -0.10108E-01   -0.10108E-01   512   0.644E-02-0.472E-05
CGA:   3    -0.684136686760E+02   -0.15184E-02   -0.15185E-02   512   0.876E-03 0.173E-05
CGA:   4    -0.684138795719E+02   -0.21090E-03   -0.21091E-03   512   0.168E-03-0.239E-06
CGA:   5    -0.684139214932E+02   -0.41921E-04   -0.41928E-04   512   0.357E-04 0.182E-07
CGA:   6    -0.684139314401E+02   -0.99469E-05   -0.99488E-05   512   0.107E-04 0.342E-07
CGA:   7    -0.684139348272E+02   -0.33871E-05   -0.33870E-05   512   0.415E-05-0.298E-08
CGA:   8    -0.684139363297E+02   -0.15024E-05   -0.15035E-05   512   0.161E-05-0.319E-07
CGA:   9    -0.684139369234E+02   -0.59375E-06   -0.59258E-06   512   0.525E-06 0.150E-07
CGA:  10    -0.684139371224E+02   -0.19902E-06   -0.19825E-06   512   0.171E-06 0.734E-08
CGA:  11    -0.684139371929E+02   -0.70444E-07   -0.70091E-07   512   0.627E-07-0.743E-09
CGA:  12    -0.684139372197E+02   -0.26837E-07   -0.26356E-07   512   0.213E-07 0.475E-09
CGA:  13    -0.684139372287E+02   -0.89440E-08   -0.85173E-08   512   0.578E-08 0.123E-08
  39 F= -.68413937E+02 E0= -.68413937E+02  d E =-.162129E-27
       N       E                     dE             d eps       ncg     rms          ort
SDA:   1    -0.684075298624E+02    0.64074E-02    0.00000E+00   512   0.114E-01 0.000E+00
CGA:   2    -0.684123421375E+02   -0.48123E-02   -0.48120E-02   512   0.362E-02 0.146E-05
CGA:   3    -0.684132135558E+02   -0.87142E-03   -0.87134E-03   512   0.496E-03-0.386E-05
CGA:   4    -0.684133322135E+02   -0.11866E-03   -0.11870E-03   512   0.933E-04 0.249E-06
CGA:   5    -0.684133558220E+02   -0.23608E-04   -0.23611E-04   512   0.220E-04-0.115E-07
CGA:   6    -0.684133622430E+02   -0.64210E-05   -0.64200E-05   512   0.735E-05-0.291E-07
CGA:   7    -0.684133645535E+02   -0.23105E-05   -0.23102E-05   512   0.272E-05-0.731E-08
CGA:   8    -0.684133654569E+02   -0.90341E-06   -0.90298E-06   512   0.854E-06 0.301E-07
CGA:   9    -0.684133657596E+02   -0.30266E-06   -0.30244E-06   512   0.253E-06-0.394E-08
CGA:  10    -0.684133658539E+02   -0.94267E-07   -0.94352E-07   512   0.851E-07-0.936E-08
CGA:  11    -0.684133658853E+02   -0.31469E-07   -0.30939E-07   512   0.285E-07 0.235E-08
CGA:  12    -0.684133658977E+02   -0.12340E-07   -0.11826E-07   512   0.988E-08 0.191E-08
CGA:  13    -0.684133659029E+02   -0.52132E-08   -0.47831E-08   512   0.357E-08-0.357E-09
  40 F= -.68413366E+02 E0= -.68413366E+02  d E =-.286090E-27
       N       E                     dE             d eps       ncg     rms          ort
SDA:   1    -0.684017257504E+02    0.11640E-01    0.00000E+00   512   0.222E-01 0.000E+00
CGA:   2    -0.684115340727E+02   -0.98083E-02   -0.98090E-02   512   0.671E-02-0.813E-05
CGA:   3    -0.684130808370E+02   -0.15468E-02   -0.15469E-02   512   0.890E-03 0.415E-05
CGA:   4    -0.684132953389E+02   -0.21450E-03   -0.21452E-03   512   0.174E-03-0.347E-06
CGA:   5    -0.684133396819E+02   -0.44343E-04   -0.44349E-04   512   0.421E-04-0.266E-07
CGA:   6    -0.684133519493E+02   -0.12267E-04   -0.12269E-04   512   0.140E-04 0.370E-07
CGA:   7    -0.684133563855E+02   -0.44362E-05   -0.44362E-05   512   0.518E-05 0.134E-07
CGA:   8    -0.684133581510E+02   -0.17655E-05   -0.17656E-05   512   0.168E-05-0.280E-07
CGA:   9    -0.684133587272E+02   -0.57625E-06   -0.57576E-06   512   0.467E-06 0.824E-08
CGA:  10    -0.684133588917E+02   -0.16451E-06   -0.16389E-06   512   0.135E-06 0.158E-07
CGA:  11    -0.684133589460E+02   -0.54273E-07   -0.53928E-07   512   0.472E-07 0.277E-09
CGA:  12    -0.684133589640E+02   -0.17957E-07   -0.17576E-07   512   0.135E-07 0.377E-08
CGA:  13    -0.684133589696E+02   -0.56552E-08   -0.52970E-08   512   0.383E-08 0.184E-08
  41 F= -.68413359E+02 E0= -.68413359E+02  d E =-.772777E-27
       N       E                     dE             d eps       ncg     rms          ort
SDA:   1    -0.684082487892E+02    0.51102E-02    0.00000E+00   512   0.115E-01 0.000E+00
CGA:   2    -0.684133971797E+02   -0.51484E-02   -0.51481E-02   512   0.293E-02 0.199E-05
CGA:   3    -0.684140861544E+02   -0.68897E-03   -0.68895E-03   512   0.418E-03-0.281E-05
CGA:   4    -0.684141869890E+02   -0.10083E-03   -0.10088E-03   512   0.789E-04 0.325E-06
CGA:   5    -0.684142066257E+02   -0.19637E-04   -0.19639E-04   512   0.176E-04-0.557E-08
CGA:   6    -0.684142115734E+02   -0.49477E-05   -0.49462E-05   512   0.538E-05-0.347E-07
CGA:   7    -0.684142132418E+02   -0.16684E-05   -0.16681E-05   512   0.196E-05-0.734E-08
CGA:   8    -0.684142139031E+02   -0.66127E-06   -0.66097E-06   512   0.644E-06 0.150E-07
CGA:   9    -0.684142141336E+02   -0.23053E-06   -0.23034E-06   512   0.188E-06-0.557E-08
CGA:  10    -0.684142142013E+02   -0.67674E-07   -0.67692E-07   512   0.555E-07-0.606E-08
CGA:  11    -0.684142142205E+02   -0.19249E-07   -0.18952E-07   512   0.163E-07 0.277E-08
CGA:  12    -0.684142142282E+02   -0.76889E-08   -0.73857E-08   512   0.663E-08-0.252E-09
  42 F= -.68414214E+02 E0= -.68414214E+02  d E =-.138309E-26
       N       E                     dE             d eps       ncg     rms          ort
SDA:   1    -0.684021177281E+02    0.12096E-01    0.00000E+00   512   0.232E-01 0.000E+00
CGA:   2    -0.684128908404E+02   -0.10773E-01   -0.10773E-01   512   0.448E-02-0.608E-06
CGA:   3    -0.684140175136E+02   -0.11267E-02   -0.11268E-02   512   0.656E-03-0.600E-06
CGA:   4    -0.684141762041E+02   -0.15869E-03   -0.15872E-03   512   0.120E-03 0.492E-07
CGA:   5    -0.684142053259E+02   -0.29122E-04   -0.29126E-04   512   0.239E-04-0.135E-07
CGA:   6    -0.684142117547E+02   -0.64288E-05   -0.64286E-05   512   0.632E-05-0.768E-08
CGA:   7    -0.684142136157E+02   -0.18610E-05   -0.18607E-05   512   0.211E-05-0.215E-08
CGA:   8    -0.684142143163E+02   -0.70066E-06   -0.70037E-06   512   0.708E-06-0.220E-09
CGA:   9    -0.684142145684E+02   -0.25207E-06   -0.25186E-06   512   0.207E-06-0.117E-08
CGA:  10    -0.684142146418E+02   -0.73398E-07   -0.73052E-07   512   0.548E-07 0.673E-09
CGA:  11    -0.684142146620E+02   -0.20185E-07   -0.19761E-07   512   0.157E-07 0.158E-08
CGA:  12    -0.684142146685E+02   -0.65247E-08   -0.60890E-08   512   0.503E-08 0.159E-08
  43 F= -.68414215E+02 E0= -.68414215E+02  d E =-.405644E-26
       N       E                     dE             d eps       ncg     rms          ort
SDA:   1    -0.684077709316E+02    0.64437E-02    0.00000E+00   512   0.114E-01 0.000E+00
CGA:   2    -0.684130360530E+02   -0.52651E-02   -0.52652E-02   512   0.255E-02-0.885E-06
CGA:   3    -0.684136304142E+02   -0.59436E-03   -0.59455E-03   512   0.389E-03 0.101E-05
CGA:   4    -0.684137219335E+02   -0.91519E-04   -0.91523E-04   512   0.767E-04-0.156E-06
CGA:   5    -0.684137401274E+02   -0.18194E-04   -0.18194E-04   512   0.166E-04-0.311E-07
CGA:   6    -0.684137445696E+02   -0.44422E-05   -0.44413E-05   512   0.462E-05-0.200E-07
CGA:   7    -0.684137460037E+02   -0.14342E-05   -0.14340E-05   512   0.162E-05 0.129E-10
CGA:   8    -0.684137465823E+02   -0.57862E-06   -0.57895E-06   512   0.612E-06-0.194E-07
CGA:   9    -0.684137467983E+02   -0.21598E-06   -0.21563E-06   512   0.198E-06 0.119E-08
CGA:  10    -0.684137468700E+02   -0.71666E-07   -0.71331E-07   512   0.623E-07 0.163E-08
CGA:  11    -0.684137468963E+02   -0.26326E-07   -0.26232E-07   512   0.246E-07-0.328E-08
CGA:  12    -0.684137469055E+02   -0.91786E-08   -0.87057E-08   512   0.750E-08 0.265E-08
  44 F= -.68413747E+02 E0= -.68413747E+02  d E =-.328445E-25
       N       E                     dE             d eps       ncg     rms          ort
SDA:   1    -0.684019729798E+02    0.11774E-01    0.00000E+00   512   0.224E-01 0.000E+00
CGA:   2    -0.684122137408E+02   -0.10241E-01   -0.10239E-01   512   0.575E-02 0.660E-05
CGA:   3    -0.684135048172E+02   -0.12911E-02   -0.12912E-02   512   0.839E-03-0.358E-05
CGA:   4    -0.684137022244E+02   -0.19741E-03   -0.19746E-03   512   0.176E-03 0.695E-07
CGA:   5    -0.684137442012E+02   -0.41977E-04   -0.41993E-04   512   0.402E-04 0.782E-07
CGA:   6    -0.684137551182E+02   -0.10917E-04   -0.10920E-04   512   0.118E-04 0.437E-07
CGA:   7    -0.684137588985E+02   -0.37803E-05   -0.37800E-05   512   0.440E-05 0.651E-08
CGA:   8    -0.684137604604E+02   -0.15619E-05   -0.15608E-05   512   0.163E-05 0.315E-07
CGA:   9    -0.684137610454E+02   -0.58500E-06   -0.58469E-06   512   0.543E-06 0.276E-08
CGA:  10    -0.684137612417E+02   -0.19635E-06   -0.19614E-06   512   0.175E-06-0.972E-09
CGA:  11    -0.684137613082E+02   -0.66420E-07   -0.65724E-07   512   0.581E-07 0.873E-08
CGA:  12    -0.684137613354E+02   -0.27272E-07   -0.26855E-07   512   0.235E-07 0.373E-10
CGA:  13    -0.684137613447E+02   -0.92205E-08   -0.88330E-08   512   0.622E-08 0.237E-08
  45 F= -.68413761E+02 E0= -.68413761E+02  d E =-.454180E-26
       N       E                     dE             d eps       ncg     rms          ort
SDA:   1    -0.684076212073E+02    0.61401E-02    0.00000E+00   512   0.112E-01 0.000E+00
CGA:   2    -0.684128858075E+02   -0.52646E-02   -0.52644E-02   512   0.240E-02 0.352E-06
CGA:   3    -0.684134300278E+02   -0.54422E-03   -0.54435E-03   512   0.386E-03-0.712E-06
CGA:   4    -0.684135199805E+02   -0.89953E-04   -0.89971E-04   512   0.786E-04-0.479E-07
CGA:   5    -0.684135382238E+02   -0.18243E-04   -0.18248E-04   512   0.163E-04 0.807E-08
CGA:   6    -0.684135425435E+02   -0.43197E-05   -0.43199E-05   512   0.437E-05-0.217E-08
CGA:   7    -0.684135439283E+02   -0.13848E-05   -0.13847E-05   512   0.159E-05 0.560E-08
CGA:   8    -0.684135445177E+02   -0.58944E-06   -0.58948E-06   512   0.659E-06-0.860E-08
CGA:   9    -0.684135447618E+02   -0.24408E-06   -0.24399E-06   512   0.237E-06-0.736E-08
CGA:  10    -0.684135448467E+02   -0.84903E-07   -0.84648E-07   512   0.733E-07 0.460E-10
CGA:  11    -0.684135448761E+02   -0.29375E-07   -0.29177E-07   512   0.259E-07-0.204E-08
CGA:  12    -0.684135448866E+02   -0.10490E-07   -0.10109E-07   512   0.829E-08 0.781E-09
CGA:  13    -0.684135448902E+02   -0.36271E-08   -0.32919E-08   512   0.242E-08 0.796E-09
  46 F= -.68413545E+02 E0= -.68413545E+02  d E =-.796928E-25
       N       E                     dE             d eps       ncg     rms          ort
SDA:   1    -0.684018176681E+02    0.11727E-01    0.00000E+00   512   0.222E-01 0.000E+00
CGA:   2    -0.684119643717E+02   -0.10147E-01   -0.10148E-01   512   0.573E-02-0.823E-05
CGA:   3    -0.684132801821E+02   -0.13158E-02   -0.13160E-02   512   0.841E-03 0.244E-05
CGA:   4    -0.684134783675E+02   -0.19819E-03   -0.19822E-03   512   0.170E-03-0.925E-07
CGA:   5    -0.684135193220E+02   -0.40954E-04   -0.40953E-04   512   0.390E-04-0.104E-06
CGA:   6    -0.684135299961E+02   -0.10674E-04   -0.10673E-04   512   0.110E-04-0.344E-07
CGA:   7    -0.684135335033E+02   -0.35071E-05   -0.35067E-05   512   0.374E-05-0.311E-07
CGA:   8    -0.684135347914E+02   -0.12881E-05   -0.12880E-05   512   0.123E-05-0.120E-07
CGA:   9    -0.684135352094E+02   -0.41804E-06   -0.41752E-06   512   0.350E-06 0.143E-07
CGA:  10    -0.684135353333E+02   -0.12389E-06   -0.12350E-06   512   0.100E-06 0.570E-08
CGA:  11    -0.684135353725E+02   -0.39179E-07   -0.38740E-07   512   0.333E-07 0.202E-08
CGA:  12    -0.684135353855E+02   -0.13066E-07   -0.12610E-07   512   0.107E-07 0.435E-08
CGA:  13    -0.684135353913E+02   -0.57753E-08   -0.53277E-08   512   0.448E-08 0.152E-09
  47 F= -.68413535E+02 E0= -.68413535E+02  d E =-.934785E-25
       N       E                     dE             d eps       ncg     rms          ort
SDA:   1    -0.684082464024E+02    0.52890E-02    0.00000E+00   512   0.114E-01 0.000E+00
CGA:   2    -0.684134508207E+02   -0.52044E-02   -0.52041E-02   512   0.270E-02 0.175E-05
CGA:   3    -0.684140840151E+02   -0.63319E-03   -0.63322E-03   512   0.408E-03-0.191E-05
CGA:   4    -0.684141801764E+02   -0.96161E-04   -0.96190E-04   512   0.810E-04 0.981E-07
CGA:   5    -0.684141994094E+02   -0.19233E-04   -0.19240E-04   512   0.178E-04 0.422E-07
CGA:   6    -0.684142042053E+02   -0.47959E-05   -0.47964E-05   512   0.487E-05 0.624E-08
CGA:   7    -0.684142057212E+02   -0.15158E-05   -0.15159E-05   512   0.161E-05 0.139E-07
CGA:   8    -0.684142062747E+02   -0.55351E-06   -0.55332E-06   512   0.529E-06 0.500E-08
CGA:   9    -0.684142064586E+02   -0.18395E-06   -0.18391E-06   512   0.152E-06-0.656E-08
CGA:  10    -0.684142065099E+02   -0.51261E-07   -0.51054E-07   512   0.390E-07-0.450E-09
CGA:  11    -0.684142065241E+02   -0.14234E-07   -0.14036E-07   512   0.115E-07 0.761E-09
CGA:  12    -0.684142065296E+02   -0.54661E-08   -0.52984E-08   512   0.504E-08-0.851E-09
  48 F= -.68414207E+02 E0= -.68414207E+02  d E =-.309041E-24
       N       E                     dE             d eps       ncg     rms          ort
SDA:   1    -0.684022097639E+02    0.11997E-01    0.00000E+00   512   0.229E-01 0.000E+00
CGA:   2    -0.684128566591E+02   -0.10647E-01   -0.10647E-01   512   0.471E-02-0.669E-06
CGA:   3    -0.684139893013E+02   -0.11326E-02   -0.11328E-02   512   0.729E-03-0.737E-06
CGA:   4    -0.684141623236E+02   -0.17302E-03   -0.17306E-03   512   0.143E-03 0.221E-07
CGA:   5    -0.684141956586E+02   -0.33335E-04   -0.33341E-04   512   0.302E-04-0.923E-08
CGA:   6    -0.684142035884E+02   -0.79298E-05   -0.79300E-05   512   0.778E-05-0.514E-08
CGA:   7    -0.684142059334E+02   -0.23450E-05   -0.23446E-05   512   0.243E-05-0.143E-08
CGA:   8    -0.684142067468E+02   -0.81344E-06   -0.81300E-06   512   0.770E-06-0.716E-09
CGA:   9    -0.684142070057E+02   -0.25892E-06   -0.25853E-06   512   0.208E-06 0.120E-09
CGA:  10    -0.684142070741E+02   -0.68336E-07   -0.67936E-07   512   0.466E-07 0.151E-08
CGA:  11    -0.684142070900E+02   -0.15934E-07   -0.15561E-07   512   0.987E-08 0.147E-08
CGA:  12    -0.684142070937E+02   -0.36835E-08   -0.33671E-08   512   0.228E-08 0.124E-08
  49 F= -.68414207E+02 E0= -.68414207E+02  d E =-.154009E-23
       N       E                     dE             d eps       ncg     rms          ort
SDA:   1    -0.683520857035E+02    0.62121E-01    0.00000E+00   512   0.111E+00 0.000E+00
CGA:   2    -0.683995910498E+02   -0.47505E-01   -0.47512E-01   512   0.450E-01-0.419E-04
CGA:   3    -0.684097407143E+02   -0.10150E-01   -0.10147E-01   512   0.717E-02 0.146E-04
CGA:   4    -0.684113002514E+02   -0.15595E-02   -0.15598E-02   512   0.154E-02 0.299E-06
CGA:   5    -0.684116635176E+02   -0.36327E-03   -0.36320E-03   512   0.369E-03-0.199E-05
CGA:   6    -0.684117666321E+02   -0.10311E-03   -0.10312E-03   512   0.108E-03-0.155E-06
CGA:   7    -0.684117998644E+02   -0.33232E-04   -0.33233E-04   512   0.348E-04 0.567E-07
CGA:   8    -0.684118110955E+02   -0.11231E-04   -0.11230E-04   512   0.105E-04 0.497E-07
CGA:   9    -0.684118144794E+02   -0.33839E-05   -0.33816E-05   512   0.267E-05 0.156E-06
CGA:  10    -0.684118153864E+02   -0.90705E-06   -0.90589E-06   512   0.662E-06 0.382E-07
CGA:  11    -0.684118156197E+02   -0.23325E-06   -0.23213E-06   512   0.173E-06 0.265E-07
CGA:  12    -0.684118156933E+02   -0.73580E-07   -0.73291E-07   512   0.621E-07-0.112E-08
CGA:  13    -0.684118157174E+02   -0.24107E-07   -0.23171E-07   512   0.193E-07 0.912E-08
CGA:  14    -0.684118157286E+02   -0.11192E-07   -0.10726E-07   512   0.939E-08-0.782E-10
CGA:  15    -0.684118157320E+02   -0.33997E-08   -0.30543E-08   512   0.276E-08 0.219E-08
  50 F= -.68411816E+02 E0= -.68411816E+02  d E =-.239397E-18
       N       E                     dE             d eps       ncg     rms          ort
SDA:   1    -0.681868401728E+02    0.22498E+00    0.00000E+00   512   0.416E+00 0.000E+00
CGA:   2    -0.683648438522E+02   -0.17800E+00   -0.17800E+00   512   0.172E+00-0.182E-03
CGA:   3    -0.684036799962E+02   -0.38836E-01   -0.38871E-01   512   0.271E-01-0.345E-04
CGA:   4    -0.684096706133E+02   -0.59906E-02   -0.59914E-02   512   0.598E-02-0.375E-05
CGA:   5    -0.684111096664E+02   -0.14391E-02   -0.14393E-02   512   0.152E-02 0.176E-05
CGA:   6    -0.684115473539E+02   -0.43769E-03   -0.43772E-03   512   0.469E-03-0.209E-06
CGA:   7    -0.684116940620E+02   -0.14671E-03   -0.14671E-03   512   0.153E-03 0.186E-06
CGA:   8    -0.684117429231E+02   -0.48861E-04   -0.48862E-04   512   0.437E-04 0.375E-06
CGA:   9    -0.684117571154E+02   -0.14192E-04   -0.14192E-04   512   0.108E-04 0.108E-06
CGA:  10    -0.684117607081E+02   -0.35927E-05   -0.35909E-05   512   0.255E-05 0.141E-06
CGA:  11    -0.684117616330E+02   -0.92483E-06   -0.92300E-06   512   0.695E-06 0.386E-07
CGA:  12    -0.684117619056E+02   -0.27267E-06   -0.27069E-06   512   0.221E-06 0.274E-07
CGA:  13    -0.684117620129E+02   -0.10726E-06   -0.10881E-06   512   0.956E-07-0.136E-07
CGA:  14    -0.684117620507E+02   -0.37835E-07   -0.37043E-07   512   0.302E-07 0.476E-08
CGA:  15    -0.684117620666E+02   -0.15851E-07   -0.16466E-07   512   0.163E-07-0.626E-08
CGA:  16    -0.684117620698E+02   -0.32123E-08   -0.32859E-08   512   0.531E-08 0.358E-08
  51 F= -.68411762E+02 E0= -.68411762E+02  d E =-.143079E-27
       N       E                     dE             d eps       ncg     rms          ort
SDA:   1    -0.683004930134E+02    0.11127E+00    0.00000E+00   512   0.206E+00 0.000E+00
CGA:   2    -0.683887134403E+02   -0.88220E-01   -0.88229E-01   512   0.887E-01-0.437E-04
CGA:   3    -0.684085688191E+02   -0.19855E-01   -0.19847E-01   512   0.130E-01 0.387E-04
CGA:   4    -0.684114541326E+02   -0.28853E-02   -0.28858E-02   512   0.286E-02-0.884E-06
CGA:   5    -0.684121347839E+02   -0.68065E-03   -0.68065E-03   512   0.732E-03-0.213E-05
CGA:   6    -0.684123395832E+02   -0.20480E-03   -0.20482E-03   512   0.218E-03-0.885E-07
CGA:   7    -0.684124076331E+02   -0.68050E-04   -0.68053E-04   512   0.702E-04 0.139E-06
CGA:   8    -0.684124305916E+02   -0.22959E-04   -0.22957E-04   512   0.214E-04 0.208E-06
CGA:   9    -0.684124376831E+02   -0.70914E-05   -0.70890E-05   512   0.581E-05 0.231E-06
CGA:  10    -0.684124397082E+02   -0.20251E-05   -0.20235E-05   512   0.158E-05 0.558E-07
CGA:  11    -0.684124402932E+02   -0.58505E-06   -0.58297E-06   512   0.472E-06 0.383E-07
CGA:  12    -0.684124404967E+02   -0.20340E-06   -0.20310E-06   512   0.181E-06-0.222E-08
CGA:  13    -0.684124405738E+02   -0.77156E-07   -0.76029E-07   512   0.646E-07 0.736E-08
CGA:  14    -0.684124406069E+02   -0.33067E-07   -0.34244E-07   512   0.310E-07-0.955E-08
CGA:  15    -0.684124406160E+02   -0.90931E-08   -0.87586E-08   512   0.828E-08 0.274E-08
  52 F= -.68412441E+02 E0= -.68412441E+02  d E =-.354776E-20
       N       E                     dE             d eps       ncg     rms          ort
SDA:   1    -0.681922191777E+02    0.22022E+00    0.00000E+00   512   0.400E+00 0.000E+00
CGA:   2    -0.683685368279E+02   -0.17632E+00   -0.17635E+00   512   0.174E+00-0.381E-03
CGA:   3    -0.684052542723E+02   -0.36717E-01   -0.36735E-01   512   0.236E-01-0.459E-05
CGA:   4    -0.684105477178E+02   -0.52934E-02   -0.52939E-02   512   0.532E-02 0.203E-05
CGA:   5    -0.684118585317E+02   -0.13108E-02   -0.13109E-02   512   0.139E-02-0.118E-05
CGA:   6    -0.684122443843E+02   -0.38585E-03   -0.38586E-03   512   0.418E-03-0.698E-06
CGA:   7    -0.684123718318E+02   -0.12745E-03   -0.12746E-03   512   0.138E-03 0.104E-06
CGA:   8    -0.684124170633E+02   -0.45232E-04   -0.45233E-04   512   0.434E-04 0.278E-06
CGA:   9    -0.684124317805E+02   -0.14717E-04   -0.14715E-04   512   0.123E-04 0.272E-06
CGA:  10    -0.684124360672E+02   -0.42867E-05   -0.42840E-05   512   0.342E-05 0.165E-06
CGA:  11    -0.684124373724E+02   -0.13052E-05   -0.13037E-05   512   0.110E-05 0.261E-07
CGA:  12    -0.684124378280E+02   -0.45565E-06   -0.45478E-06   512   0.405E-06 0.809E-08
CGA:  13    -0.684124380074E+02   -0.17937E-06   -0.17995E-06   512   0.160E-06-0.880E-08
CGA:  14    -0.684124380687E+02   -0.61336E-07   -0.60781E-07   512   0.502E-07 0.671E-08
CGA:  15    -0.684124380900E+02   -0.21231E-07   -0.21188E-07   512   0.176E-07-0.223E-08
CGA:  16    -0.684124380955E+02   -0.55443E-08   -0.53618E-08   512   0.425E-08 0.204E-08
  53 F= -.68412438E+02 E0= -.68412438E+02  d E =-.128807E-22
       N       E                     dE             d eps       ncg     rms          ort
SDA:   1    -0.682968072028E+02    0.11563E+00    0.00000E+00   512   0.217E+00 0.000E+00
CGA:   2    -0.683924449425E+02   -0.95638E-01   -0.95657E-01   512   0.797E-01-0.138E-03
CGA:   3    -0.684100923065E+02   -0.17647E-01   -0.17643E-01   512   0.135E-01 0.179E-04
CGA:   4    -0.684130805406E+02   -0.29882E-02   -0.29888E-02   512   0.296E-02-0.174E-05
CGA:   5    -0.684138018276E+02   -0.72129E-03   -0.72144E-03   512   0.765E-03-0.429E-06
CGA:   6    -0.684140164531E+02   -0.21463E-03   -0.21466E-03   512   0.232E-03 0.261E-06
CGA:   7    -0.684140885612E+02   -0.72108E-04   -0.72113E-04   512   0.752E-04 0.111E-06
CGA:   8    -0.684141128651E+02   -0.24304E-04   -0.24306E-04   512   0.224E-04 0.247E-06
CGA:   9    -0.684141203066E+02   -0.74415E-05   -0.74413E-05   512   0.600E-05 0.176E-06
CGA:  10    -0.684141223927E+02   -0.20861E-05   -0.20851E-05   512   0.163E-05 0.500E-07
CGA:  11    -0.684141230021E+02   -0.60939E-06   -0.60747E-06   512   0.515E-06 0.429E-07
CGA:  12    -0.684141232287E+02   -0.22663E-06   -0.22652E-06   512   0.211E-06-0.263E-08
CGA:  13    -0.684141233214E+02   -0.92628E-07   -0.92189E-07   512   0.797E-07 0.952E-09
CGA:  14    -0.684141233585E+02   -0.37109E-07   -0.37856E-07   512   0.317E-07-0.898E-08
CGA:  15    -0.684141233692E+02   -0.10778E-07   -0.10583E-07   512   0.832E-08 0.288E-09
CGA:  16    -0.684141233733E+02   -0.40818E-08   -0.45750E-08   512   0.609E-08-0.387E-08
  54 F= -.68414123E+02 E0= -.68414123E+02  d E =-.725200E-21
       N       E                     dE             d eps       ncg     rms          ort
SDA:   1    -0.681653145848E+02    0.24881E+00    0.00000E+00   512   0.469E+00 0.000E+00
CGA:   2    -0.683716050666E+02   -0.20629E+00   -0.20640E+00   512   0.145E+00-0.913E-03
CGA:   3    -0.684056475358E+02   -0.34042E-01   -0.34037E-01   512   0.295E-01 0.334E-04
CGA:   4    -0.684118031310E+02   -0.61556E-02   -0.61572E-02   512   0.646E-02 0.136E-05
CGA:   5    -0.684134137942E+02   -0.16107E-02   -0.16109E-02   512   0.163E-02-0.447E-06
CGA:   6    -0.684138824261E+02   -0.46863E-03   -0.46869E-03   512   0.534E-03 0.174E-06
CGA:   7    -0.684140471113E+02   -0.16469E-03   -0.16470E-03   512   0.171E-03 0.145E-06
CGA:   8    -0.684141020784E+02   -0.54967E-04   -0.54976E-04   512   0.490E-04 0.451E-06
CGA:   9    -0.684141178330E+02   -0.15755E-04   -0.15760E-04   512   0.123E-04 0.358E-06
CGA:  10    -0.684141219652E+02   -0.41323E-05   -0.41320E-05   512   0.308E-05 0.108E-06
CGA:  11    -0.684141230840E+02   -0.11188E-05   -0.11163E-05   512   0.920E-06 0.800E-07
CGA:  12    -0.684141234795E+02   -0.39547E-06   -0.39434E-06   512   0.360E-06 0.630E-08
CGA:  13    -0.684141236409E+02   -0.16144E-06   -0.16027E-06   512   0.135E-06 0.570E-08
CGA:  14    -0.684141237018E+02   -0.60847E-07   -0.60340E-07   512   0.449E-07-0.853E-09
CGA:  15    -0.684141237221E+02   -0.20367E-07   -0.20096E-07   512   0.147E-07-0.360E-08
CGA:  16    -0.684141237279E+02   -0.57480E-08   -0.51742E-08   512   0.386E-08 0.650E-09
  55 F= -.68414124E+02 E0= -.68414124E+02  d E =-.252030E-20
       N       E                     dE             d eps       ncg     rms          ort
SDA:   1    -0.682949600983E+02    0.11916E+00    0.00000E+00   512   0.217E+00 0.000E+00
CGA:   2    -0.683915329043E+02   -0.96573E-01   -0.96581E-01   512   0.758E-01-0.100E-03
CGA:   3    -0.684083849589E+02   -0.16852E-01   -0.16857E-01   512   0.134E-01-0.113E-04
CGA:   4    -0.684112897341E+02   -0.29048E-02   -0.29054E-02   512   0.291E-02-0.115E-05
[...]
CGA:   9    -0.684141103162E+02   -0.15628E-04   -0.15635E-04   512   0.121E-04 0.404E-06
CGA:  10    -0.684141143640E+02   -0.40478E-05   -0.40481E-05   512   0.309E-05 0.961E-07
CGA:  11    -0.684141154749E+02   -0.11109E-05   -0.11090E-05   512   0.942E-06 0.827E-07
CGA:  12    -0.684141158859E+02   -0.41098E-06   -0.41000E-06   512   0.388E-06 0.466E-08
CGA:  13    -0.684141160615E+02   -0.17563E-06   -0.17432E-06   512   0.151E-06 0.570E-08
CGA:  14    -0.684141161286E+02   -0.67095E-07   -0.66685E-07   512   0.498E-07-0.153E-08
CGA:  15    -0.684141161498E+02   -0.21215E-07   -0.20861E-07   512   0.147E-07-0.249E-08
CGA:  16    -0.684141161559E+02   -0.61082E-08   -0.55287E-08   512   0.389E-08-0.248E-09
  61 F= -.68414116E+02 E0= -.68414116E+02  d E =-.186278E-18
       N       E                     dE             d eps       ncg     rms          ort
SDA:   1    -0.682513041156E+02    0.16281E+00    0.00000E+00   512   0.308E+00 0.000E+00
CGA:   2    -0.683819479642E+02   -0.13064E+00   -0.13067E+00   512   0.113E+00-0.450E-03
CGA:   3    -0.684056826789E+02   -0.23735E-01   -0.23796E-01   512   0.225E-01-0.108E-03
CGA:   4    -0.684105542329E+02   -0.48716E-02   -0.48711E-02   512   0.456E-02-0.208E-05
CGA:   5    -0.684116498725E+02   -0.10956E-02   -0.10955E-02   512   0.112E-02-0.122E-05
CGA:   6    -0.684119621560E+02   -0.31228E-03   -0.31240E-03   512   0.333E-03 0.667E-06
CGA:   7    -0.684120736492E+02   -0.11149E-03   -0.11150E-03   512   0.120E-03 0.871E-07
CGA:   8    -0.684121148338E+02   -0.41185E-04   -0.41188E-04   512   0.403E-04 0.711E-07
CGA:   9    -0.684121282944E+02   -0.13461E-04   -0.13467E-04   512   0.114E-04 0.235E-06
CGA:  10    -0.684121322870E+02   -0.39925E-05   -0.39930E-05   512   0.340E-05 0.579E-07
CGA:  11    -0.684121335378E+02   -0.12509E-05   -0.12499E-05   512   0.111E-05 0.108E-06
CGA:  12    -0.684121340205E+02   -0.48260E-06   -0.48107E-06   512   0.425E-06 0.229E-07
CGA:  13    -0.684121342118E+02   -0.19132E-06   -0.19054E-06   512   0.145E-06 0.969E-08
CGA:  14    -0.684121342795E+02   -0.67766E-07   -0.68556E-07   512   0.495E-07-0.927E-08
CGA:  15    -0.684121343008E+02   -0.21308E-07   -0.21973E-07   512   0.168E-07-0.674E-08
CGA:  16    -0.684121343067E+02   -0.58608E-08   -0.57621E-08   512   0.482E-08 0.203E-09
  62 F= -.68412134E+02 E0= -.68412134E+02  d E =-.275042E-87
       N       E                     dE             d eps       ncg     rms          ort
SDA:   1    -0.680166369315E+02    0.39550E+00    0.00000E+00   512   0.764E+00 0.000E+00
CGA:   2    -0.683294798686E+02   -0.31284E+00   -0.31276E+00   512   0.317E+00 0.232E-02
CGA:   3    -0.683950140009E+02   -0.65534E-01   -0.65268E-01   512   0.581E-01 0.701E-03
CGA:   4    -0.684077673957E+02   -0.12753E-01   -0.12755E-01   512   0.126E-01 0.974E-06
CGA:   5    -0.684107139782E+02   -0.29466E-02   -0.29487E-02   512   0.300E-02 0.869E-06
CGA:   6    -0.684115641875E+02   -0.85021E-03   -0.85012E-03   512   0.900E-03-0.176E-05
CGA:   7    -0.684118704070E+02   -0.30622E-03   -0.30624E-03   512   0.352E-03 0.128E-06
CGA:   8    -0.684119941186E+02   -0.12371E-03   -0.12373E-03   512   0.127E-03 0.108E-05
CGA:   9    -0.684120373671E+02   -0.43248E-04   -0.43258E-04   512   0.359E-04 0.389E-06
CGA:  10    -0.684120500416E+02   -0.12675E-04   -0.12676E-04   512   0.105E-04 0.189E-06
CGA:  11    -0.684120540844E+02   -0.40428E-05   -0.40460E-05   512   0.354E-05-0.139E-06
CGA:  12    -0.684120555661E+02   -0.14817E-05   -0.14882E-05   512   0.129E-05-0.104E-06
CGA:  13    -0.684120561321E+02   -0.56601E-06   -0.57064E-06   512   0.448E-06-0.569E-07
CGA:  14    -0.684120563133E+02   -0.18112E-06   -0.17994E-06   512   0.127E-06 0.120E-07
CGA:  15    -0.684120563666E+02   -0.53325E-07   -0.52487E-07   512   0.359E-07 0.107E-07
CGA:  16    -0.684120563826E+02   -0.16053E-07   -0.15516E-07   512   0.111E-07 0.446E-08
CGA:  17    -0.684120563882E+02   -0.56043E-08   -0.50730E-08   512   0.394E-08 0.149E-08
  63 F= -.68412056E+02 E0= -.68412056E+02  d E =-.772806E-27
       N       E                     dE             d eps       ncg     rms          ort
SDA:   1    -0.682075332759E+02    0.20452E+00    0.00000E+00   512   0.404E+00 0.000E+00
CGA:   2    -0.683781745954E+02   -0.17064E+00   -0.17071E+00   512   0.141E+00-0.940E-03
CGA:   3    -0.684061943774E+02   -0.28020E-01   -0.28114E-01   512   0.280E-01-0.165E-03
CGA:   4    -0.684121892853E+02   -0.59949E-02   -0.59965E-02   512   0.547E-02-0.213E-05
CGA:   5    -0.684134817228E+02   -0.12924E-02   -0.12922E-02   512   0.122E-02-0.160E-05
CGA:   6    -0.684138166008E+02   -0.33488E-03   -0.33497E-03   512   0.356E-03 0.280E-06
CGA:   7    -0.684139362761E+02   -0.11968E-03   -0.11968E-03   512   0.133E-03 0.157E-06
CGA:   8    -0.684139838880E+02   -0.47612E-04   -0.47612E-04   512   0.472E-04 0.333E-06
CGA:   9    -0.684139999635E+02   -0.16075E-04   -0.16080E-04   512   0.132E-04 0.301E-06
CGA:  10    -0.684140045127E+02   -0.45492E-05   -0.45498E-05   512   0.356E-05 0.611E-07
CGA:  11    -0.684140057969E+02   -0.12842E-05   -0.12834E-05   512   0.106E-05 0.896E-07
CGA:  12    -0.684140062525E+02   -0.45564E-06   -0.45445E-06   512   0.403E-06 0.137E-07
CGA:  13    -0.684140064357E+02   -0.18311E-06   -0.18205E-06   512   0.147E-06 0.931E-08
CGA:  14    -0.684140065041E+02   -0.68401E-07   -0.68552E-07   512   0.490E-07-0.395E-08
CGA:  15    -0.684140065252E+02   -0.21180E-07   -0.21322E-07   512   0.151E-07-0.390E-08
CGA:  16    -0.684140065314E+02   -0.61300E-08   -0.60360E-08   512   0.516E-08-0.133E-08
  64 F= -.68414007E+02 E0= -.68414007E+02  d E =-.123445E-18
       N       E                     dE             d eps       ncg     rms          ort
SDA:   1    -0.679871451547E+02    0.42686E+00    0.00000E+00   512   0.841E+00 0.000E+00
CGA:   2    -0.683472908781E+02   -0.36015E+00   -0.36019E+00   512   0.258E+00-0.488E-03
CGA:   3    -0.683992665626E+02   -0.51976E-01   -0.51956E-01   512   0.551E-01 0.176E-03
CGA:   4    -0.684107981151E+02   -0.11532E-01   -0.11537E-01   512   0.973E-02-0.112E-05
CGA:   5    -0.684131252154E+02   -0.23271E-02   -0.23277E-02   512   0.212E-02 0.473E-06
CGA:   6    -0.684137032011E+02   -0.57799E-03   -0.57802E-03   512   0.601E-03-0.308E-06
CGA:   7    -0.684139003251E+02   -0.19712E-03   -0.19715E-03   512   0.212E-03 0.174E-06
CGA:   8    -0.684139734273E+02   -0.73102E-04   -0.73114E-04   512   0.686E-04 0.684E-06
CGA:   9    -0.684139964267E+02   -0.22999E-04   -0.23011E-04   512   0.173E-04 0.478E-06
CGA:  10    -0.684140022761E+02   -0.58494E-05   -0.58524E-05   512   0.391E-05 0.156E-06
CGA:  11    -0.684140036658E+02   -0.13898E-05   -0.13895E-05   512   0.990E-06 0.145E-07
CGA:  12    -0.684140040526E+02   -0.38678E-06   -0.38624E-06   512   0.322E-06 0.531E-08
CGA:  13    -0.684140042043E+02   -0.15171E-06   -0.15262E-06   512   0.146E-06-0.117E-07
CGA:  14    -0.684140042624E+02   -0.58068E-07   -0.57314E-07   512   0.508E-07 0.929E-08
CGA:  15    -0.684140042854E+02   -0.23063E-07   -0.22814E-07   512   0.184E-07-0.267E-08
CGA:  16    -0.684140042906E+02   -0.51641E-08   -0.51738E-08   512   0.488E-08 0.309E-08
  65 F= -.68414004E+02 E0= -.68414004E+02  d E =-.383409E-17
       N       E                     dE             d eps       ncg     rms          ort
SDA:   1    -0.682117378190E+02    0.20227E+00    0.00000E+00   512   0.397E+00 0.000E+00
CGA:   2    -0.683813620704E+02   -0.16962E+00   -0.16965E+00   512   0.127E+00-0.243E-03
CGA:   3    -0.684066672895E+02   -0.25305E-01   -0.25287E-01   512   0.273E-01 0.809E-04
CGA:   4    -0.684124452601E+02   -0.57780E-02   -0.57803E-02   512   0.505E-02-0.822E-06
CGA:   5    -0.684136733427E+02   -0.12281E-02   -0.12284E-02   512   0.119E-02-0.649E-06
CGA:   6    -0.684140077693E+02   -0.33443E-03   -0.33438E-03   512   0.367E-03-0.956E-06
CGA:   7    -0.684141302984E+02   -0.12253E-03   -0.12254E-03   512   0.128E-03 0.259E-06
CGA:   8    -0.684141730004E+02   -0.42702E-04   -0.42711E-04   512   0.361E-04 0.372E-06
CGA:   9    -0.684141844456E+02   -0.11445E-04   -0.11449E-04   512   0.788E-05 0.811E-07
CGA:  10    -0.684141869364E+02   -0.24909E-05   -0.24940E-05   512   0.158E-05 0.895E-07
CGA:  11    -0.684141874904E+02   -0.55395E-06   -0.55406E-06   512   0.392E-06-0.829E-08
CGA:  12    -0.684141876385E+02   -0.14813E-06   -0.14807E-06   512   0.117E-06 0.265E-08
CGA:  13    -0.684141876914E+02   -0.52925E-07   -0.53069E-07   512   0.462E-07-0.400E-09
CGA:  14    -0.684141877099E+02   -0.18503E-07   -0.18330E-07   512   0.151E-07 0.586E-08
CGA:  15    -0.684141877175E+02   -0.75433E-08   -0.76047E-08   512   0.593E-08 0.260E-09
  66 F= -.68414188E+02 E0= -.68414188E+02  d E =-.110604E-17
       N       E                     dE             d eps       ncg     rms          ort
SDA:   1    -0.680301821230E+02    0.38401E+00    0.00000E+00   512   0.749E+00 0.000E+00
CGA:   2    -0.683482277695E+02   -0.31805E+00   -0.31822E+00   512   0.257E+00-0.141E-02
CGA:   3    -0.683983014131E+02   -0.50074E-01   -0.49986E-01   512   0.549E-01 0.350E-03
CGA:   4    -0.684102315473E+02   -0.11930E-01   -0.11936E-01   512   0.109E-01 0.513E-05
CGA:   5    -0.684129198508E+02   -0.26883E-02   -0.26896E-02   512   0.287E-02 0.263E-05
CGA:   6    -0.684137485065E+02   -0.82866E-03   -0.82852E-03   512   0.923E-03-0.211E-05
CGA:   7    -0.684140578437E+02   -0.30934E-03   -0.30934E-03   512   0.309E-03-0.359E-07
CGA:   8    -0.684141568576E+02   -0.99014E-04   -0.99031E-04   512   0.802E-04 0.652E-06
CGA:   9    -0.684141813039E+02   -0.24446E-04   -0.24452E-04   512   0.169E-04 0.131E-06
CGA:  10    -0.684141865798E+02   -0.52759E-05   -0.52790E-05   512   0.339E-05 0.138E-06
CGA:  11    -0.684141877737E+02   -0.11940E-05   -0.11934E-05   512   0.879E-06-0.530E-08
CGA:  12    -0.684141881152E+02   -0.34144E-06   -0.34062E-06   512   0.270E-06 0.101E-08
CGA:  13    -0.684141882417E+02   -0.12651E-06   -0.12620E-06   512   0.106E-06-0.407E-08
CGA:  14    -0.684141882882E+02   -0.46542E-07   -0.45109E-07   512   0.344E-07 0.739E-08
CGA:  15    -0.684141883044E+02   -0.16185E-07   -0.15197E-07   512   0.108E-07 0.452E-08
CGA:  16    -0.684141883103E+02   -0.58862E-08   -0.49990E-08   512   0.369E-08 0.176E-08
  67 F= -.68414188E+02 E0= -.68414188E+02  d E =-.198960E-17
       N       E                     dE             d eps       ncg     rms          ort
SDA:   1    -0.682139930813E+02    0.20020E+00    0.00000E+00   512   0.389E+00 0.000E+00
CGA:   2    -0.683807700248E+02   -0.16678E+00   -0.16677E+00   512   0.127E+00 0.806E-04
CGA:   3    -0.684060071728E+02   -0.25237E-01   -0.25214E-01   512   0.274E-01 0.541E-04
CGA:   4    -0.684117951872E+02   -0.57880E-02   -0.57885E-02   512   0.520E-02-0.186E-05
CGA:   5    -0.684130445989E+02   -0.12494E-02   -0.12498E-02   512   0.126E-02 0.134E-06
CGA:   6    -0.684133959859E+02   -0.35139E-03   -0.35136E-03   512   0.389E-03-0.914E-06
CGA:   7    -0.684135254666E+02   -0.12948E-03   -0.12949E-03   512   0.139E-03-0.181E-07
CGA:   8    -0.684135714155E+02   -0.45949E-04   -0.45952E-04   512   0.415E-04 0.347E-06
CGA:   9    -0.684135845047E+02   -0.13089E-04   -0.13091E-04   512   0.968E-05 0.826E-07
CGA:  10    -0.684135876453E+02   -0.31405E-05   -0.31413E-05   512   0.224E-05 0.962E-07
CGA:  11    -0.684135884868E+02   -0.84157E-06   -0.84294E-06   512   0.693E-06-0.413E-07
CGA:  12    -0.684135887756E+02   -0.28879E-06   -0.29067E-06   512   0.259E-06-0.233E-07
CGA:  13    -0.684135888921E+02   -0.11645E-06   -0.11884E-06   512   0.103E-06-0.195E-07
CGA:  14    -0.684135889314E+02   -0.39334E-07   -0.39266E-07   512   0.293E-07-0.158E-08
CGA:  15    -0.684135889423E+02   -0.10896E-07   -0.10735E-07   512   0.817E-08 0.121E-08
CGA:  16    -0.684135889455E+02   -0.32360E-08   -0.30504E-08   512   0.250E-08 0.262E-09
  68 F= -.68413589E+02 E0= -.68413589E+02  d E =-.103055E-80
       N       E                     dE             d eps       ncg     rms          ort
SDA:   1    -0.679960681770E+02    0.41752E+00    0.00000E+00   512   0.820E+00 0.000E+00
CGA:   2    -0.683458562818E+02   -0.34979E+00   -0.35003E+00   512   0.265E+00-0.216E-02
CGA:   3    -0.683986055854E+02   -0.52749E-01   -0.52899E-01   512   0.552E-01-0.142E-03
CGA:   4    -0.684101854347E+02   -0.11580E-01   -0.11584E-01   512   0.103E-01 0.107E-05
CGA:   5    -0.684126231933E+02   -0.24378E-02   -0.24374E-02   512   0.230E-02-0.255E-05
CGA:   6    -0.684132506924E+02   -0.62750E-03   -0.62756E-03   512   0.672E-03-0.370E-06
CGA:   7    -0.684134705569E+02   -0.21986E-03   -0.21987E-03   512   0.241E-03 0.319E-06
CGA:   8    -0.684135540004E+02   -0.83443E-04   -0.83432E-04   512   0.803E-04 0.840E-06
CGA:   9    -0.684135807447E+02   -0.26744E-04   -0.26745E-04   512   0.208E-04 0.584E-06
CGA:  10    -0.684135877433E+02   -0.69986E-05   -0.69982E-05   512   0.495E-05 0.165E-06
CGA:  11    -0.684135894758E+02   -0.17325E-05   -0.17309E-05   512   0.127E-05 0.957E-07
CGA:  12    -0.684135899886E+02   -0.51282E-06   -0.51086E-06   512   0.416E-06 0.271E-07
CGA:  13    -0.684135901749E+02   -0.18634E-06   -0.18459E-06   512   0.155E-06 0.142E-07
CGA:  14    -0.684135902399E+02   -0.65007E-07   -0.63691E-07   512   0.465E-07 0.174E-07
CGA:  15    -0.684135902625E+02   -0.22579E-07   -0.22315E-07   512   0.159E-07-0.506E-09
CGA:  16    -0.684135902666E+02   -0.40891E-08   -0.42668E-08   512   0.431E-08 0.414E-08
  69 F= -.68413590E+02 E0= -.68413590E+02  d E =-.123795E-29
       N       E                     dE             d eps       ncg     rms          ort
SDA:   1    -0.682148745469E+02    0.19872E+00    0.00000E+00   512   0.381E+00 0.000E+00
CGA:   2    -0.683728069123E+02   -0.15793E+00   -0.15784E+00   512   0.155E+00 0.981E-03
CGA:   3    -0.684041504077E+02   -0.31343E-01   -0.31267E-01   512   0.285E-01 0.150E-03
CGA:   4    -0.684102502709E+02   -0.60999E-02   -0.60985E-02   512   0.646E-02-0.153E-05
CGA:   5    -0.684117401637E+02   -0.14899E-02   -0.14906E-02   512   0.154E-02-0.955E-07
CGA:   6    -0.684121745014E+02   -0.43434E-03   -0.43432E-03   512   0.479E-03-0.850E-06
CGA:   7    -0.684123340546E+02   -0.15955E-03   -0.15956E-03   512   0.195E-03-0.580E-08
CGA:   8    -0.684124010286E+02   -0.66974E-04   -0.66970E-04   512   0.707E-04 0.454E-06
CGA:   9    -0.684124249956E+02   -0.23967E-04   -0.23966E-04   512   0.197E-04 0.175E-06
CGA:  10    -0.684124317991E+02   -0.68035E-05   -0.68024E-05   512   0.537E-05 0.852E-07
CGA:  11    -0.684124338379E+02   -0.20387E-05   -0.20423E-05   512   0.173E-05-0.857E-07
CGA:  12    -0.684124345499E+02   -0.71209E-06   -0.72010E-06   512   0.627E-06-0.943E-07
CGA:  13    -0.684124348006E+02   -0.25067E-06   -0.25233E-06   512   0.211E-06-0.228E-07
CGA:  14    -0.684124348864E+02   -0.85813E-07   -0.86531E-07   512   0.705E-07-0.134E-07
CGA:  15    -0.684124349083E+02   -0.21832E-07   -0.21794E-07   512   0.186E-07 0.103E-07
CGA:  16    -0.684124349161E+02   -0.78198E-08   -0.75176E-08   512   0.687E-08 0.323E-08
  70 F= -.68412435E+02 E0= -.68412435E+02  d E =-.512372E-68
       N       E                     dE             d eps       ncg     rms          ort
SDA:   1    -0.680107954749E+02    0.40164E+00    0.00000E+00   512   0.784E+00 0.000E+00
CGA:   2    -0.683358854551E+02   -0.32509E+00   -0.32539E+00   512   0.301E+00-0.316E-02
CGA:   3    -0.683962047763E+02   -0.60319E-01   -0.60560E-01   512   0.577E-01-0.334E-03
CGA:   4    -0.684084630465E+02   -0.12258E-01   -0.12262E-01   512   0.119E-01-0.127E-04
CGA:   5    -0.684112591053E+02   -0.27961E-02   -0.27951E-02   512   0.280E-02-0.469E-05
CGA:   6    -0.684120363568E+02   -0.77725E-03   -0.77737E-03   512   0.836E-03 0.216E-06
CGA:   7    -0.684123159138E+02   -0.27956E-03   -0.27956E-03   512   0.327E-03 0.523E-07
CGA:   8    -0.684124308334E+02   -0.11492E-03   -0.11491E-03   512   0.121E-03 0.483E-06
CGA:   9    -0.684124716622E+02   -0.40829E-04   -0.40826E-04   512   0.340E-04 0.739E-06
CGA:  10    -0.684124834349E+02   -0.11773E-04   -0.11770E-04   512   0.906E-05 0.213E-06
CGA:  11    -0.684124867575E+02   -0.33226E-05   -0.33173E-05   512   0.269E-05 0.156E-06
CGA:  12    -0.684124878604E+02   -0.11029E-05   -0.10993E-05   512   0.914E-06 0.489E-07
CGA:  13    -0.684124882732E+02   -0.41283E-06   -0.41317E-06   512   0.340E-06-0.912E-08
CGA:  14    -0.684124884092E+02   -0.13600E-06   -0.13529E-06   512   0.106E-06 0.620E-08
CGA:  15    -0.684124884574E+02   -0.48209E-07   -0.49473E-07   512   0.444E-07-0.151E-07
CGA:  16    -0.684124884710E+02   -0.13557E-07   -0.13269E-07   512   0.124E-07 0.324E-08
CGA:  17    -0.684124884773E+02   -0.63537E-08   -0.60887E-08   512   0.619E-08-0.139E-08
  71 F= -.68412488E+02 E0= -.68412488E+02  d E =-.298963E-16
       N       E                     dE             d eps       ncg     rms          ort
SDA:   1    -0.682181127631E+02    0.19438E+00    0.00000E+00   512   0.380E+00 0.000E+00
CGA:   2    -0.683780818454E+02   -0.15997E+00   -0.15992E+00   512   0.140E+00 0.582E-03
CGA:   3    -0.684060091731E+02   -0.27927E-01   -0.27855E-01   512   0.281E-01 0.171E-03
CGA:   4    -0.684120937704E+02   -0.60846E-02   -0.60845E-02   512   0.605E-02-0.955E-08
CGA:   5    -0.684135020100E+02   -0.14082E-02   -0.14091E-02   512   0.150E-02 0.912E-07
CGA:   6    -0.684139325368E+02   -0.43053E-03   -0.43050E-03   512   0.473E-03-0.102E-05
CGA:   7    -0.684140906389E+02   -0.15810E-03   -0.15811E-03   512   0.181E-03 0.452E-07
CGA:   8    -0.684141500353E+02   -0.59396E-04   -0.59406E-04   512   0.574E-04 0.494E-06
CGA:   9    -0.684141686412E+02   -0.18606E-04   -0.18608E-04   512   0.146E-04 0.870E-07
CGA:  10    -0.684141736037E+02   -0.49625E-05   -0.49627E-05   512   0.397E-05 0.724E-07
CGA:  11    -0.684141751531E+02   -0.15494E-05   -0.15524E-05   512   0.140E-05-0.615E-07
CGA:  12    -0.684141757562E+02   -0.60314E-06   -0.60978E-06   512   0.553E-06-0.660E-07
CGA:  13    -0.684141759840E+02   -0.22776E-06   -0.22935E-06   512   0.185E-06-0.180E-07
CGA:  14    -0.684141760576E+02   -0.73594E-07   -0.74271E-07   512   0.587E-07-0.101E-07
CGA:  15    -0.684141760743E+02   -0.16784E-07   -0.17188E-07   512   0.154E-07 0.918E-08
CGA:  16    -0.684141760810E+02   -0.66848E-08   -0.66766E-08   512   0.598E-08 0.963E-09
  72 F= -.68414176E+02 E0= -.68414176E+02  d E =-.158672E-17
       N       E                     dE             d eps       ncg     rms          ort
SDA:   1    -0.680248203199E+02    0.38936E+00    0.00000E+00   512   0.760E+00 0.000E+00
CGA:   2    -0.683495045586E+02   -0.32468E+00   -0.32484E+00   512   0.252E+00-0.126E-02
CGA:   3    -0.683983616457E+02   -0.48857E-01   -0.48798E-01   512   0.556E-01 0.261E-03
CGA:   4    -0.684103039969E+02   -0.11942E-01   -0.11947E-01   512   0.109E-01 0.286E-05
CGA:   5    -0.684129377490E+02   -0.26338E-02   -0.26349E-02   512   0.281E-02 0.102E-05
CGA:   6    -0.684137405899E+02   -0.80284E-03   -0.80274E-03   512   0.910E-03-0.183E-05
CGA:   7    -0.684140411029E+02   -0.30051E-03   -0.30052E-03   512   0.317E-03-0.224E-06
CGA:   8    -0.684141423000E+02   -0.10120E-03   -0.10121E-03   512   0.862E-04 0.643E-06
CGA:   9    -0.684141687055E+02   -0.26406E-04   -0.26412E-04   512   0.186E-04 0.163E-06
CGA:  10    -0.684141745353E+02   -0.58298E-05   -0.58324E-05   512   0.376E-05 0.128E-06
CGA:  11    -0.684141758492E+02   -0.13139E-05   -0.13134E-05   512   0.940E-06-0.358E-08
CGA:  12    -0.684141762203E+02   -0.37112E-06   -0.37116E-06   512   0.298E-06-0.144E-07
CGA:  13    -0.684141763524E+02   -0.13209E-06   -0.13167E-06   512   0.111E-06-0.345E-08
CGA:  14    -0.684141764040E+02   -0.51588E-07   -0.50814E-07   512   0.420E-07-0.185E-09
CGA:  15    -0.684141764195E+02   -0.15507E-07   -0.14883E-07   512   0.120E-07 0.786E-08
CGA:  16    -0.684141764261E+02   -0.65738E-08   -0.59070E-08   512   0.467E-08 0.776E-09
  73 F= -.68414176E+02 E0= -.68414176E+02  d E =-.294573E-17
