 vasp.6.4.1 05Apr23 (build Jun  6 2023 14:46:38) gamma-only                      
 executed on        HPECrayEX_GCC date 2024.07.23  08:47:36
 running  512 mpi-ranks, with    1 threads/rank, on    4 nodes
 distrk:  each k-point on  512 cores,    1 groups
 distr:  one band on NCORE=   1 cores,  512 groups


--------------------------------------------------------------------------------------------------------


 INCAR:
   ISMEAR = 0
   SIGMA = 0.01
   PREC = Accurate
   EDIFF = 1E-8
   ENCUT = 1000
   ISIF = 2
   IBRION = 6
   POTIM = 0.008
   NFREE = 2
   EDIFF = 10-7
   GGA = ML
   LUSE_VDW = .TRUE.
   ZAB_VDW = -1.8867
   AGGAC = 0.0000
   LASPH = .TRUE.
   SYMPREC = 1E-7
   ALGO = Conjugate
   LWAVE = .FALSE.
   LCHARG = .FALSE.

 POTCAR:    PAW_PBE C_h 06Feb2004                 
 POTCAR:    PAW_PBE H_h 06Feb2004                 
 POTCAR:    PAW_PBE N_h 06Feb2004                 
 POTCAR:    PAW_PBE O_h 06Feb2004                 
 -----------------------------------------------------------------------------
|                                                                             |
|               ----> ADVICE to this user running VASP <----                  |
|                                                                             |
|     You have switched on vdW-DFT.                                           |
|     This routine was written and supplied by Jiri Klimes. We recommend      |
|     that you carefully read and cite the following publications:            |
|       J. Klimes, D.R. Bowler, A. Michelides                                 |
|          J. Phys.: Cond Matt. 22 022201 (2010)                              |
|       J. Klimes, D.R. Bowler, A. Michelides                                 |
|          Phys. Rev. B. 83, 195131 (2011)                                    |
|     and references therein.                                                 |
|                                                                             |
 -----------------------------------------------------------------------------

 POTCAR:    PAW_PBE C_h 06Feb2004                 
   VRHFIN =C: s2p2                                                                                  
   LEXCH  = PE                                                                                      
   EATOM  =   147.1560 eV,   10.8157 Ry                                                             
                                                                                                    
   TITEL  = PAW_PBE C_h 06Feb2004                                                                   
   LULTRA =        F    use ultrasoft PP ?                                                          
   IUNSCR =        1    unscreen: 0-lin 1-nonlin 2-no                                               
   RPACOR =    0.800    partial core radius                                                         
   POMASS =   12.011; ZVAL   =    4.000    mass and valenz                                          
   RCORE  =    1.100    outmost cutoff radius                                                       
   RWIGS  =    1.630; RWIGS  =    0.863    wigner-seitz radius (au A)                               
   ENMAX  =  700.000; ENMIN  =  500.000 eV                                                          
   ICORE  =        2    local potential                                                             
   LCOR   =        T    correct aug charges                                                         
   LPAW   =        T    paw PP                                                                      
   EAUG   =  946.768                                                                                
   DEXC   =    0.000                                                                                
   RMAX   =    1.128    core radius for proj-oper                                                   
   RAUG   =    1.300    factor for augmentation sphere                                              
   RDEP   =    1.162    radius for radial grids                                                     
   RDEPT  =    1.088    core radius for aug-charge                                                  
                                                                                                    
   Atomic configuration                                                                             
    4 entries                                                                                       
     n  l   j            E        occ.                                                              
     1  0  0.50      -273.3789   2.0000                                                             
     2  0  0.50       -13.7508   2.0000                                                             
     2  1  0.50        -5.2854   2.0000                                                             
     3  2  1.50        -5.4423   0.0000                                                             
   Description                                                                                      
     l       E           TYP  RCUT    TYP  RCUT                                                     
     0    -13.7508458     23  1.100                                                                 
     0     -8.2022199     23  1.100                                                                 
     1     -5.2854383     23  1.100                                                                 
     1      1.1560700     23  1.100                                                                 
     2     -5.4423304      7  1.100                                                                 
  local pseudopotential read in
  partial core-charges read in
  partial kinetic energy density read in
  atomic valenz-charges read in
  non local Contribution for L=           0  read in
    real space projection operators read in
  non local Contribution for L=           0  read in
    real space projection operators read in
  non local Contribution for L=           1  read in
    real space projection operators read in
  non local Contribution for L=           1  read in
    real space projection operators read in
    PAW grid and wavefunctions read in

   number of l-projection  operators is LMAX  =           4
   number of lm-projection operators is LMMAX =           8

 POTCAR:    PAW_PBE H_h 06Feb2004                 
   VRHFIN =H: ultrasoft test                                                                        
   LEXCH  = PE                                                                                      
   EATOM  =    12.4884 eV,    0.9179 Ry                                                             
                                                                                                    
   TITEL  = PAW_PBE H_h 06Feb2004                                                                   
   LULTRA =        F    use ultrasoft PP ?                                                          
   IUNSCR =        0    unscreen: 0-lin 1-nonlin 2-no                                               
   RPACOR =    0.000    partial core radius                                                         
   POMASS =    1.000; ZVAL   =    1.000    mass and valenz                                          
   RCORE  =    0.800    outmost cutoff radius                                                       
   RWIGS  =    0.700; RWIGS  =    0.370    wigner-seitz radius (au A)                               
   ENMAX  =  700.000; ENMIN  =  350.000 eV                                                          
   RCLOC  =    0.701    cutoff for local pot                                                        
   LCOR   =        T    correct aug charges                                                         
   LPAW   =        T    paw PP                                                                      
   EAUG   = 1000.000                                                                                
   RMAX   =    0.819    core radius for proj-oper                                                   
   RAUG   =    1.000    factor for augmentation sphere                                              
   RDEP   =    0.817    radius for radial grids                                                     
   RDEPT  =    0.817    core radius for aug-charge                                                  
                                                                                                    
   Atomic configuration                                                                             
    2 entries                                                                                       
     n  l   j            E        occ.                                                              
     1  0  0.50        -6.4927   1.0000                                                             
     2  1  0.50        -3.4015   0.0000                                                             
   Description                                                                                      
     l       E           TYP  RCUT    TYP  RCUT                                                     
     0     -6.4927493     23  0.800                                                                 
     0      6.8029130     23  0.800                                                                 
     1     -6.8029130     23  0.800                                                                 
  local pseudopotential read in
  atomic valenz-charges read in
  non local Contribution for L=           0  read in
    real space projection operators read in
  non local Contribution for L=           0  read in
    real space projection operators read in
  non local Contribution for L=           1  read in
    real space projection operators read in
    PAW grid and wavefunctions read in

   number of l-projection  operators is LMAX  =           3
   number of lm-projection operators is LMMAX =           5

 POTCAR:    PAW_PBE N_h 06Feb2004                 
   VRHFIN =N: s2p3                                                                                  
   LEXCH  = PE                                                                                      
   EATOM  =   264.5486 eV,   19.4438 Ry                                                             
                                                                                                    
   TITEL  = PAW_PBE N_h 06Feb2004                                                                   
   LULTRA =        F    use ultrasoft PP ?                                                          
   IUNSCR =        1    unscreen: 0-lin 1-nonlin 2-no                                               
   RPACOR =    0.800    partial core radius                                                         
   POMASS =   14.001; ZVAL   =    5.000    mass and valenz                                          
   RCORE  =    1.100    outmost cutoff radius                                                       
   RWIGS  =    1.480; RWIGS  =    0.783    wigner-seitz radius (au A)                               
   ENMAX  =  700.000; ENMIN  =  500.000 eV                                                          
   ICORE  =        2    local potential                                                             
   LCOR   =        T    correct aug charges                                                         
   LPAW   =        T    paw PP                                                                      
   EAUG   =  904.640                                                                                
   DEXC   =    0.000                                                                                
   RMAX   =    1.127    core radius for proj-oper                                                   
   RAUG   =    1.300    factor for augmentation sphere                                              
   RDEP   =    1.115    radius for radial grids                                                     
   RDEPT  =    1.106    core radius for aug-charge                                                  
                                                                                                    
   Atomic configuration                                                                             
    4 entries                                                                                       
     n  l   j            E        occ.                                                              
     1  0  0.50      -384.7179   2.0000                                                             
     2  0  0.50       -18.5828   2.0000                                                             
     2  1  0.50        -7.0898   3.0000                                                             
     3  2  1.50        -6.8029   0.0000                                                             
   Description                                                                                      
     l       E           TYP  RCUT    TYP  RCUT                                                     
     0    -18.5828117     23  1.100                                                                 
     0    -15.0750597     23  1.100                                                                 
     1     -7.0897851     23  1.100                                                                 
     1     -1.9663412     23  1.100                                                                 
     2     -6.8029130      7  1.100                                                                 
  local pseudopotential read in
  partial core-charges read in
  partial kinetic energy density read in
  kinetic energy density of atom read in
  atomic valenz-charges read in
  non local Contribution for L=           0  read in
    real space projection operators read in
  non local Contribution for L=           0  read in
    real space projection operators read in
  non local Contribution for L=           1  read in
    real space projection operators read in
  non local Contribution for L=           1  read in
    real space projection operators read in
    PAW grid and wavefunctions read in

   number of l-projection  operators is LMAX  =           4
   number of lm-projection operators is LMMAX =           8

 POTCAR:    PAW_PBE O_h 06Feb2004                 
   VRHFIN =O: s2p4                                                                                  
   LEXCH  = PE                                                                                      
   EATOM  =   432.3788 eV,   31.7789 Ry                                                             
                                                                                                    
   TITEL  = PAW_PBE O_h 06Feb2004                                                                   
   LULTRA =        F    use ultrasoft PP ?                                                          
   IUNSCR =        1    unscreen: 0-lin 1-nonlin 2-no                                               
   RPACOR =    0.800    partial core radius                                                         
   POMASS =   16.000; ZVAL   =    6.000    mass and valenz                                          
   RCORE  =    1.100    outmost cutoff radius                                                       
   RWIGS  =    1.400; RWIGS  =    0.741    wigner-seitz radius (au A)                               
   ENMAX  =  700.000; ENMIN  =  500.000 eV                                                          
   ICORE  =        2    local potential                                                             
   LCOR   =        T    correct aug charges                                                         
   LPAW   =        T    paw PP                                                                      
   EAUG   =  888.804                                                                                
   DEXC   =    0.000                                                                                
   RMAX   =    1.128    core radius for proj-oper                                                   
   RAUG   =    1.300    factor for augmentation sphere                                              
   RDEP   =    1.125    radius for radial grids                                                     
   RDEPT  =    1.088    core radius for aug-charge                                                  
                                                                                                    
   Atomic configuration                                                                             
    4 entries                                                                                       
     n  l   j            E        occ.                                                              
     1  0  0.50      -514.6923   2.0000                                                             
     2  0  0.50       -23.9615   2.0000                                                             
     2  1  0.50        -9.0305   4.0000                                                             
     3  2  1.50        -9.5241   0.0000                                                             
   Description                                                                                      
     l       E           TYP  RCUT    TYP  RCUT                                                     
     0    -23.9615319     23  1.100                                                                 
     0    -25.3221145     23  1.100                                                                 
     1     -9.0304911     23  1.100                                                                 
     1     -5.4802209     23  1.100                                                                 
     2     -9.5240782      7  1.100                                                                 
  local pseudopotential read in
  partial core-charges read in
  partial kinetic energy density read in
  atomic valenz-charges read in
  non local Contribution for L=           0  read in
    real space projection operators read in
  non local Contribution for L=           0  read in
    real space projection operators read in
  non local Contribution for L=           1  read in
    real space projection operators read in
  non local Contribution for L=           1  read in
    real space projection operators read in
    PAW grid and wavefunctions read in

   number of l-projection  operators is LMAX  =           4
   number of lm-projection operators is LMMAX =           8

 -----------------------------------------------------------------------------
|                                                                             |
|               ----> ADVICE to this user running VASP <----                  |
|                                                                             |
|     You enforced a specific xc type in the INCAR file but a different       |
|     type was found in the POTCAR file.                                      |
|     I HOPE YOU KNOW WHAT YOU ARE DOING!                                     |
|                                                                             |
 -----------------------------------------------------------------------------

  PAW_PBE C_h 06Feb2004                 :
 energy of atom  1       EATOM= -147.1560
 kinetic energy error for atom=    0.0031 (will be added to EATOM!!)
  PAW_PBE H_h 06Feb2004                 :
 energy of atom  2       EATOM=  -12.4884
 kinetic energy error for atom=    0.0006 (will be added to EATOM!!)
  PAW_PBE N_h 06Feb2004                 :
 energy of atom  3       EATOM= -264.5486
 kinetic energy error for atom=    0.0081 (will be added to EATOM!!)
  PAW_PBE O_h 06Feb2004                 :
 energy of atom  4       EATOM= -432.3788
 kinetic energy error for atom=    0.0171 (will be added to EATOM!!)


 POSCAR:  C  H  N  O
  positions in direct lattice
  velocities in cartesian coordinates
 exchange correlation table for  LEXCH =       44
   RHO(1)=    0.500       N(1)  =     2000
   RHO(2)=  100.500       N(2)  =     4000

 VTST: version 4.1, (05/19/21)

 CHAIN: initializing optimizer
 
 OPT: Using VASP Dynamics algorithm
 CHAIN: Read ICHAIN            0

 POSCAR:  C  H  N  O
  positions in direct lattice
  velocities in cartesian coordinates



--------------------------------------------------------------------------------------------------------


 ion  position               nearest neighbor table
   1  0.263  0.208  0.182-  12 1.22  10 1.39   9 1.41
   2  0.359  0.272  0.182-  11 1.23  10 1.43   3 1.46
   3  0.321  0.326  0.182-   7 1.08   4 1.35   2 1.46
   4  0.259  0.320  0.182-   8 1.08   3 1.35   9 1.38
   5  0.351  0.177  0.182-  10 1.01
   6  0.186  0.260  0.182-   9 1.01
   7  0.342  0.370  0.182-   3 1.08
   8  0.229  0.359  0.182-   4 1.08
   9  0.231  0.264  0.182-   6 1.01   4 1.38   1 1.41
  10  0.326  0.216  0.182-   5 1.01   1 1.39   2 1.43
  11  0.415  0.271  0.182-   2 1.23
  12  0.237  0.159  0.182-   1 1.22

  LATTYP: Found a simple cubic cell.
 ALAT       =    22.0000000000
  
  Lattice vectors:
  
 A1 = (  22.0000000000,   0.0000000000,   0.0000000000)
 A2 = (   0.0000000000,  22.0000000000,   0.0000000000)
 A3 = (   0.0000000000,   0.0000000000,  22.0000000000)


Analysis of symmetry for initial positions (statically):
=====================================================================
 Subroutine PRICEL returns:
 Original cell was already a primitive cell.
 

 Routine SETGRP: Setting up the symmetry group for a 
 simple cubic supercell.


 Subroutine GETGRP returns: Found  1 space group operations
 (whereof  1 operations were pure point group operations)
 out of a pool of 48 trial point group operations.


The static configuration has the point symmetry C_1 .


Analysis of symmetry for dynamics (positions and initial velocities):
=====================================================================
 Subroutine PRICEL returns:
 Original cell was already a primitive cell.
 

 Routine SETGRP: Setting up the symmetry group for a 
 simple cubic supercell.


 Subroutine GETGRP returns: Found  1 space group operations
 (whereof  1 operations were pure point group operations)
 out of a pool of 48 trial point group operations.


The dynamic configuration has the point symmetry C_1 .


 Subroutine INISYM returns: Found  1 space group operations
 (whereof  1 operations are pure point group operations),
 and found     1 'primitive' translations


----------------------------------------------------------------------------------------

                                     Primitive cell                                     

  volume of cell :   10648.0000

  direct lattice vectors                    reciprocal lattice vectors
    22.000000000  0.000000000  0.000000000     0.045454545  0.000000000  0.000000000
     0.000000000 22.000000000  0.000000000     0.000000000  0.045454545  0.000000000
     0.000000000  0.000000000 22.000000000     0.000000000  0.000000000  0.045454545

  length of vectors
    22.000000000 22.000000000 22.000000000     0.045454545  0.045454545  0.045454545

  position of ions in fractional coordinates (direct lattice)
     0.263124665  0.208352614  0.181830746
     0.359293326  0.271846631  0.181828997
     0.320661649  0.325771281  0.181804543
     0.259442799  0.320054067  0.181794525
     0.350962487  0.177382944  0.181857412
     0.185614867  0.260207022  0.181799196
     0.342406447  0.369673699  0.181795005
     0.229058420  0.358652285  0.181776364
     0.231384943  0.263847563  0.181807164
     0.325970591  0.216121311  0.181840451
     0.415001080  0.271082645  0.181839747
     0.237480090  0.159085210  0.181841304

  ion indices of the primitive-cell ions
   primitive index   ion index
                 1           1
                 2           2
                 3           3
                 4           4
                 5           5
                 6           6
                 7           7
                 8           8
                 9           9
                10          10
                11          11
                12          12

----------------------------------------------------------------------------------------



 KPOINTS: auto                                    

Automatic generation of k-mesh.
 Grid dimensions read from file:
 generate k-points for:    1    1    1

 Generating k-lattice:

  Cartesian coordinates                     Fractional coordinates (reciprocal lattice)
     0.045454545  0.000000000  0.000000000     1.000000000  0.000000000  0.000000000
     0.000000000  0.045454545  0.000000000     0.000000000  1.000000000  0.000000000
     0.000000000  0.000000000  0.045454545     0.000000000  0.000000000  1.000000000

  Length of vectors
     0.045454545  0.045454545  0.045454545

  Shift w.r.t. Gamma in fractional coordinates (k-lattice)
     0.000000000  0.000000000  0.000000000

 
 Subroutine IBZKPT returns following result:
 ===========================================
 
 Found      1 irreducible k-points:
 
 Following reciprocal coordinates:
            Coordinates               Weight
  0.000000  0.000000  0.000000      1.000000
 
 Following cartesian coordinates:
            Coordinates               Weight
  0.000000  0.000000  0.000000      1.000000
 
 
 Subroutine IBZKPT_HF returns following result:
 ==============================================
 
 Found      1 k-points in 1st BZ
 the following      1 k-points will be used (e.g. in the exchange kernel)
 Following reciprocal coordinates:   # in IRBZ
  0.000000  0.000000  0.000000    1.00000000   1 t-inv F


--------------------------------------------------------------------------------------------------------




 Dimension of arrays:
   k-points           NKPTS =      1   k-points in BZ     NKDIM =      1   number of bands    NBANDS=    512
   number of dos      NEDOS =    301   number of ions     NIONS =     12
   non local maximal  LDIM  =      4   non local SUM 2l+1 LMDIM =      8
   total plane-waves  NPLWV = ******
   max r-space proj   IRMAX =      1   max aug-charges    IRDMAX=   9667
   dimension x,y,z NGX =   240 NGY =  240 NGZ =  240
   dimension x,y,z NGXF=   480 NGYF=  480 NGZF=  480
   support grid    NGXF=   480 NGYF=  480 NGZF=  480
   ions per type =               4   4   2   2
   NGX,Y,Z   is equivalent  to a cutoff of  18.14, 18.14, 18.14 a.u.
   NGXF,Y,Z  is equivalent  to a cutoff of  36.27, 36.27, 36.27 a.u.

 SYSTEM =  unknown system                          
 POSCAR =   C  H  N  O                             

 Startparameter for this run:
   NWRITE =      2    write-flag & timer
   PREC   = accura    normal or accurate (medium, high low for compatibility)
   ISTART =      0    job   : 0-new  1-cont  2-samecut
   ICHARG =      2    charge: 1-file 2-atom 10-const
   ISPIN  =      1    spin polarized calculation?
   LNONCOLLINEAR =      F non collinear calculations
   LSORBIT =      F    spin-orbit coupling
   INIWAV =      1    electr: 0-lowe 1-rand  2-diag
   LASPH  =      T    aspherical Exc in radial PAW
 Electronic Relaxation 1
   ENCUT  = 1000.0 eV  73.50 Ry    8.57 a.u.  56.73 56.73 56.73*2*pi/ulx,y,z
   ENINI  = 1000.0     initial cutoff
   ENAUG  = 1000.0 eV  augmentation charge cutoff
   NELM   =     60;   NELMIN=  2; NELMDL= -5     # of ELM steps 
   EDIFF  = 0.1E-07   stopping-criterion for ELM
   LREAL  =      F    real-space projection
   NLSPLINE    = F    spline interpolate recip. space projectors
   LCOMPAT=      F    compatible to vasp.4.4
   GGA_COMPAT  = T    GGA compatible to vasp.4.4-vasp.4.6
   LMAXPAW     = -100 max onsite density
   LMAXMIX     =    2 max onsite mixed and CHGCAR
   VOSKOWN=      0    Vosko Wilk Nusair interpolation
   ROPT   =    0.00000   0.00000   0.00000   0.00000
 Ionic relaxation
   EDIFFG = 0.1E-06   stopping-criterion for IOM
   NSW    =    181    number of steps for IOM
   NBLOCK =      1;   KBLOCK =    181    inner block; outer block 
   IBRION =      6    ionic relax: 0-MD 1-quasi-New 2-CG
   NFREE  =      2    steps in history (QN), initial steepest desc. (CG)
   ISIF   =      2    stress and relaxation
   IWAVPR =     11    prediction:  0-non 1-charg 2-wave 3-comb
   ISYM   =      2    0-nonsym 1-usesym 2-fastsym
   LCORR  =      T    Harris-Foulkes like correction to forces

   POTIM  = 0.0080    time-step for ionic-motion
   TEIN   =    0.0    initial temperature
   TEBEG  =    0.0;   TEEND  =   0.0 temperature during run
   SMASS  =  -3.00    Nose mass-parameter (am)
   estimated Nose-frequenzy (Omega)   =  0.10E-29 period in steps = 0.79E+48 mass=  -0.111E-25a.u.
   SCALEE = 1.0000    scale energy and forces
   NPACO  =    256;   APACO  = 10.0  distance and # of slots for P.C.
   PSTRESS=    0.0 pullay stress

  Mass of Ions in am
   POMASS =  12.01  1.00 14.00 16.00
  Ionic Valenz
   ZVAL   =   4.00  1.00  5.00  6.00
  Atomic Wigner-Seitz radii
   RWIGS  =  -1.00 -1.00 -1.00 -1.00
  virtual crystal weights 
   VCA    =   1.00  1.00  1.00  1.00
   NELECT =      42.0000    total number of electrons
   NUPDOWN=      -1.0000    fix difference up-down

 DOS related values:
   EMIN   =  10.00;   EMAX   =-10.00  energy-range for DOS
   EFERMI =   0.00;   METHOD = LEGACY      
   ISMEAR =     0;   SIGMA  =   0.01  broadening in eV -4-tet -1-fermi 0-gaus

 Electronic relaxation 2 (details)
   IALGO  =     58    algorithm
   LDIAG  =      T    sub-space diagonalisation (order eigenvalues)
   LSUBROT=      F    optimize rotation matrix (better conditioning)
   TURBO    =      0    0=normal 1=particle mesh
   IRESTART =      0    0=no restart 2=restart with 2 vectors
   NREBOOT  =      0    no. of reboots
   NMIN     =      0    reboot dimension
   EREF     =   0.00    reference energy to select bands
   IMIX   =      4    mixing-type and parameters
     AMIX     =   0.40;   BMIX     =  1.00
     AMIX_MAG =   1.60;   BMIX_MAG =  1.00
     AMIN     =   0.10
     WC   =   100.;   INIMIX=   1;  MIXPRE=   1;  MAXMIX= -45

 Intra band minimization:
   WEIMIN = 0.0010     energy-eigenvalue tresh-hold
   EBREAK =  0.49E-11  absolut break condition
   DEPER  =   0.30     relativ break condition  

   TIME   =   0.40     timestep for ELM

  volume/ion in A,a.u.               =     887.33      5988.02
  Fermi-wavevector in a.u.,A,eV,Ry     =   0.258664  0.488803  0.910323  0.066907
  Thomas-Fermi vector in A             =   1.084480

 Write flags
   LWAVE        =      F    write WAVECAR
   LDOWNSAMPLE  =      F    k-point downsampling of WAVECAR
   LCHARG       =      F    write CHGCAR
   LVTOT        =      F    write LOCPOT, total local potential
   LVHAR        =      F    write LOCPOT, Hartree potential only
   LELF         =      F    write electronic localiz. function (ELF)
   LORBIT       =      0    0 simple, 1 ext, 2 COOP (PROOUT), +10 PAW based schemes


 Dipole corrections
   LMONO  =      F    monopole corrections only (constant potential shift)
   LDIPOL =      F    correct potential (dipole corrections)
   IDIPOL =      0    1-x, 2-y, 3-z, 4-all directions 
   EPSILON=  1.0000000 bulk dielectric constant

 Exchange correlation treatment:
   GGA     =    ML    GGA type
   LEXCH   =    44    internal setting for exchange type
   LIBXC   =     F    Libxc                    
   VOSKOWN =     0    Vosko Wilk Nusair interpolation
   LHFCALC =     F    Hartree Fock is set to
   LHFONE  =     F    Hartree Fock one center treatment
   AEXX    =    0.0000 exact exchange contribution

 vdW DFT:
   LUSE_VDW   =     T    switch on vdW DFT
   IVDW_NL    =     1    kernel type
   LSPIN_VDW  =     F    use spin-polarized vdW DFT
   Zab_VDW    =******    correlation parameter
   PARAM1     =0.1234
   PARAM2     =1.0000
   PARAM3     =0.0000
   -- rVV10 --
   BPARAM     = 6.3000
   CPARAM     = 0.0093

 Linear response parameters
   LEPSILON=     F    determine dielectric tensor
   LRPA    =     F    only Hartree local field effects (RPA)
   LNABLA  =     F    use nabla operator in PAW spheres
   LVEL    =     F    velocity operator in full k-point grid
   CSHIFT  =0.1000    complex shift for real part using Kramers Kronig
   OMEGAMAX=  -1.0    maximum frequency
   DEG_THRESHOLD= 0.2000000E-02 threshold for treating states as degnerate
   RTIME   =   -0.100 relaxation time in fs
  (WPLASMAI=    0.000 imaginary part of plasma frequency in eV, 0.658/RTIME)
   DFIELD  = 0.0000000 0.0000000 0.0000000 field for delta impulse in time

  Optional k-point grid parameters
   LKPOINTS_OPT  =     F    use optional k-point grid
   KPOINTS_OPT_MODE=     1    mode for optional k-point grid

 Orbital magnetization related:
   ORBITALMAG=     F  switch on orbital magnetization
   LCHIMAG   =     F  perturbation theory with respect to B field
   DQ        =  0.001000  dq finite difference perturbation B field
   LLRAUG    =     F  two centre corrections for induced B field
   LBONE     =     F  B-component reconstruction in AE one-centre
   LVGVCALC  =     T  calculate vGv susceptibility
   LVGVAPPL  =     F  apply vGv susceptibility instead of pGv for G=0

 Random number generation:
   RANDOM_GENERATOR = DEFAULT
   PCG_SEED         = not used


--------------------------------------------------------------------------------------------------------


 finite differences with symmetry
 charge density and potential will be updated during run
 non-spin polarized calculation
 Conjugate gradient for all bands (Freysoldt, et al. PRB 79, 241103 (2009))
 preconditioned conjugated gradient                                        
 perform sub-space diagonalisation
    before iterative eigenvector-optimisation
 modified Broyden-mixing scheme, WC =      100.0
 initial mixing is a Kerker type mixing with AMIX =  0.4000 and BMIX =      1.0000
 Hartree-type preconditioning will be used
 using additional bands          491
 reciprocal scheme for non local part
 use partial core corrections
 no Harris-corrections to forces 
 use gradient corrections 
 use of overlap-Matrix (Vanderbilt PP)
 Gauss-broadening in eV      SIGMA  =   0.01


--------------------------------------------------------------------------------------------------------


  energy-cutoff  :     1000.00
  volume of cell :    10648.00
      direct lattice vectors                 reciprocal lattice vectors
    22.000000000  0.000000000  0.000000000     0.045454545  0.000000000  0.000000000
     0.000000000 22.000000000  0.000000000     0.000000000  0.045454545  0.000000000
     0.000000000  0.000000000 22.000000000     0.000000000  0.000000000  0.045454545

  length of vectors
    22.000000000 22.000000000 22.000000000     0.045454545  0.045454545  0.045454545



 k-points in units of 2pi/SCALE and weight: auto                                    
   0.00000000  0.00000000  0.00000000       1.000

 k-points in reciprocal lattice and weights: auto                                    
   0.00000000  0.00000000  0.00000000       1.000

 position of ions in fractional coordinates (direct lattice) 
   0.26312466  0.20835261  0.18183075
   0.35929333  0.27184663  0.18182900
   0.32066165  0.32577128  0.18180454
   0.25944280  0.32005407  0.18179453
   0.35096249  0.17738294  0.18185741
   0.18561487  0.26020702  0.18179920
   0.34240645  0.36967370  0.18179500
   0.22905842  0.35865229  0.18177636
   0.23138494  0.26384756  0.18180716
   0.32597059  0.21612131  0.18184045
   0.41500108  0.27108264  0.18183975
   0.23748009  0.15908521  0.18184130

 position of ions in cartesian coordinates  (Angst):
   5.78874262  4.58375750  4.00027642
   7.90445316  5.98062588  4.00023794
   7.05455628  7.16696819  3.99969994
   5.70774159  7.04118948  3.99947956
   7.72117471  3.90242476  4.00086306
   4.08352707  5.72455449  3.99958231
   7.53294183  8.13282139  3.99949011
   5.03928525  7.89035027  3.99908002
   5.09046874  5.80464639  3.99975760
   7.17135300  4.75466885  4.00048993
   9.13002377  5.96381818  4.00047444
   5.22456197  3.49987462  4.00050869



--------------------------------------------------------------------------------------------------------


 use serial FFT for orbitals x direction half grid
 k-point   1 :   0.0000 0.0000 0.0000  plane waves:  381993

 maximum and minimum number of plane-waves per node :    381993   381993

 maximum number of plane-waves:    381993
 maximum index in each direction: 
   IXMAX=   56   IYMAX=   56   IZMAX=   56
   IXMIN=    0   IYMIN=  -56   IZMIN=  -56


 serial   3D FFT for wavefunctions
 parallel 3D FFT for charge:
    minimum data exchange during FFTs selected (reduces bandwidth)


 total amount of memory used by VASP MPI-rank0   854007. kBytes
=======================================================================

   base      :      30000. kBytes
   nonl-proj :     171343. kBytes
   fftplans  :      63753. kBytes
   grid      :     570524. kBytes
   one-center:         18. kBytes
   wavefun   :      18369. kBytes

     INWAV:  cpu time      0.0001: real time      0.0001
 Broyden mixing: mesh for mixing (old mesh)
   NGX =113   NGY =113   NGZ =113
  (NGX  =480   NGY  =480   NGZ  =480)
  gives a total of ****** points

 initial charge density was supplied:
 charge density of overlapping atoms calculated
 number of electron      42.0000000 magnetization 
 keeping initial charge density in first step


--------------------------------------------------------------------------------------------------------


 Maximum index for augmentation-charges            0 (set IRDMAX)


--------------------------------------------------------------------------------------------------------


 First call to EWALD:  gamma=   0.081
 Maximum number of real-space cells 3x 3x 3
 Maximum number of reciprocal cells 3x 3x 3

    FEWALD:  cpu time      0.0053: real time      0.0055


--------------------------------------- Ionic step        1  -------------------------------------------




--------------------------------------- Iteration      1(   1)  ---------------------------------------


vdW kernel read from vdw_kernel.bindat
  0.0000  0.2424  0.5071  0.7962  1.1119  1.4567  1.8333  2.2446  2.6937  3.1842
  3.7199  4.3049  4.9438  5.6415  6.4036  7.2358  8.1446  9.1372 10.2212 11.4050
 12.6979 14.1099 15.6519 17.3360 19.1751 21.1837 23.3773 25.7729 28.3892 31.2465
 34.3669 37.7748 41.4965 45.5611 50.0000

    POTLOK:  cpu time     13.8988: real time     13.9167
    SETDIJ:  cpu time      0.0786: real time      0.0790
    TRIAL :  cpu time     17.4672: real time     17.4774
    CORREC:  cpu time      0.0031: real time      0.0031
    --------------------------------------------
      LOOP:  cpu time     31.4667: real time     31.4955

 eigenvalue-minimisations  :  1024
 total energy-change (2. order) : 0.4400318E+03  (-0.2274392E+04)
 number of electron      42.0000000 magnetization 
 augmentation part       42.0000000 magnetization 

 Free energy of the ion-electron system (eV)
  ---------------------------------------------------
  alpha Z        PSCENC =         0.49439650
  Ewald energy   TEWEN  =      3376.67105351
  -Hartree energ DENC   =     -4889.31526661
  -exchange      EXHF   =         0.00000000
  -V(xc)+E(xc)   XCENC  =       114.59779202
  PAW double counting   =      1577.99339662    -1556.19563020
  entropy T*S    EENTRO =        -0.00873657
  eigenvalues    EBANDS =      -254.00063181
  atomic energy  EATOM  =      2069.79543420
  ---------------------------------------------------
  free energy    TOTEN  =       440.03180766 eV

  energy without entropy =      440.04054423  energy(sigma->0) =      440.03617594


--------------------------------------------------------------------------------------------------------




--------------------------------------- Iteration      1(   2)  ---------------------------------------


    TRIAL :  cpu time     76.7593: real time     76.7945
    CORREC:  cpu time      0.0002: real time      0.0002
    --------------------------------------------
      LOOP:  cpu time     76.7733: real time     76.8220

 eigenvalue-minimisations  :  2048
 total energy-change (2. order) :-0.5144448E+03  (-0.5124043E+03)
 number of electron      42.0000000 magnetization 
 augmentation part       42.0000000 magnetization 

 Free energy of the ion-electron system (eV)
  ---------------------------------------------------
  alpha Z        PSCENC =         0.49439650
  Ewald energy   TEWEN  =      3376.67105351
  -Hartree energ DENC   =     -4889.31526661
  -exchange      EXHF   =         0.00000000
  -V(xc)+E(xc)   XCENC  =       114.59779202
  PAW double counting   =      1577.99339662    -1556.19563020
  entropy T*S    EENTRO =        -0.00000000
  eigenvalues    EBANDS =      -768.45413826
  atomic energy  EATOM  =      2069.79543420
  ---------------------------------------------------
  free energy    TOTEN  =       -74.41296222 eV

  energy without entropy =      -74.41296222  energy(sigma->0) =      -74.41296222


--------------------------------------------------------------------------------------------------------




--------------------------------------- Iteration      1(   3)  ---------------------------------------


    TRIAL :  cpu time     18.8475: real time     18.8572
    CORREC:  cpu time      0.0002: real time      0.0002
    --------------------------------------------
      LOOP:  cpu time     18.8626: real time     18.8885

 eigenvalue-minimisations  :  1024
 total energy-change (2. order) :-0.2522894E+01  (-0.2522894E+01)
 number of electron      42.0000000 magnetization 
 augmentation part       42.0000000 magnetization 

 Free energy of the ion-electron system (eV)
  ---------------------------------------------------
  alpha Z        PSCENC =         0.49439650
  Ewald energy   TEWEN  =      3376.67105351
  -Hartree energ DENC   =     -4889.31526661
  -exchange      EXHF   =         0.00000000
  -V(xc)+E(xc)   XCENC  =       114.59779202
  PAW double counting   =      1577.99339662    -1556.19563020
  entropy T*S    EENTRO =        -0.00000000
  eigenvalues    EBANDS =      -770.97703244
  atomic energy  EATOM  =      2069.79543420
  ---------------------------------------------------
  free energy    TOTEN  =       -76.93585641 eV

  energy without entropy =      -76.93585641  energy(sigma->0) =      -76.93585641


--------------------------------------------------------------------------------------------------------




--------------------------------------- Iteration      1(   4)  ---------------------------------------


    TRIAL :  cpu time     75.3064: real time     75.3445
    CORREC:  cpu time      0.0003: real time      0.0003
    --------------------------------------------
      LOOP:  cpu time     75.3356: real time     75.3740

 eigenvalue-minimisations  :  2048
 total energy-change (2. order) :-0.1205914E-01  (-0.1205914E-01)
 number of electron      42.0000000 magnetization 
 augmentation part       42.0000000 magnetization 

 Free energy of the ion-electron system (eV)
  ---------------------------------------------------
  alpha Z        PSCENC =         0.49439650
  Ewald energy   TEWEN  =      3376.67105351
  -Hartree energ DENC   =     -4889.31526661
  -exchange      EXHF   =         0.00000000
  -V(xc)+E(xc)   XCENC  =       114.59779202
  PAW double counting   =      1577.99339662    -1556.19563020
  entropy T*S    EENTRO =        -0.00000000
  eigenvalues    EBANDS =      -770.98909158
  atomic energy  EATOM  =      2069.79543420
  ---------------------------------------------------
  free energy    TOTEN  =       -76.94791554 eV

  energy without entropy =      -76.94791554  energy(sigma->0) =      -76.94791554


--------------------------------------------------------------------------------------------------------




--------------------------------------- Iteration      1(   5)  ---------------------------------------


    TRIAL :  cpu time     18.6343: real time     18.6441
    CORREC:  cpu time      0.0002: real time      0.0002
    CHARGE:  cpu time      2.4595: real time      2.4616
    --------------------------------------------
      LOOP:  cpu time     21.1087: real time     21.1363

 eigenvalue-minimisations  :  1024
 total energy-change (2. order) :-0.3141386E-06  (-0.3474809E-06)
 number of electron      42.0000000 magnetization 
 augmentation part        0.1828888 magnetization 

 Free energy of the ion-electron system (eV)
  ---------------------------------------------------
  alpha Z        PSCENC =         0.49439650
  Ewald energy   TEWEN  =      3376.67105351
  -Hartree energ DENC   =     -4889.31526661
  -exchange      EXHF   =         0.00000000
  -V(xc)+E(xc)   XCENC  =       114.59779202
  PAW double counting   =      1577.99339662    -1556.19563020
  entropy T*S    EENTRO =        -0.00000000
  eigenvalues    EBANDS =      -770.98909189
  atomic energy  EATOM  =      2069.79543420
  ---------------------------------------------------
  free energy    TOTEN  =       -76.94791586 eV

  energy without entropy =      -76.94791586  energy(sigma->0) =      -76.94791586


--------------------------------------------------------------------------------------------------------




--------------------------------------- Iteration      1(   6)  ---------------------------------------


    POTLOK:  cpu time     12.3844: real time     12.3878
    SETDIJ:  cpu time      0.0698: real time      0.0698
    TRIAL :  cpu time      5.1696: real time      5.1809
    CORREC:  cpu time     16.1842: real time     16.1897
    CHARGE:  cpu time      2.4134: real time      2.4148
    --------------------------------------------
      LOOP:  cpu time     36.2358: real time     36.2729

 eigenvalue-minimisations  :     0
 total energy-change (2. order) : 0.1928546E+02  (-0.8382444E+01)
 number of electron      42.0000000 magnetization 
 augmentation part        0.0862525 magnetization 

 Free energy of the ion-electron system (eV)
  ---------------------------------------------------
  alpha Z        PSCENC =         0.49439650
  Ewald energy   TEWEN  =      3376.67105351
  -Hartree energ DENC   =     -5215.70221112
  -exchange      EXHF   =         0.00000000
  -V(xc)+E(xc)   XCENC  =       130.35403552
  PAW double counting   =     11909.63288623   -11892.59904540
  entropy T*S    EENTRO =        -0.00000000
  eigenvalues    EBANDS =      -436.30900363
  atomic energy  EATOM  =      2069.79543420
  ---------------------------------------------------
  free energy    TOTEN  =       -57.66245420 eV

  energy without entropy =      -57.66245420  energy(sigma->0) =      -57.66245420


--------------------------------------------------------------------------------------------------------




--------------------------------------- Iteration      1(   7)  ---------------------------------------


    POTLOK:  cpu time     12.3453: real time     12.3487
    SETDIJ:  cpu time      0.0698: real time      0.0698
    TRIAL :  cpu time      4.9827: real time      4.9847
    CORREC:  cpu time     16.0722: real time     16.0775
    CHARGE:  cpu time      2.4018: real time      2.4024
    --------------------------------------------
      LOOP:  cpu time     35.9018: real time     35.9133

 eigenvalue-minimisations  :     0
 total energy-change (2. order) :-0.8404382E+01  (-0.1400966E+01)
 number of electron      42.0000000 magnetization 
 augmentation part        0.0492496 magnetization 

 Free energy of the ion-electron system (eV)
  ---------------------------------------------------
  alpha Z        PSCENC =         0.49439650
  Ewald energy   TEWEN  =      3376.67105351
  -Hartree energ DENC   =     -5080.91708393
  -exchange      EXHF   =         0.00000000
  -V(xc)+E(xc)   XCENC  =       123.64344778
  PAW double counting   =     16399.98568431   -16380.91662253
  entropy T*S    EENTRO =        -0.00000000
  eigenvalues    EBANDS =      -574.82314604
  atomic energy  EATOM  =      2069.79543420
  ---------------------------------------------------
  free energy    TOTEN  =       -66.06683621 eV

  energy without entropy =      -66.06683621  energy(sigma->0) =      -66.06683621


--------------------------------------------------------------------------------------------------------




--------------------------------------- Iteration      1(   8)  ---------------------------------------


    POTLOK:  cpu time     12.3952: real time     12.3989
    SETDIJ:  cpu time      0.0699: real time      0.0699
    TRIAL :  cpu time      4.9510: real time      4.9529
    CORREC:  cpu time     16.1852: real time     16.1899
    CHARGE:  cpu time      2.4011: real time      2.4016
    --------------------------------------------
      LOOP:  cpu time     36.0166: real time     36.0439

 eigenvalue-minimisations  :     0
 total energy-change (2. order) :-0.1411407E+01  (-0.6134840E+00)
 number of electron      42.0000000 magnetization 
 augmentation part        0.0480535 magnetization 

 Free energy of the ion-electron system (eV)
  ---------------------------------------------------
  alpha Z        PSCENC =         0.49439650
  Ewald energy   TEWEN  =      3376.67105351
  -Hartree energ DENC   =     -5073.79811683
  -exchange      EXHF   =         0.00000000
  -V(xc)+E(xc)   XCENC  =       123.20497854
  PAW double counting   =     17617.55248220   -17598.10834306
  entropy T*S    EENTRO =        -0.00000000
  eigenvalues    EBANDS =      -583.29012804
  atomic energy  EATOM  =      2069.79543420
  ---------------------------------------------------
  free energy    TOTEN  =       -67.47824298 eV

  energy without entropy =      -67.47824298  energy(sigma->0) =      -67.47824298


--------------------------------------------------------------------------------------------------------




--------------------------------------- Iteration      1(   9)  ---------------------------------------


    POTLOK:  cpu time     12.4423: real time     12.4451
    SETDIJ:  cpu time      0.0698: real time      0.0698
    TRIAL :  cpu time      4.9610: real time      4.9627
    CORREC:  cpu time     16.1279: real time     16.1325
    CHARGE:  cpu time      2.4038: real time      2.4049
    --------------------------------------------
      LOOP:  cpu time     36.0177: real time     36.0477

 eigenvalue-minimisations  :     0
 total energy-change (2. order) :-0.6087626E+00  (-0.2379977E+00)
 number of electron      42.0000000 magnetization 
 augmentation part        0.0500464 magnetization 

 Free energy of the ion-electron system (eV)
  ---------------------------------------------------
  alpha Z        PSCENC =         0.49439650
  Ewald energy   TEWEN  =      3376.67105351
  -Hartree energ DENC   =     -5063.87196597
  -exchange      EXHF   =         0.00000000
  -V(xc)+E(xc)   XCENC  =       122.74478167
  PAW double counting   =     18401.99641659   -18382.45727926
  entropy T*S    EENTRO =        -0.00000000
  eigenvalues    EBANDS =      -593.45984285
  atomic energy  EATOM  =      2069.79543420
  ---------------------------------------------------
  free energy    TOTEN  =       -68.08700562 eV

  energy without entropy =      -68.08700562  energy(sigma->0) =      -68.08700562


--------------------------------------------------------------------------------------------------------




--------------------------------------- Iteration      1(  10)  ---------------------------------------


    POTLOK:  cpu time     12.4081: real time     12.4112
    SETDIJ:  cpu time      0.0699: real time      0.0699
    TRIAL :  cpu time      4.9500: real time      4.9519
    CORREC:  cpu time     16.1095: real time     16.1143
    CHARGE:  cpu time      2.4026: real time      2.4032
    --------------------------------------------
      LOOP:  cpu time     35.9529: real time     35.9811

 eigenvalue-minimisations  :     0
 total energy-change (2. order) :-0.2364628E+00  (-0.6636006E-01)
 number of electron      42.0000000 magnetization 
 augmentation part        0.0533030 magnetization 

 Free energy of the ion-electron system (eV)
  ---------------------------------------------------
  alpha Z        PSCENC =         0.49439650
  Ewald energy   TEWEN  =      3376.67105351
  -Hartree energ DENC   =     -5052.84116329
  -exchange      EXHF   =         0.00000000
  -V(xc)+E(xc)   XCENC  =       122.38579369
  PAW double counting   =     17879.58208708   -17860.04912788
  entropy T*S    EENTRO =        -0.00000000
  eigenvalues    EBANDS =      -604.36194225
  atomic energy  EATOM  =      2069.79543420
  ---------------------------------------------------
  free energy    TOTEN  =       -68.32346844 eV

  energy without entropy =      -68.32346844  energy(sigma->0) =      -68.32346844


--------------------------------------------------------------------------------------------------------




--------------------------------------- Iteration      1(  11)  ---------------------------------------


    POTLOK:  cpu time     12.4337: real time     12.4368
    SETDIJ:  cpu time      0.0699: real time      0.0699
    TRIAL :  cpu time      4.9505: real time      4.9524
    CORREC:  cpu time     16.0813: real time     16.0856
    CHARGE:  cpu time      2.4041: real time      2.4048
    --------------------------------------------
      LOOP:  cpu time     35.9660: real time     35.9802

 eigenvalue-minimisations  :     0
 total energy-change (2. order) :-0.6629079E-01  (-0.1727183E-01)
 number of electron      42.0000000 magnetization 
 augmentation part        0.0544776 magnetization 

 Free energy of the ion-electron system (eV)
  ---------------------------------------------------
  alpha Z        PSCENC =         0.49439650
  Ewald energy   TEWEN  =      3376.67105351
  -Hartree energ DENC   =     -5048.29274421
  -exchange      EXHF   =         0.00000000
  -V(xc)+E(xc)   XCENC  =       122.29670991
  PAW double counting   =     17267.41339134   -17247.93153430
  entropy T*S    EENTRO =        -0.00000000
  eigenvalues    EBANDS =      -608.83646616
  atomic energy  EATOM  =      2069.79543420
  ---------------------------------------------------
  free energy    TOTEN  =       -68.38975923 eV

  energy without entropy =      -68.38975923  energy(sigma->0) =      -68.38975923


--------------------------------------------------------------------------------------------------------




--------------------------------------- Iteration      1(  12)  ---------------------------------------


    POTLOK:  cpu time     12.4507: real time     12.4537
    SETDIJ:  cpu time      0.0699: real time      0.0699
    TRIAL :  cpu time      5.0169: real time      5.0188
    CORREC:  cpu time     16.1086: real time     16.1131
    CHARGE:  cpu time      2.4010: real time      2.4019
    --------------------------------------------
      LOOP:  cpu time     36.0779: real time     36.0885

 eigenvalue-minimisations  :     0
 total energy-change (2. order) :-0.1726689E-01  (-0.4961684E-02)
 number of electron      42.0000000 magnetization 
 augmentation part        0.0538957 magnetization 

 Free energy of the ion-electron system (eV)
  ---------------------------------------------------
  alpha Z        PSCENC =         0.49439650
  Ewald energy   TEWEN  =      3376.67105351
  -Hartree energ DENC   =     -5046.92047111
  -exchange      EXHF   =         0.00000000
  -V(xc)+E(xc)   XCENC  =       122.24525207
  PAW double counting   =     17005.76333215   -16986.30257539
  entropy T*S    EENTRO =        -0.00000000
  eigenvalues    EBANDS =      -610.15344804
  atomic energy  EATOM  =      2069.79543420
  ---------------------------------------------------
  free energy    TOTEN  =       -68.40702612 eV

  energy without entropy =      -68.40702612  energy(sigma->0) =      -68.40702612


--------------------------------------------------------------------------------------------------------




--------------------------------------- Iteration      1(  13)  ---------------------------------------


    POTLOK:  cpu time     12.3883: real time     12.3913
    SETDIJ:  cpu time      0.0699: real time      0.0699
    TRIAL :  cpu time      4.9486: real time      4.9506
    CORREC:  cpu time     15.9612: real time     15.9666
    CHARGE:  cpu time      2.4036: real time      2.4043
    --------------------------------------------
      LOOP:  cpu time     35.7853: real time     35.8136

 eigenvalue-minimisations  :     0
 total energy-change (2. order) :-0.4958659E-02  (-0.1599777E-02)
 number of electron      42.0000000 magnetization 
 augmentation part        0.0533870 magnetization 

 Free energy of the ion-electron system (eV)
  ---------------------------------------------------
  alpha Z        PSCENC =         0.49439650
  Ewald energy   TEWEN  =      3376.67105351
  -Hartree energ DENC   =     -5047.01310506
  -exchange      EXHF   =         0.00000000
  -V(xc)+E(xc)   XCENC  =       122.23657209
  PAW double counting   =     16911.96373877   -16892.50781074
  entropy T*S    EENTRO =        -0.00000000
  eigenvalues    EBANDS =      -610.05226405
  atomic energy  EATOM  =      2069.79543420
  ---------------------------------------------------
  free energy    TOTEN  =       -68.41198478 eV

  energy without entropy =      -68.41198478  energy(sigma->0) =      -68.41198478


--------------------------------------------------------------------------------------------------------




--------------------------------------- Iteration      1(  14)  ---------------------------------------


    POTLOK:  cpu time     12.4497: real time     12.4530
    SETDIJ:  cpu time      0.0699: real time      0.0699
    TRIAL :  cpu time      4.9484: real time      4.9506
    CORREC:  cpu time     15.9932: real time     15.9979
    CHARGE:  cpu time      2.4035: real time      2.4043
    --------------------------------------------
      LOOP:  cpu time     35.8784: real time     35.9071

 eigenvalue-minimisations  :     0
 total energy-change (2. order) :-0.1597445E-02  (-0.5052997E-03)
 number of electron      42.0000000 magnetization 
 augmentation part        0.0530215 magnetization 

 Free energy of the ion-electron system (eV)
  ---------------------------------------------------
  alpha Z        PSCENC =         0.49439650
  Ewald energy   TEWEN  =      3376.67105351
  -Hartree energ DENC   =     -5047.39992910
  -exchange      EXHF   =         0.00000000
  -V(xc)+E(xc)   XCENC  =       122.24621339
  PAW double counting   =     16897.93017306   -16878.47530967
  entropy T*S    EENTRO =        -0.00000000
  eigenvalues    EBANDS =      -609.67561411
  atomic energy  EATOM  =      2069.79543420
  ---------------------------------------------------
  free energy    TOTEN  =       -68.41358223 eV

  energy without entropy =      -68.41358223  energy(sigma->0) =      -68.41358223


--------------------------------------------------------------------------------------------------------




--------------------------------------- Iteration      1(  15)  ---------------------------------------


    POTLOK:  cpu time     12.3679: real time     12.3721
    SETDIJ:  cpu time      0.0699: real time      0.0699
    TRIAL :  cpu time      4.9435: real time      4.9456
    CORREC:  cpu time     16.0328: real time     16.0375
    CHARGE:  cpu time      2.4014: real time      2.4021
    --------------------------------------------
      LOOP:  cpu time     35.8474: real time     35.8594

 eigenvalue-minimisations  :     0
 total energy-change (2. order) :-0.5041921E-03  (-0.1426681E-03)
 number of electron      42.0000000 magnetization 
 augmentation part        0.0529618 magnetization 

 Free energy of the ion-electron system (eV)
  ---------------------------------------------------
  alpha Z        PSCENC =         0.49439650
  Ewald energy   TEWEN  =      3376.67105351
  -Hartree energ DENC   =     -5047.67291592
  -exchange      EXHF   =         0.00000000
  -V(xc)+E(xc)   XCENC  =       122.25076300
  PAW double counting   =     16902.82091338   -16883.36442999
  entropy T*S    EENTRO =        -0.00000000
  eigenvalues    EBANDS =      -609.40930109
  atomic energy  EATOM  =      2069.79543420
  ---------------------------------------------------
  free energy    TOTEN  =       -68.41408642 eV

  energy without entropy =      -68.41408642  energy(sigma->0) =      -68.41408642


--------------------------------------------------------------------------------------------------------




--------------------------------------- Iteration      1(  16)  ---------------------------------------


    POTLOK:  cpu time     12.3246: real time     12.3280
    SETDIJ:  cpu time      0.0699: real time      0.0699
    TRIAL :  cpu time      4.9444: real time      4.9467
    CORREC:  cpu time     15.9695: real time     15.9738
    CHARGE:  cpu time      2.4039: real time      2.4049
    --------------------------------------------
      LOOP:  cpu time     35.7255: real time     35.7538

 eigenvalue-minimisations  :     0
 total energy-change (2. order) :-0.1426797E-03  (-0.3753746E-04)
 number of electron      42.0000000 magnetization 
 augmentation part        0.0530029 magnetization 

 Free energy of the ion-electron system (eV)
  ---------------------------------------------------
  alpha Z        PSCENC =         0.49439650
  Ewald energy   TEWEN  =      3376.67105351
  -Hartree energ DENC   =     -5047.85370264
  -exchange      EXHF   =         0.00000000
  -V(xc)+E(xc)   XCENC  =       122.25633076
  PAW double counting   =     16903.30502599   -16883.84841569
  entropy T*S    EENTRO =        -0.00000000
  eigenvalues    EBANDS =      -609.23435171
  atomic energy  EATOM  =      2069.79543420
  ---------------------------------------------------
  free energy    TOTEN  =       -68.41422910 eV

  energy without entropy =      -68.41422910  energy(sigma->0) =      -68.41422910


--------------------------------------------------------------------------------------------------------




--------------------------------------- Iteration      1(  17)  ---------------------------------------


    POTLOK:  cpu time     12.4359: real time     12.4389
    SETDIJ:  cpu time      0.0698: real time      0.0698
    TRIAL :  cpu time      4.9792: real time      4.9814
    CORREC:  cpu time     16.0069: real time     16.0115
    CHARGE:  cpu time      2.4028: real time      2.4040
    --------------------------------------------
      LOOP:  cpu time     35.9087: real time     35.9366

 eigenvalue-minimisations  :     0
 total energy-change (2. order) :-0.3777174E-04  (-0.1012292E-04)
 number of electron      42.0000000 magnetization 
 augmentation part        0.0530325 magnetization 

 Free energy of the ion-electron system (eV)
  ---------------------------------------------------
  alpha Z        PSCENC =         0.49439650
  Ewald energy   TEWEN  =      3376.67105351
  -Hartree energ DENC   =     -5047.89695551
  -exchange      EXHF   =         0.00000000
  -V(xc)+E(xc)   XCENC  =       122.25815701
  PAW double counting   =     16902.57810132   -16883.12140007
  entropy T*S    EENTRO =        -0.00000000
  eigenvalues    EBANDS =      -609.19305383
  atomic energy  EATOM  =      2069.79543420
  ---------------------------------------------------
  free energy    TOTEN  =       -68.41426687 eV

  energy without entropy =      -68.41426687  energy(sigma->0) =      -68.41426687


--------------------------------------------------------------------------------------------------------




--------------------------------------- Iteration      1(  18)  ---------------------------------------


    POTLOK:  cpu time     12.2798: real time     12.2830
    SETDIJ:  cpu time      0.0698: real time      0.0699
    TRIAL :  cpu time      4.9961: real time      4.9984
    CORREC:  cpu time     15.8882: real time     15.8929
    CHARGE:  cpu time      2.4006: real time      2.4017
    --------------------------------------------
      LOOP:  cpu time     35.6653: real time     35.6766

 eigenvalue-minimisations  :     0
 total energy-change (2. order) :-0.1024844E-04  (-0.3014471E-05)
 number of electron      42.0000000 magnetization 
 augmentation part        0.0530550 magnetization 

 Free energy of the ion-electron system (eV)
  ---------------------------------------------------
  alpha Z        PSCENC =         0.49439650
  Ewald energy   TEWEN  =      3376.67105351
  -Hartree energ DENC   =     -5047.89553679
  -exchange      EXHF   =         0.00000000
  -V(xc)+E(xc)   XCENC  =       122.25832750
  PAW double counting   =     16903.16263023   -16883.70572338
  entropy T*S    EENTRO =        -0.00000000
  eigenvalues    EBANDS =      -609.19485889
  atomic energy  EATOM  =      2069.79543420
  ---------------------------------------------------
  free energy    TOTEN  =       -68.41427712 eV

  energy without entropy =      -68.41427712  energy(sigma->0) =      -68.41427712


--------------------------------------------------------------------------------------------------------




--------------------------------------- Iteration      1(  19)  ---------------------------------------


    POTLOK:  cpu time     12.2265: real time     12.2296
    SETDIJ:  cpu time      0.0699: real time      0.0699
    TRIAL :  cpu time      4.9474: real time      4.9492
    CORREC:  cpu time     15.9909: real time     15.9955
    CHARGE:  cpu time      2.4062: real time      2.4069
    --------------------------------------------
      LOOP:  cpu time     35.6534: real time     35.6812

 eigenvalue-minimisations  :     0
 total energy-change (2. order) :-0.3052761E-05  (-0.9360637E-06)
 number of electron      42.0000000 magnetization 
 augmentation part        0.0530595 magnetization 

 Free energy of the ion-electron system (eV)
  ---------------------------------------------------
  alpha Z        PSCENC =         0.49439650
  Ewald energy   TEWEN  =      3376.67105351
  -Hartree energ DENC   =     -5047.89307302
  -exchange      EXHF   =         0.00000000
  -V(xc)+E(xc)   XCENC  =       122.25865212
  PAW double counting   =     16904.92123279   -16885.46429916
  entropy T*S    EENTRO =        -0.00000000
  eigenvalues    EBANDS =      -609.19767709
  atomic energy  EATOM  =      2069.79543420
  ---------------------------------------------------
  free energy    TOTEN  =       -68.41428017 eV

  energy without entropy =      -68.41428017  energy(sigma->0) =      -68.41428017


--------------------------------------------------------------------------------------------------------




--------------------------------------- Iteration      1(  20)  ---------------------------------------


    POTLOK:  cpu time     12.2494: real time     12.2526
    SETDIJ:  cpu time      0.0697: real time      0.0698
    TRIAL :  cpu time      4.9760: real time      4.9784
    CORREC:  cpu time     15.9614: real time     15.9659
    CHARGE:  cpu time      2.4013: real time      2.4026
    --------------------------------------------
      LOOP:  cpu time     35.6727: real time     35.7001

 eigenvalue-minimisations  :     0
 total energy-change (2. order) :-0.9301202E-06  (-0.2734642E-06)
 number of electron      42.0000000 magnetization 
 augmentation part        0.0530663 magnetization 

 Free energy of the ion-electron system (eV)
  ---------------------------------------------------
  alpha Z        PSCENC =         0.49439650
  Ewald energy   TEWEN  =      3376.67105351
  -Hartree energ DENC   =     -5047.88219485
  -exchange      EXHF   =         0.00000000
  -V(xc)+E(xc)   XCENC  =       122.25835698
  PAW double counting   =     16906.78190648   -16887.32487148
  entropy T*S    EENTRO =        -0.00000000
  eigenvalues    EBANDS =      -609.20836244
  atomic energy  EATOM  =      2069.79543420
  ---------------------------------------------------
  free energy    TOTEN  =       -68.41428110 eV

  energy without entropy =      -68.41428110  energy(sigma->0) =      -68.41428110


--------------------------------------------------------------------------------------------------------




--------------------------------------- Iteration      1(  21)  ---------------------------------------


    POTLOK:  cpu time     12.2871: real time     12.2903
    SETDIJ:  cpu time      0.0708: real time      0.0708
    TRIAL :  cpu time      4.9761: real time      4.9783
    CORREC:  cpu time     15.8567: real time     15.8613
    CHARGE:  cpu time      2.4007: real time      2.4017
    --------------------------------------------
      LOOP:  cpu time     35.6050: real time     35.6333

 eigenvalue-minimisations  :     0
 total energy-change (2. order) :-0.2747638E-06  (-0.8124575E-07)
 number of electron      42.0000000 magnetization 
 augmentation part        0.0530677 magnetization 

 Free energy of the ion-electron system (eV)
  ---------------------------------------------------
  alpha Z        PSCENC =         0.49439650
  Ewald energy   TEWEN  =      3376.67105351
  -Hartree energ DENC   =     -5047.88061934
  -exchange      EXHF   =         0.00000000
  -V(xc)+E(xc)   XCENC  =       122.25839613
  PAW double counting   =     16907.88161867   -16888.42462679
  entropy T*S    EENTRO =        -0.00000000
  eigenvalues    EBANDS =      -609.20993425
  atomic energy  EATOM  =      2069.79543420
  ---------------------------------------------------
  free energy    TOTEN  =       -68.41428138 eV

  energy without entropy =      -68.41428138  energy(sigma->0) =      -68.41428138


--------------------------------------------------------------------------------------------------------




--------------------------------------- Iteration      1(  22)  ---------------------------------------


    POTLOK:  cpu time     12.2278: real time     12.2310
    SETDIJ:  cpu time      0.0698: real time      0.0698
    TRIAL :  cpu time      4.9928: real time      4.9947
    CORREC:  cpu time     15.9591: real time     15.9634
    CHARGE:  cpu time      2.4017: real time      2.4022
    --------------------------------------------
      LOOP:  cpu time     35.6676: real time     35.6919

 eigenvalue-minimisations  :     0
 total energy-change (2. order) :-0.8257848E-07  (-0.2021186E-07)
 number of electron      42.0000000 magnetization 
 augmentation part        0.0530692 magnetization 

 Free energy of the ion-electron system (eV)
  ---------------------------------------------------
  alpha Z        PSCENC =         0.49439650
  Ewald energy   TEWEN  =      3376.67105351
  -Hartree energ DENC   =     -5047.87901957
  -exchange      EXHF   =         0.00000000
  -V(xc)+E(xc)   XCENC  =       122.25831153
  PAW double counting   =     16908.25102014   -16888.79404288
  entropy T*S    EENTRO =        -0.00000000
  eigenvalues    EBANDS =      -609.21143488
  atomic energy  EATOM  =      2069.79543420
  ---------------------------------------------------
  free energy    TOTEN  =       -68.41428146 eV

  energy without entropy =      -68.41428146  energy(sigma->0) =      -68.41428146


--------------------------------------------------------------------------------------------------------




--------------------------------------- Iteration      1(  23)  ---------------------------------------


    POTLOK:  cpu time     12.2513: real time     12.2547
    SETDIJ:  cpu time      0.0704: real time      0.0706
    TRIAL :  cpu time      4.9465: real time      4.9486
    CORREC:  cpu time     15.8798: real time     15.8844
    CHARGE:  cpu time      2.4036: real time      2.4047
    --------------------------------------------
      LOOP:  cpu time     35.5834: real time     35.5950

 eigenvalue-minimisations  :     0
 total energy-change (2. order) :-0.2086381E-07  (-0.8222465E-08)
 number of electron      42.0000000 magnetization 
 augmentation part        0.0530696 magnetization 

 Free energy of the ion-electron system (eV)
  ---------------------------------------------------
  alpha Z        PSCENC =         0.49439650
  Ewald energy   TEWEN  =      3376.67105351
  -Hartree energ DENC   =     -5047.87944940
  -exchange      EXHF   =         0.00000000
  -V(xc)+E(xc)   XCENC  =       122.25832573
  PAW double counting   =     16908.28600064   -16888.82904559
  entropy T*S    EENTRO =        -0.00000000
  eigenvalues    EBANDS =      -609.21099706
  atomic energy  EATOM  =      2069.79543420
  ---------------------------------------------------
  free energy    TOTEN  =       -68.41428148 eV

  energy without entropy =      -68.41428148  energy(sigma->0) =      -68.41428148


--------------------------------------------------------------------------------------------------------




--------------------------------------- Iteration      1(  24)  ---------------------------------------


    POTLOK:  cpu time     12.2554: real time     12.2592
    SETDIJ:  cpu time      0.0697: real time      0.0697
    TRIAL :  cpu time      4.9535: real time      4.9556
    CORREC:  cpu time     15.9031: real time     15.9081
    EDDIAG:  cpu time      1.8870: real time      1.8882
    CHARGE:  cpu time      2.4066: real time      2.4073
    --------------------------------------------
      LOOP:  cpu time     37.4898: real time     37.5190

 eigenvalue-minimisations  :     0
 total energy-change (2. order) :-0.8813004E-08  (-0.6929450E-08)
 number of electron      42.0000000 magnetization 
 augmentation part        0.0530691 magnetization 

 Free energy of the ion-electron system (eV)
  ---------------------------------------------------
  alpha Z        PSCENC =         0.49439650
  Ewald energy   TEWEN  =      3376.67105351
  -Hartree energ DENC   =     -5047.87984705
  -exchange      EXHF   =         0.00000000
  -V(xc)+E(xc)   XCENC  =       122.25833115
  PAW double counting   =     16908.25381744   -16888.79687138
  entropy T*S    EENTRO =        -0.00000000
  eigenvalues    EBANDS =      -609.21059586
  atomic energy  EATOM  =      2069.79543420
  ---------------------------------------------------
  free energy    TOTEN  =       -68.41428149 eV

  energy without entropy =      -68.41428149  energy(sigma->0) =      -68.41428149


--------------------------------------------------------------------------------------------------------


  average scaling for gradient   1.9847


 average (electrostatic) potential at core
  the test charge radii are     0.5770  0.4325  0.5902  0.5955
  (the norm of the test charge is              1.0000)
       1 -91.4149       2 -90.5225       3 -88.1215       4 -89.6881       5 -50.0295
       6 -50.5914       7 -48.2993       8 -49.1343       9-106.2300      10-105.7532
      11-119.4947      12-119.6887



 E-fermi :  -6.5566     XC(G=0):  -0.2470     alpha+bet : -0.0826

 Fermi energy:        -6.5565802769

 k-point     1 :       0.0000    0.0000    0.0000
  band No.  band energies     occupation 
      1     -27.2392      2.00000
      2     -26.3771      2.00000
      3     -24.8292      2.00000
      4     -23.4649      2.00000
      5     -20.2605      2.00000
      6     -17.5697      2.00000
      7     -16.8412      2.00000
      8     -15.2888      2.00000
      9     -14.2252      2.00000
     10     -13.4258      2.00000
     11     -12.1520      2.00000
     12     -12.0967      2.00000
     13     -11.4786      2.00000
     14     -10.8087      2.00000
     15     -10.6187      2.00000
     16     -10.3082      2.00000
     17      -9.4828      2.00000
     18      -7.4241      2.00000
     19      -7.4128      2.00000
     20      -6.6659      2.00000
     21      -6.6350      2.00000
     22      -2.7564      0.00000
     23      -1.5102      0.00000
     24      -1.5043      0.00000
     25      -0.7211      0.00000
     26      -0.5617      0.00000
     27      -0.2272      0.00000
     28      -0.0535      0.00000
     29       0.0539      0.00000
     30       0.1871      0.00000
     31       0.2429      0.00000
     32       0.3255      0.00000
     33       0.3713      0.00000
     34       0.3986      0.00000
     35       0.4019      0.00000
     36       0.4255      0.00000
     37       0.4418      0.00000
     38       0.4903      0.00000
     39       0.5152      0.00000
     40       0.6185      0.00000
     41       0.6265      0.00000
     42       0.6371      0.00000
     43       0.6470      0.00000
     44       0.6581      0.00000
     45       0.7489      0.00000
     46       0.7643      0.00000
     47       0.7726      0.00000
     48       0.7835      0.00000
     49       0.8355      0.00000
     50       0.8450      0.00000
     51       0.8688      0.00000
     52       0.8896      0.00000
     53       0.9367      0.00000
     54       0.9452      0.00000
     55       0.9869      0.00000
     56       1.0204      0.00000
     57       1.0486      0.00000
     58       1.0947      0.00000
     59       1.1786      0.00000
     60       1.2004      0.00000
     61       1.2401      0.00000
     62       1.2813      0.00000
     63       1.2912      0.00000
     64       1.3229      0.00000
     65       1.3399      0.00000
     66       1.3575      0.00000
     67       1.3948      0.00000
     68       1.4096      0.00000
     69       1.4214      0.00000
     70       1.4502      0.00000
     71       1.4748      0.00000
     72       1.5057      0.00000
     73       1.5231      0.00000
     74       1.5317      0.00000
     75       1.5409      0.00000
     76       1.5491      0.00000
     77       1.5545      0.00000
     78       1.5708      0.00000
     79       1.5773      0.00000
     80       1.5889      0.00000
     81       1.5926      0.00000
     82       1.6028      0.00000
     83       1.6562      0.00000
     84       1.6575      0.00000
     85       1.6646      0.00000
     86       1.7111      0.00000
     87       1.7230      0.00000
     88       1.7231      0.00000
     89       1.7465      0.00000
     90       1.7566      0.00000
     91       1.7706      0.00000
     92       1.7902      0.00000
     93       1.8095      0.00000
     94       1.8217      0.00000
     95       1.8235      0.00000
     96       1.8410      0.00000
     97       1.8443      0.00000
     98       1.8455      0.00000
     99       1.8615      0.00000
    100       1.8667      0.00000
    101       1.8744      0.00000
    102       1.8753      0.00000
    103       1.8846      0.00000
    104       1.8864      0.00000
    105       1.9022      0.00000
    106       1.9032      0.00000
    107       1.9682      0.00000
    108       2.0326      0.00000
    109       2.0930      0.00000
    110       2.1447      0.00000
    111       2.1761      0.00000
    112       2.2215      0.00000
    113       2.2856      0.00000
    114       2.3132      0.00000
    115       2.3139      0.00000
    116       2.3177      0.00000
    117       2.3491      0.00000
    118       2.3816      0.00000
    119       2.3928      0.00000
    120       2.4229      0.00000
    121       2.4447      0.00000
    122       2.4571      0.00000
    123       2.5251      0.00000
    124       2.5453      0.00000
    125       2.5717      0.00000
    126       2.5893      0.00000
    127       2.5932      0.00000
    128       2.6050      0.00000
    129       2.6110      0.00000
    130       2.6459      0.00000
    131       2.6558      0.00000
    132       2.6805      0.00000
    133       2.7086      0.00000
    134       2.7306      0.00000
    135       2.7324      0.00000
    136       2.7596      0.00000
    137       2.7623      0.00000
    138       2.7642      0.00000
    139       2.7690      0.00000
    140       2.7713      0.00000
    141       2.7780      0.00000
    142       2.7828      0.00000
    143       2.7953      0.00000
    144       2.8026      0.00000
    145       2.8068      0.00000
[...]
      7.904453  5.980626  4.000238     0.000666    0.000293   -0.012053  
      7.054556  7.166968  3.999700    -0.000271    0.001361    0.163940  
      5.707742  7.041189  3.999480    -0.000534    0.001502   -0.097417  
      7.721175  3.902425  4.000863    -0.000044   -0.000092    0.906288  
      4.083527  5.724554  3.999582    -0.000204    0.000387    0.202336  
      7.532942  8.132821  3.999490    -0.000214    0.000465   -0.010112  
      5.039285  7.890350  3.999080    -0.000255    0.000367   -0.092225  
      5.090469  5.804646  3.999758    -0.000385    0.000862    0.122318  
      7.171353  4.754669  4.000490     0.000685   -0.001301   -0.205325  
      9.130024  5.963818  4.000474     0.000870   -0.000311   -0.056323  
      5.224562  3.499875  4.000509    -0.000435   -0.001387   -0.008849  

  23 f  =   16.594251 THz   104.264755 2PiTHz  553.524635 cm-1    68.628277 meV
             X         Y         Z           dx          dy          dz
      5.788743  4.583757  4.000276     0.001246    0.000566    0.036801  
      7.904453  5.980626  4.000238     0.000067   -0.000065   -0.236728  
      7.054556  7.166968  3.999700    -0.001164   -0.000095   -0.074804  
      5.707742  7.041189  3.999480    -0.001296   -0.000239    0.111993  
      7.721175  3.902425  4.000863     0.000466    0.000116    0.203181  
      4.083527  5.724554  3.999582     0.000203   -0.000656   -0.891696  
      7.532942  8.132821  3.999490    -0.000395    0.000044    0.140260  
      5.039285  7.890350  3.999080    -0.000545   -0.000157    0.111627  
      5.090469  5.804646  3.999758     0.000110   -0.000521    0.209382  
      7.171353  4.754669  4.000490     0.001339   -0.000159   -0.067869  
      9.130024  5.963818  4.000474     0.000051   -0.001318    0.075527  
      5.224562  3.499875  4.000509    -0.000280    0.001814    0.042021  

  24 f  =   16.237168 THz   102.021136 2PiTHz  541.613626 cm-1    67.151501 meV
             X         Y         Z           dx          dy          dz
      5.788743  4.583757  4.000276     0.353005    0.169996    0.000081  
      7.904453  5.980626  4.000238     0.018474   -0.006060    0.000972  
      7.054556  7.166968  3.999700    -0.315002   -0.047804    0.000477  
      5.707742  7.041189  3.999480    -0.352253   -0.067360   -0.000884  
      7.721175  3.902425  4.000863     0.108060    0.003877   -0.000279  
      4.083527  5.724554  3.999582     0.032478   -0.194269    0.003302  
      7.532942  8.132821  3.999490    -0.134660    0.007376   -0.000330  
      5.039285  7.890350  3.999080    -0.135335   -0.045415   -0.000605  
      5.090469  5.804646  3.999758     0.073089   -0.126976   -0.000512  
      7.171353  4.754669  4.000490     0.320463   -0.039603   -0.000012  
      9.130024  5.963818  4.000474     0.028876   -0.347441   -0.000292  
      5.224562  3.499875  4.000509    -0.108386    0.517576   -0.000802  

  25 f  =   15.739633 THz    98.895034 2PiTHz  525.017660 cm-1    65.093864 meV
             X         Y         Z           dx          dy          dz
      5.788743  4.583757  4.000276     0.091102    0.202234   -0.000266  
      7.904453  5.980626  4.000238    -0.235206   -0.414326    0.000019  
      7.054556  7.166968  3.999700    -0.055133   -0.314139    0.000022  
      5.707742  7.041189  3.999480    -0.038578    0.255015   -0.000033  
      7.721175  3.902425  4.000863    -0.055805   -0.139592    0.000492  
      4.083527  5.724554  3.999582     0.000374    0.023058    0.000132  
      7.532942  8.132821  3.999490     0.130398   -0.164790    0.000250  
      5.039285  7.890350  3.999080     0.034060    0.108886   -0.000020  
      5.090469  5.804646  3.999758    -0.011867    0.228218   -0.000026  
      7.171353  4.754669  4.000490     0.083855   -0.333235   -0.000080  
      9.130024  5.963818  4.000474    -0.277338    0.241523   -0.000068  
      5.224562  3.499875  4.000509     0.389286    0.134786   -0.000204  

  26 f  =   15.281323 THz    96.015384 2PiTHz  509.730067 cm-1    63.198445 meV
             X         Y         Z           dx          dy          dz
      5.788743  4.583757  4.000276     0.196285   -0.233138   -0.000043  
      7.904453  5.980626  4.000238    -0.348347    0.094850   -0.000149  
      7.054556  7.166968  3.999700     0.045905    0.365277    0.000005  
      5.707742  7.041189  3.999480     0.108875    0.205315    0.000116  
      7.721175  3.902425  4.000863     0.131112    0.042885   -0.000579  
      4.083527  5.724554  3.999582     0.135686   -0.007244   -0.000042  
      7.532942  8.132821  3.999490     0.081801    0.070298   -0.000028  
      5.039285  7.890350  3.999080    -0.053756   -0.007032    0.000121  
      5.090469  5.804646  3.999758     0.503121   -0.009646   -0.000082  
      7.171353  4.754669  4.000490     0.034872   -0.137367    0.000030  
      9.130024  5.963818  4.000474    -0.462280   -0.145311    0.000098  
      5.224562  3.499875  4.000509    -0.116340   -0.116213    0.000301  

  27 f  =   11.609465 THz    72.944418 2PiTHz  387.250060 cm-1    48.012867 meV
             X         Y         Z           dx          dy          dz
      5.788743  4.583757  4.000276     0.000167   -0.000261   -0.115248  
      7.904453  5.980626  4.000238     0.000476   -0.000281   -0.280020  
      7.054556  7.166968  3.999700     0.000143   -0.000431   -0.399566  
      5.707742  7.041189  3.999480    -0.000003    0.000022    0.501700  
      7.721175  3.902425  4.000863     0.000079   -0.000200    0.216788  
      4.083527  5.724554  3.999582     0.000093   -0.000097    0.179304  
      7.532942  8.132821  3.999490    -0.000047   -0.000058   -0.012799  
      5.039285  7.890350  3.999080    -0.000145    0.000064    0.448082  
      5.090469  5.804646  3.999758     0.000551   -0.000278   -0.374371  
      7.171353  4.754669  4.000490     0.000545   -0.000822    0.225316  
      9.130024  5.963818  4.000474     0.000502    0.001096    0.158495  
      5.224562  3.499875  4.000509    -0.001778    0.000712    0.028509  

  28 f  =   11.203267 THz    70.392205 2PiTHz  373.700775 cm-1    46.332970 meV
             X         Y         Z           dx          dy          dz
      5.788743  4.583757  4.000276     0.016820   -0.128854    0.000453  
      7.904453  5.980626  4.000238     0.077827   -0.042180    0.000722  
      7.054556  7.166968  3.999700     0.037468   -0.137885    0.001200  
      5.707742  7.041189  3.999480     0.067682   -0.102262   -0.001067  
      7.721175  3.902425  4.000863     0.041492   -0.079966   -0.000472  
      4.083527  5.724554  3.999582     0.046885   -0.039704   -0.000563  
      7.532942  8.132821  3.999490     0.025914   -0.047772    0.000078  
      5.039285  7.890350  3.999080     0.014923   -0.033471   -0.001076  
      5.090469  5.804646  3.999758     0.170752   -0.095679    0.000988  
      7.171353  4.754669  4.000490     0.157437   -0.295530   -0.000414  
      9.130024  5.963818  4.000474     0.091494    0.610676   -0.000689  
      5.224562  3.499875  4.000509    -0.604293    0.163489   -0.000016  

  29 f  =    4.806917 THz    30.202753 2PiTHz  160.341505 cm-1    19.879804 meV
             X         Y         Z           dx          dy          dz
      5.788743  4.583757  4.000276    -0.000118   -0.000109    0.028424  
      7.904453  5.980626  4.000238    -0.000043   -0.000016   -0.064184  
      7.054556  7.166968  3.999700     0.000168   -0.000107   -0.510182  
      5.707742  7.041189  3.999480     0.000028    0.000031   -0.053465  
      7.721175  3.902425  4.000863     0.000039   -0.000012   -0.038622  
      4.083527  5.724554  3.999582    -0.000015    0.000035    0.171367  
      7.532942  8.132821  3.999490     0.000138   -0.000084   -0.261630  
      5.039285  7.890350  3.999080    -0.000002   -0.000007   -0.029186  
      5.090469  5.804646  3.999758    -0.000086    0.000291    0.622210  
      7.171353  4.754669  4.000490    -0.000120   -0.000166   -0.097358  
      9.130024  5.963818  4.000474    -0.000149    0.000046    0.374233  
      5.224562  3.499875  4.000509    -0.000380   -0.000095   -0.308373  

  30 f  =    4.104946 THz    25.792138 2PiTHz  136.926268 cm-1    16.976686 meV
             X         Y         Z           dx          dy          dz
      5.788743  4.583757  4.000276     0.000162   -0.000150    0.081071  
      7.904453  5.980626  4.000238    -0.000137    0.000242    0.072102  
      7.054556  7.166968  3.999700    -0.000104    0.000237   -0.018174  
      5.707742  7.041189  3.999480    -0.000063    0.000025   -0.031236  
      7.721175  3.902425  4.000863     0.000078    0.000104    0.151486  
      4.083527  5.724554  3.999582     0.000082   -0.000039   -0.086593  
      7.532942  8.132821  3.999490    -0.000014    0.000057   -0.062972  
      5.039285  7.890350  3.999080    -0.000038   -0.000032   -0.056070  
      5.090469  5.804646  3.999758     0.000166   -0.000103    0.115261  
      7.171353  4.754669  4.000490     0.000010    0.000289    0.737733  
      9.130024  5.963818  4.000474    -0.000070    0.000316   -0.407435  
      5.224562  3.499875  4.000509     0.000430   -0.000407   -0.475213  

  31 f  =    0.459537 THz     2.887354 2PiTHz   15.328491 cm-1     1.900490 meV
             X         Y         Z           dx          dy          dz
      5.788743  4.583757  4.000276     0.194604   -0.066432   -0.013990  
      7.904453  5.980626  4.000238    -0.042777    0.292993    0.028223  
      7.054556  7.166968  3.999700    -0.244376    0.148651    0.043241  
      5.707742  7.041189  3.999480    -0.222989   -0.080234    0.030532  
      7.721175  3.902425  4.000863     0.089630    0.075670   -0.003270  
      4.083527  5.724554  3.999582     0.000206   -0.102721   -0.001650  
      7.532942  8.132821  3.999490    -0.117856    0.066356    0.018802  
      5.039285  7.890350  3.999080    -0.105833   -0.055823    0.011944  
      5.090469  5.804646  3.999758    -0.013917   -0.199852    0.002758  
      7.171353  4.754669  4.000490     0.178773    0.182130   -0.000708  
      9.130024  5.963818  4.000474    -0.046027    0.577355    0.044230  
      5.224562  3.499875  4.000509     0.437250   -0.187342   -0.043194  

  32 f  =    0.237347 THz     1.491298 2PiTHz    7.917057 cm-1     0.981590 meV
             X         Y         Z           dx          dy          dz
      5.788743  4.583757  4.000276     0.078167    0.021062    0.371899  
      7.904453  5.980626  4.000238     0.070753    0.031831   -0.095867  
      7.054556  7.166968  3.999700     0.064522    0.027362   -0.248970  
      5.707742  7.041189  3.999480     0.065114    0.020389   -0.096425  
      7.721175  3.902425  4.000863     0.023531    0.008927    0.094505  
      4.083527  5.724554  3.999582     0.020804    0.003367    0.089816  
      7.532942  8.132821  3.999490     0.017170    0.008597   -0.139607  
      5.039285  7.890350  3.999080     0.017442    0.004812   -0.057435  
      5.090469  5.804646  3.999758     0.077372    0.018614    0.220512  
      7.171353  4.754669  4.000490     0.083433    0.030386    0.232143  
      9.130024  5.963818  4.000474     0.081816    0.044064   -0.240673  
      5.224562  3.499875  4.000509     0.096839    0.021009    0.724158  

  33 f  =    0.080595 THz     0.506394 2PiTHz    2.688362 cm-1     0.333314 meV
             X         Y         Z           dx          dy          dz
      5.788743  4.583757  4.000276     0.283807   -0.111148   -0.039844  
      7.904453  5.980626  4.000238     0.288095   -0.117172    0.118942  
      7.054556  7.166968  3.999700     0.291502   -0.114818    0.048460  
      5.707742  7.041189  3.999480     0.291122   -0.110963   -0.056585  
      7.721175  3.902425  4.000863     0.081309   -0.033694    0.032693  
      4.083527  5.724554  3.999582     0.082863   -0.030604   -0.051537  
      7.532942  8.132821  3.999490     0.084868   -0.033511    0.023684  
      5.039285  7.890350  3.999080     0.084694   -0.031472   -0.032382  
      5.090469  5.804646  3.999758     0.310316   -0.117826   -0.108036  
      7.171353  4.754669  4.000490     0.307061   -0.124284    0.072599  
      9.130024  5.963818  4.000474     0.332431   -0.139105    0.246440  
      5.224562  3.499875  4.000509     0.323735   -0.126316   -0.091020  

  34 f/i=    0.055994 THz     0.351821 2PiTHz    1.867762 cm-1     0.231573 meV
             X         Y         Z           dx          dy          dz
      5.788743  4.583757  4.000276    -0.075418   -0.086879    0.226919  
      7.904453  5.980626  4.000238    -0.083919   -0.074210    0.364577  
      7.054556  7.166968  3.999700    -0.091043   -0.079281    0.365907  
      5.707742  7.041189  3.999480    -0.090258   -0.087352    0.302203  
      7.721175  3.902425  4.000863    -0.020594   -0.021738    0.083470  
      4.083527  5.724554  3.999582    -0.023744   -0.028038    0.053969  
      7.532942  8.132821  3.999490    -0.027927   -0.022055    0.120463  
      5.039285  7.890350  3.999080    -0.027489   -0.026346    0.086373  
      5.090469  5.804646  3.999758    -0.089378   -0.098345    0.254221  
      7.171353  4.754669  4.000490    -0.082568   -0.084886    0.317138  
      9.130024  5.963818  4.000474    -0.096760   -0.077098    0.480561  
      5.224562  3.499875  4.000509    -0.079533   -0.104176    0.192648  

  35 f/i=    0.130028 THz     0.816990 2PiTHz    4.337267 cm-1     0.537752 meV
             X         Y         Z           dx          dy          dz
      5.788743  4.583757  4.000276     0.032110    0.323699    0.020152  
      7.904453  5.980626  4.000238     0.096528    0.226114    0.152419  
      7.054556  7.166968  3.999700     0.151095    0.265268    0.136251  
      5.707742  7.041189  3.999480     0.145277    0.327363    0.067215  
      7.721175  3.902425  4.000863     0.000131    0.067670    0.028778  
      4.083527  5.724554  3.999582     0.024408    0.115990   -0.011758  
      7.532942  8.132821  3.999490     0.056391    0.070198    0.051929  
      5.039285  7.890350  3.999080     0.053150    0.103301    0.015022  
      5.090469  5.804646  3.999758     0.095313    0.384157    0.011797  
      7.171353  4.754669  4.000490     0.043155    0.280741    0.098309  
      9.130024  5.963818  4.000474     0.110507    0.195690    0.243799  
      5.224562  3.499875  4.000509    -0.020290    0.403459   -0.033980  

  36 f/i=    0.379853 THz     2.386689 2PiTHz   12.670547 cm-1     1.570947 meV
             X         Y         Z           dx          dy          dz
      5.788743  4.583757  4.000276    -0.072585   -0.004241   -0.020183  
      7.904453  5.980626  4.000238    -0.082058    0.009945    0.126475  
      7.054556  7.166968  3.999700    -0.089857    0.004182   -0.281423  
      5.707742  7.041189  3.999480    -0.088957   -0.004918   -0.527498  
      7.721175  3.902425  4.000863    -0.019717    0.002494    0.147276  
      4.083527  5.724554  3.999582    -0.023103   -0.004513   -0.171501  
      7.532942  8.132821  3.999490    -0.027811    0.002138   -0.108968  
      5.039285  7.890350  3.999080    -0.027280   -0.002734   -0.239882  
      5.090469  5.804646  3.999758    -0.087074   -0.009745   -0.437488  
      7.171353  4.754669  4.000490    -0.079669    0.005374    0.247341  
      9.130024  5.963818  4.000474    -0.094649    0.021052    0.429930  
      5.224562  3.499875  4.000509    -0.075492   -0.009174    0.091358  


 ELASTIC MODULI CONTR FROM IONIC RELAXATION (kBar)
 Direction    XX          YY          ZZ          XY          YZ          ZX
 --------------------------------------------------------------------------------
 XX         -65.0511    -11.8291      0.0043     -2.6306      0.0021     -0.0118
 YY         -11.8291    -53.7419      0.0028     -4.1439      0.0149     -0.0014
 ZZ           0.0043      0.0028     -0.0002     -0.0013      0.0003      0.0001
 XY          -2.6306     -4.1439     -0.0013    -21.9178     -0.0048      0.0057
 YZ           0.0021      0.0149      0.0003     -0.0048     -0.0006     -0.0002
 ZX          -0.0118     -0.0014      0.0001      0.0057     -0.0002     -0.0001
 --------------------------------------------------------------------------------



--------------------------------------------------------------------------------------------------------


  LATTYP: Found a simple cubic cell.
 ALAT       =    22.0000000000
  
  Lattice vectors:
  
 A1 = (  22.0000000000,   0.0000000000,   0.0000000000)
 A2 = (   0.0000000000,  22.0000000000,   0.0000000000)
 A3 = (   0.0000000000,   0.0000000000,  22.0000000000)


Analysis of symmetry for initial positions (statically):
=====================================================================
 Subroutine PRICEL returns:
 Original cell was already a primitive cell.
 

 Routine SETGRP: Setting up the symmetry group for a 
 simple cubic supercell.


 Subroutine GETGRP returns: Found  1 space group operations
 (whereof  1 operations were pure point group operations)
 out of a pool of 48 trial point group operations.


The static configuration has the point symmetry C_1 .


Analysis of symmetry for dynamics (positions and initial velocities):
=====================================================================
 Subroutine PRICEL returns:
 Original cell was already a primitive cell.
 

 Routine SETGRP: Setting up the symmetry group for a 
 simple cubic supercell.


 Subroutine GETGRP returns: Found  1 space group operations
 (whereof  1 operations were pure point group operations)
 out of a pool of 48 trial point group operations.


The dynamic configuration has the point symmetry C_1 .


 Subroutine INISYM returns: Found  1 space group operations
 (whereof  1 operations are pure point group operations),
 and found     1 'primitive' translations


 KPOINTS: auto                                    

Automatic generation of k-mesh.
 Grid dimensions read from file:
 generate k-points for:    1    1    1

 Generating k-lattice:

  Cartesian coordinates                     Fractional coordinates (reciprocal lattice)
     0.045454545  0.000000000  0.000000000     1.000000000  0.000000000  0.000000000
     0.000000000  0.045454545  0.000000000     0.000000000  1.000000000  0.000000000
     0.000000000  0.000000000  0.045454545     0.000000000  0.000000000  1.000000000

  Length of vectors
     0.045454545  0.045454545  0.045454545

  Shift w.r.t. Gamma in fractional coordinates (k-lattice)
     0.000000000  0.000000000  0.000000000

 
 Subroutine IBZKPT returns following result:
 ===========================================
 
 Found      1 irreducible k-points:
 
 Following reciprocal coordinates:
            Coordinates               Weight
  0.000000  0.000000  0.000000      1.000000
 
 Following cartesian coordinates:
            Coordinates               Weight
  0.000000  0.000000  0.000000      1.000000
 
     LOOP+:  cpu time    604.9890: real time    605.4657
    4ORBIT:  cpu time      0.0000: real time      0.0000

 total amount of memory used by VASP MPI-rank0   854007. kBytes
=======================================================================

   base      :      30000. kBytes
   nonl-proj :     171343. kBytes
   fftplans  :      63753. kBytes
   grid      :     570524. kBytes
   one-center:         18. kBytes
   wavefun   :      18369. kBytes

  
  
 General timing and accounting informations for this job:
 ========================================================
  
                  Total CPU time used (sec):    42723.805
                            User time (sec):    39532.540
                          System time (sec):     3191.264
                         Elapsed time (sec):    42807.317
  
                   Maximum memory used (kb):     1584892.
                   Average memory used (kb):          N/A
  
                          Minor page faults:    132567456
                          Major page faults:          592
                 Voluntary context switches:       103124
