 vasp.6.4.1 05Apr23 (build Jun  6 2023 14:46:38) gamma-only                      
 executed on        HPECrayEX_GCC date 2024.08.21  07:17:39
 running  256 mpi-ranks, with    1 threads/rank, on    2 nodes
 distrk:  each k-point on  256 cores,    1 groups
 distr:  one band on NCORE=  64 cores,    4 groups


--------------------------------------------------------------------------------------------------------


 INCAR:
   ALGO = Conjugate
   NPAR = 4
   ISMEAR = 0
   SIGMA = 0.01
   PREC = Accurate
   EDIFF = 1E-7
   ENCUT = 1000
   ISIF = 0
   GGA = RE
   LUSE_VDW = .TRUE.
   AGGAC = 0.0000
   LASPH = .TRUE.
   LWAVE = .FALSE.
   LCHARG = .FALSE.

 POTCAR:    PAW_PBE C_h 06Feb2004                 
 POTCAR:    PAW_PBE O_h 06Feb2004                 
 -----------------------------------------------------------------------------
|                                                                             |
|               ----> ADVICE to this user running VASP <----                  |
|                                                                             |
|     You have switched on vdW-DFT.                                           |
|     This routine was written and supplied by Jiri Klimes. We recommend      |
|     that you carefully read and cite the following publications:            |
|       J. Klimes, D.R. Bowler, A. Michelides                                 |
|          J. Phys.: Cond Matt. 22 022201 (2010)                              |
|       J. Klimes, D.R. Bowler, A. Michelides                                 |
|          Phys. Rev. B. 83, 195131 (2011)                                    |
|     and references therein.                                                 |
|                                                                             |
 -----------------------------------------------------------------------------

 POTCAR:    PAW_PBE C_h 06Feb2004                 
   VRHFIN =C: s2p2                                                                                  
   LEXCH  = PE                                                                                      
   EATOM  =   147.1560 eV,   10.8157 Ry                                                             
                                                                                                    
   TITEL  = PAW_PBE C_h 06Feb2004                                                                   
   LULTRA =        F    use ultrasoft PP ?                                                          
   IUNSCR =        1    unscreen: 0-lin 1-nonlin 2-no                                               
   RPACOR =    0.800    partial core radius                                                         
   POMASS =   12.011; ZVAL   =    4.000    mass and valenz                                          
   RCORE  =    1.100    outmost cutoff radius                                                       
   RWIGS  =    1.630; RWIGS  =    0.863    wigner-seitz radius (au A)                               
   ENMAX  =  700.000; ENMIN  =  500.000 eV                                                          
   ICORE  =        2    local potential                                                             
   LCOR   =        T    correct aug charges                                                         
   LPAW   =        T    paw PP                                                                      
   EAUG   =  946.768                                                                                
   DEXC   =    0.000                                                                                
   RMAX   =    1.128    core radius for proj-oper                                                   
   RAUG   =    1.300    factor for augmentation sphere                                              
   RDEP   =    1.162    radius for radial grids                                                     
   RDEPT  =    1.088    core radius for aug-charge                                                  
                                                                                                    
   Atomic configuration                                                                             
    4 entries                                                                                       
     n  l   j            E        occ.                                                              
     1  0  0.50      -273.3789   2.0000                                                             
     2  0  0.50       -13.7508   2.0000                                                             
     2  1  0.50        -5.2854   2.0000                                                             
     3  2  1.50        -5.4423   0.0000                                                             
   Description                                                                                      
     l       E           TYP  RCUT    TYP  RCUT                                                     
     0    -13.7508458     23  1.100                                                                 
     0     -8.2022199     23  1.100                                                                 
     1     -5.2854383     23  1.100                                                                 
     1      1.1560700     23  1.100                                                                 
     2     -5.4423304      7  1.100                                                                 
  local pseudopotential read in
  partial core-charges read in
  partial kinetic energy density read in
  atomic valenz-charges read in
  non local Contribution for L=           0  read in
    real space projection operators read in
  non local Contribution for L=           0  read in
    real space projection operators read in
  non local Contribution for L=           1  read in
    real space projection operators read in
  non local Contribution for L=           1  read in
    real space projection operators read in
    PAW grid and wavefunctions read in

   number of l-projection  operators is LMAX  =           4
   number of lm-projection operators is LMMAX =           8

 POTCAR:    PAW_PBE O_h 06Feb2004                 
   VRHFIN =O: s2p4                                                                                  
   LEXCH  = PE                                                                                      
   EATOM  =   432.3788 eV,   31.7789 Ry                                                             
                                                                                                    
   TITEL  = PAW_PBE O_h 06Feb2004                                                                   
   LULTRA =        F    use ultrasoft PP ?                                                          
   IUNSCR =        1    unscreen: 0-lin 1-nonlin 2-no                                               
   RPACOR =    0.800    partial core radius                                                         
   POMASS =   16.000; ZVAL   =    6.000    mass and valenz                                          
   RCORE  =    1.100    outmost cutoff radius                                                       
   RWIGS  =    1.400; RWIGS  =    0.741    wigner-seitz radius (au A)                               
   ENMAX  =  700.000; ENMIN  =  500.000 eV                                                          
   ICORE  =        2    local potential                                                             
   LCOR   =        T    correct aug charges                                                         
   LPAW   =        T    paw PP                                                                      
   EAUG   =  888.804                                                                                
   DEXC   =    0.000                                                                                
   RMAX   =    1.128    core radius for proj-oper                                                   
   RAUG   =    1.300    factor for augmentation sphere                                              
   RDEP   =    1.125    radius for radial grids                                                     
   RDEPT  =    1.088    core radius for aug-charge                                                  
                                                                                                    
   Atomic configuration                                                                             
    4 entries                                                                                       
     n  l   j            E        occ.                                                              
     1  0  0.50      -514.6923   2.0000                                                             
     2  0  0.50       -23.9615   2.0000                                                             
     2  1  0.50        -9.0305   4.0000                                                             
     3  2  1.50        -9.5241   0.0000                                                             
   Description                                                                                      
     l       E           TYP  RCUT    TYP  RCUT                                                     
     0    -23.9615319     23  1.100                                                                 
     0    -25.3221145     23  1.100                                                                 
     1     -9.0304911     23  1.100                                                                 
     1     -5.4802209     23  1.100                                                                 
     2     -9.5240782      7  1.100                                                                 
  local pseudopotential read in
  partial core-charges read in
  partial kinetic energy density read in
  atomic valenz-charges read in
  non local Contribution for L=           0  read in
    real space projection operators read in
  non local Contribution for L=           0  read in
    real space projection operators read in
  non local Contribution for L=           1  read in
    real space projection operators read in
  non local Contribution for L=           1  read in
    real space projection operators read in
    PAW grid and wavefunctions read in

   number of l-projection  operators is LMAX  =           4
   number of lm-projection operators is LMMAX =           8

 -----------------------------------------------------------------------------
|                                                                             |
|               ----> ADVICE to this user running VASP <----                  |
|                                                                             |
|     You enforced a specific xc type in the INCAR file but a different       |
|     type was found in the POTCAR file.                                      |
|     I HOPE YOU KNOW WHAT YOU ARE DOING!                                     |
|                                                                             |
 -----------------------------------------------------------------------------

  PAW_PBE C_h 06Feb2004                 :
 energy of atom  1       EATOM= -147.1560
 kinetic energy error for atom=    0.0031 (will be added to EATOM!!)
  PAW_PBE O_h 06Feb2004                 :
 energy of atom  2       EATOM= -432.3788
 kinetic energy error for atom=    0.0171 (will be added to EATOM!!)


 POSCAR:  C  O
  positions in cartesian coordinates
  No initial velocities read in
 exchange correlation table for  LEXCH =       40
   RHO(1)=    0.500       N(1)  =     2000
   RHO(2)=  100.500       N(2)  =     4000

 VTST: version 4.1, (05/19/21)

 CHAIN: initializing optimizer
 
 OPT: Using VASP Dynamics algorithm
 CHAIN: Read ICHAIN            0

 POSCAR:  C  O
  positions in cartesian coordinates
  No initial velocities read in



--------------------------------------------------------------------------------------------------------


 ion  position               nearest neighbor table
   1  0.500  0.500  0.500-   3 1.17   2 1.17
   2  0.534  0.466  0.467-   1 1.17
   3  0.466  0.534  0.533-   1 1.17

  LATTYP: Found a simple cubic cell.
 ALAT       =    20.0000000000
  
  Lattice vectors:
  
 A1 = (  20.0000000000,   0.0000000000,   0.0000000000)
 A2 = (   0.0000000000,  20.0000000000,   0.0000000000)
 A3 = (   0.0000000000,   0.0000000000,  20.0000000000)


Analysis of symmetry for initial positions (statically):
=====================================================================
 Subroutine PRICEL returns:
 Original cell was already a primitive cell.
 

 Routine SETGRP: Setting up the symmetry group for a 
 simple cubic supercell.


 Subroutine GETGRP returns: Found  1 space group operations
 (whereof  1 operations were pure point group operations)
 out of a pool of 48 trial point group operations.


The static configuration has the point symmetry C_1 .


Analysis of symmetry for dynamics (positions and initial velocities):
=====================================================================
 Subroutine PRICEL returns:
 Original cell was already a primitive cell.
 

 Routine SETGRP: Setting up the symmetry group for a 
 simple cubic supercell.


 Subroutine GETGRP returns: Found  1 space group operations
 (whereof  1 operations were pure point group operations)
 out of a pool of 48 trial point group operations.


The dynamic configuration has the point symmetry C_1 .


 Subroutine INISYM returns: Found  1 space group operations
 (whereof  1 operations are pure point group operations),
 and found     1 'primitive' translations


----------------------------------------------------------------------------------------

                                     Primitive cell                                     

  volume of cell :    8000.0000

  direct lattice vectors                    reciprocal lattice vectors
    20.000000000  0.000000000  0.000000000     0.050000000  0.000000000  0.000000000
     0.000000000 20.000000000  0.000000000     0.000000000  0.050000000  0.000000000
     0.000000000  0.000000000 20.000000000     0.000000000  0.000000000  0.050000000

  length of vectors
    20.000000000 20.000000000 20.000000000     0.050000000  0.050000000  0.050000000

  position of ions in fractional coordinates (direct lattice)
     0.500030750  0.499961250  0.500081750
     0.533983250  0.466000750  0.466759750
     0.466016750  0.533999250  0.533240250

  ion indices of the primitive-cell ions
   primitive index   ion index
                 1           1
                 2           2
                 3           3

----------------------------------------------------------------------------------------



 KPOINTS: auto                                    

Automatic generation of k-mesh.
 Grid dimensions read from file:
 generate k-points for:    1    1    1

 Generating k-lattice:

  Cartesian coordinates                     Fractional coordinates (reciprocal lattice)
     0.050000000  0.000000000  0.000000000     1.000000000  0.000000000  0.000000000
     0.000000000  0.050000000  0.000000000     0.000000000  1.000000000  0.000000000
     0.000000000  0.000000000  0.050000000     0.000000000  0.000000000  1.000000000

  Length of vectors
     0.050000000  0.050000000  0.050000000

  Shift w.r.t. Gamma in fractional coordinates (k-lattice)
     0.000000000  0.000000000  0.000000000

 
 Subroutine IBZKPT returns following result:
 ===========================================
 
 Found      1 irreducible k-points:
 
 Following reciprocal coordinates:
            Coordinates               Weight
  0.000000  0.000000  0.000000      1.000000
 
 Following cartesian coordinates:
            Coordinates               Weight
  0.000000  0.000000  0.000000      1.000000
 


--------------------------------------------------------------------------------------------------------




 Dimension of arrays:
   k-points           NKPTS =      1   k-points in BZ     NKDIM =      1   number of bands    NBANDS=     12
   number of dos      NEDOS =    301   number of ions     NIONS =      3
   non local maximal  LDIM  =      4   non local SUM 2l+1 LMDIM =      8
   total plane-waves  NPLWV = ******
   max r-space proj   IRMAX =      1   max aug-charges    IRDMAX=   8641
   dimension x,y,z NGX =   210 NGY =  210 NGZ =  210
   dimension x,y,z NGXF=   420 NGYF=  420 NGZF=  420
   support grid    NGXF=   420 NGYF=  420 NGZF=  420
   ions per type =               1   2
   NGX,Y,Z   is equivalent  to a cutoff of  17.46, 17.46, 17.46 a.u.
   NGXF,Y,Z  is equivalent  to a cutoff of  34.91, 34.91, 34.91 a.u.

 SYSTEM =  unknown system                          
 POSCAR =   C  O                                   

 Startparameter for this run:
   NWRITE =      2    write-flag & timer
   PREC   = accura    normal or accurate (medium, high low for compatibility)
   ISTART =      0    job   : 0-new  1-cont  2-samecut
   ICHARG =      2    charge: 1-file 2-atom 10-const
   ISPIN  =      1    spin polarized calculation?
   LNONCOLLINEAR =      F non collinear calculations
   LSORBIT =      F    spin-orbit coupling
   INIWAV =      1    electr: 0-lowe 1-rand  2-diag
   LASPH  =      T    aspherical Exc in radial PAW
 Electronic Relaxation 1
   ENCUT  = 1000.0 eV  73.50 Ry    8.57 a.u.  51.57 51.57 51.57*2*pi/ulx,y,z
   ENINI  = 1000.0     initial cutoff
   ENAUG  =  946.8 eV  augmentation charge cutoff
   NELM   =     60;   NELMIN=  2; NELMDL= -5     # of ELM steps 
   EDIFF  = 0.1E-06   stopping-criterion for ELM
   LREAL  =      F    real-space projection
   NLSPLINE    = F    spline interpolate recip. space projectors
   LCOMPAT=      F    compatible to vasp.4.4
   GGA_COMPAT  = T    GGA compatible to vasp.4.4-vasp.4.6
   LMAXPAW     = -100 max onsite density
   LMAXMIX     =    2 max onsite mixed and CHGCAR
   VOSKOWN=      0    Vosko Wilk Nusair interpolation
   ROPT   =    0.00000   0.00000
 Ionic relaxation
   EDIFFG = 0.1E-05   stopping-criterion for IOM
   NSW    =      0    number of steps for IOM
   NBLOCK =      1;   KBLOCK =      1    inner block; outer block 
   IBRION =     -1    ionic relax: 0-MD 1-quasi-New 2-CG
   NFREE  =      0    steps in history (QN), initial steepest desc. (CG)
   ISIF   =      0    stress and relaxation
   IWAVPR =     10    prediction:  0-non 1-charg 2-wave 3-comb
   ISYM   =      2    0-nonsym 1-usesym 2-fastsym
   LCORR  =      T    Harris-Foulkes like correction to forces

   POTIM  = 0.5000    time-step for ionic-motion
   TEIN   =    0.0    initial temperature
   TEBEG  =    0.0;   TEEND  =   0.0 temperature during run
   SMASS  =  -3.00    Nose mass-parameter (am)
   estimated Nose-frequenzy (Omega)   =  0.10E-29 period in steps = 0.13E+47 mass=  -0.914E-26a.u.
   SCALEE = 1.0000    scale energy and forces
   NPACO  =    256;   APACO  = 10.0  distance and # of slots for P.C.
   PSTRESS=    0.0 pullay stress

  Mass of Ions in am
   POMASS =  12.01 16.00
  Ionic Valenz
   ZVAL   =   4.00  6.00
  Atomic Wigner-Seitz radii
   RWIGS  =  -1.00 -1.00
  virtual crystal weights 
   VCA    =   1.00  1.00
   NELECT =      16.0000    total number of electrons
   NUPDOWN=      -1.0000    fix difference up-down

 DOS related values:
   EMIN   =  10.00;   EMAX   =-10.00  energy-range for DOS
   EFERMI =   0.00;   METHOD = LEGACY      
   ISMEAR =     0;   SIGMA  =   0.01  broadening in eV -4-tet -1-fermi 0-gaus

 Electronic relaxation 2 (details)
   IALGO  =     58    algorithm
   LDIAG  =      T    sub-space diagonalisation (order eigenvalues)
   LSUBROT=      F    optimize rotation matrix (better conditioning)
   TURBO    =      0    0=normal 1=particle mesh
   IRESTART =      0    0=no restart 2=restart with 2 vectors
   NREBOOT  =      0    no. of reboots
   NMIN     =      0    reboot dimension
   EREF     =   0.00    reference energy to select bands
   IMIX   =      4    mixing-type and parameters
     AMIX     =   0.40;   BMIX     =  1.00
     AMIX_MAG =   1.60;   BMIX_MAG =  1.00
     AMIN     =   0.10
     WC   =   100.;   INIMIX=   1;  MIXPRE=   1;  MAXMIX= -45

 Intra band minimization:
   WEIMIN = 0.0000     energy-eigenvalue tresh-hold
   EBREAK =  0.21E-08  absolut break condition
   DEPER  =   0.30     relativ break condition  

   TIME   =   0.40     timestep for ELM

  volume/ion in A,a.u.               =    2666.67     17995.55
  Fermi-wavevector in a.u.,A,eV,Ry     =   0.206261  0.389778  0.578844  0.042544
  Thomas-Fermi vector in A             =   0.968418

 Write flags
   LWAVE        =      F    write WAVECAR
   LDOWNSAMPLE  =      F    k-point downsampling of WAVECAR
   LCHARG       =      F    write CHGCAR
   LVTOT        =      F    write LOCPOT, total local potential
   LVHAR        =      F    write LOCPOT, Hartree potential only
   LELF         =      F    write electronic localiz. function (ELF)
   LORBIT       =      0    0 simple, 1 ext, 2 COOP (PROOUT), +10 PAW based schemes


 Dipole corrections
   LMONO  =      F    monopole corrections only (constant potential shift)
   LDIPOL =      F    correct potential (dipole corrections)
   IDIPOL =      0    1-x, 2-y, 3-z, 4-all directions 
   EPSILON=  1.0000000 bulk dielectric constant

 Exchange correlation treatment:
   GGA     =    RE    GGA type
   LEXCH   =    40    internal setting for exchange type
   LIBXC   =     F    Libxc                    
   VOSKOWN =     0    Vosko Wilk Nusair interpolation
   LHFCALC =     F    Hartree Fock is set to
   LHFONE  =     F    Hartree Fock one center treatment
   AEXX    =    0.0000 exact exchange contribution

 vdW DFT:
   LUSE_VDW   =     T    switch on vdW DFT
   IVDW_NL    =     1    kernel type
   LSPIN_VDW  =     F    use spin-polarized vdW DFT
   Zab_VDW    =-.8491    correlation parameter
   PARAM1     =0.1234
   PARAM2     =1.0000
   PARAM3     =0.0000
   -- rVV10 --
   BPARAM     = 6.3000
   CPARAM     = 0.0093

 Linear response parameters
   LEPSILON=     F    determine dielectric tensor
   LRPA    =     F    only Hartree local field effects (RPA)
   LNABLA  =     F    use nabla operator in PAW spheres
   LVEL    =     F    velocity operator in full k-point grid
   CSHIFT  =0.1000    complex shift for real part using Kramers Kronig
   OMEGAMAX=  -1.0    maximum frequency
   DEG_THRESHOLD= 0.2000000E-02 threshold for treating states as degnerate
   RTIME   =   -0.100 relaxation time in fs
  (WPLASMAI=    0.000 imaginary part of plasma frequency in eV, 0.658/RTIME)
   DFIELD  = 0.0000000 0.0000000 0.0000000 field for delta impulse in time

  Optional k-point grid parameters
   LKPOINTS_OPT  =     F    use optional k-point grid
   KPOINTS_OPT_MODE=     1    mode for optional k-point grid

 Orbital magnetization related:
   ORBITALMAG=     F  switch on orbital magnetization
   LCHIMAG   =     F  perturbation theory with respect to B field
   DQ        =  0.001000  dq finite difference perturbation B field
   LLRAUG    =     F  two centre corrections for induced B field
   LBONE     =     F  B-component reconstruction in AE one-centre
   LVGVCALC  =     T  calculate vGv susceptibility
   LVGVAPPL  =     F  apply vGv susceptibility instead of pGv for G=0

 Random number generation:
   RANDOM_GENERATOR = DEFAULT
   PCG_SEED         = not used


--------------------------------------------------------------------------------------------------------


 Static calculation
 charge density and potential will be updated during run
 non-spin polarized calculation
 Conjugate gradient for all bands (Freysoldt, et al. PRB 79, 241103 (2009))
 preconditioned conjugated gradient                                        
 perform sub-space diagonalisation
    before iterative eigenvector-optimisation
 modified Broyden-mixing scheme, WC =      100.0
 initial mixing is a Kerker type mixing with AMIX =  0.4000 and BMIX =      1.0000
 Hartree-type preconditioning will be used
 using additional bands            4
 reciprocal scheme for non local part
 use partial core corrections
 no Harris-corrections to forces 
 use gradient corrections 
 use of overlap-Matrix (Vanderbilt PP)
 Gauss-broadening in eV      SIGMA  =   0.01


--------------------------------------------------------------------------------------------------------


  energy-cutoff  :     1000.00
  volume of cell :     8000.00
      direct lattice vectors                 reciprocal lattice vectors
    20.000000000  0.000000000  0.000000000     0.050000000  0.000000000  0.000000000
     0.000000000 20.000000000  0.000000000     0.000000000  0.050000000  0.000000000
     0.000000000  0.000000000 20.000000000     0.000000000  0.000000000  0.050000000

  length of vectors
    20.000000000 20.000000000 20.000000000     0.050000000  0.050000000  0.050000000



 k-points in units of 2pi/SCALE and weight: auto                                    
   0.00000000  0.00000000  0.00000000       1.000

 k-points in reciprocal lattice and weights: auto                                    
   0.00000000  0.00000000  0.00000000       1.000

 position of ions in fractional coordinates (direct lattice) 
   0.50003075  0.49996125  0.50008175
   0.53398325  0.46600075  0.46675975
   0.46601675  0.53399925  0.53324025

 position of ions in cartesian coordinates  (Angst):
  10.00061500  9.99922500 10.00163500
  10.67966500  9.32001500  9.33519500
   9.32033500 10.67998500 10.66480500



--------------------------------------------------------------------------------------------------------


 use parallel FFT for orbitals z direction half grid
 k-point   1 :   0.0000 0.0000 0.0000  plane waves:  287166

 maximum and minimum number of plane-waves per node :      4498     4479

 maximum number of plane-waves:    287166
 maximum index in each direction: 
   IXMAX=   51   IYMAX=   51   IZMAX=   51
   IXMIN=  -51   IYMIN=  -51   IZMIN=    0


 parallel 3D FFT for wavefunctions:
    minimum data exchange during FFTs selected (reduces bandwidth)
 parallel 3D FFT for charge:
    minimum data exchange during FFTs selected (reduces bandwidth)


 total amount of memory used by VASP MPI-rank0    73404. kBytes
=======================================================================

   base      :      30000. kBytes
   nonl-proj :        789. kBytes
   fftplans  :      15076. kBytes
   grid      :      26893. kBytes
   one-center:          1. kBytes
   wavefun   :        645. kBytes

     INWAV:  cpu time      0.0001: real time      0.0003
 Broyden mixing: mesh for mixing (old mesh)
   NGX =103   NGY =103   NGZ =103
  (NGX  =420   NGY  =420   NGZ  =420)
  gives a total of ****** points

 initial charge density was supplied:
 charge density of overlapping atoms calculated
 number of electron      16.0000000 magnetization 
 keeping initial charge density in first step


--------------------------------------------------------------------------------------------------------


 Maximum index for augmentation-charges            0 (set IRDMAX)


--------------------------------------------------------------------------------------------------------


 First call to EWALD:  gamma=   0.089
 Maximum number of real-space cells 3x 3x 3
 Maximum number of reciprocal cells 3x 3x 3

    FEWALD:  cpu time      0.0024: real time      0.0024


--------------------------------------- Ionic step        1  -------------------------------------------




--------------------------------------- Iteration      1(   1)  ---------------------------------------


vdW kernel read from vdw_kernel.bindat
  0.0000  0.2424  0.5071  0.7962  1.1119  1.4567  1.8333  2.2446  2.6937  3.1842
  3.7199  4.3049  4.9438  5.6415  6.4036  7.2358  8.1446  9.1372 10.2212 11.4050
 12.6979 14.1099 15.6519 17.3360 19.1751 21.1837 23.3773 25.7729 28.3892 31.2465
 34.3669 37.7748 41.4965 45.5611 50.0000

    POTLOK:  cpu time     14.8692: real time     14.8759
    SETDIJ:  cpu time      0.0717: real time      0.0721
    TRIAL :  cpu time      0.2194: real time      0.2216
    CORREC:  cpu time      0.0016: real time      0.0016
    --------------------------------------------
      LOOP:  cpu time     15.1682: real time     15.1777

 eigenvalue-minimisations  :    32
 total energy-change (2. order) : 0.2295189E+03  (-0.3409905E+03)
 number of electron      16.0000000 magnetization 
 augmentation part       16.0000000 magnetization 

 Free energy of the ion-electron system (eV)
  ---------------------------------------------------
  alpha Z        PSCENC =         0.08964095
  Ewald energy   TEWEN  =       552.56712791
  -Hartree energ DENC   =     -1355.50156735
  -exchange      EXHF   =         0.00000000
  -V(xc)+E(xc)   XCENC  =        56.51246208
  PAW double counting   =       811.46599430     -807.75478900
  entropy T*S    EENTRO =        -0.00000000
  eigenvalues    EBANDS =       -50.26972066
  atomic energy  EATOM  =      1022.40977043
  ---------------------------------------------------
  free energy    TOTEN  =       229.51891866 eV

  energy without entropy =      229.51891866  energy(sigma->0) =      229.51891866


--------------------------------------------------------------------------------------------------------




--------------------------------------- Iteration      1(   2)  ---------------------------------------


    TRIAL :  cpu time      0.2049: real time      0.2053
    CORREC:  cpu time      0.0001: real time      0.0001
    --------------------------------------------
      LOOP:  cpu time      0.2167: real time      0.2335

 eigenvalue-minimisations  :    36
 total energy-change (2. order) :-0.8625025E+02  (-0.8533916E+02)
 number of electron      16.0000000 magnetization 
 augmentation part       16.0000000 magnetization 

 Free energy of the ion-electron system (eV)
  ---------------------------------------------------
  alpha Z        PSCENC =         0.08964095
  Ewald energy   TEWEN  =       552.56712791
  -Hartree energ DENC   =     -1355.50156735
  -exchange      EXHF   =         0.00000000
  -V(xc)+E(xc)   XCENC  =        56.51246208
  PAW double counting   =       811.46599430     -807.75478900
  entropy T*S    EENTRO =        -0.00000000
  eigenvalues    EBANDS =      -136.51997323
  atomic energy  EATOM  =      1022.40977043
  ---------------------------------------------------
  free energy    TOTEN  =       143.26866609 eV

  energy without entropy =      143.26866609  energy(sigma->0) =      143.26866609


--------------------------------------------------------------------------------------------------------




--------------------------------------- Iteration      1(   3)  ---------------------------------------


    TRIAL :  cpu time      0.2523: real time      0.2523
    CORREC:  cpu time      0.0001: real time      0.0001
    --------------------------------------------
      LOOP:  cpu time      0.2653: real time      0.2807

 eigenvalue-minimisations  :    48
 total energy-change (2. order) :-0.1192603E+03  (-0.1137518E+03)
 number of electron      16.0000000 magnetization 
 augmentation part       16.0000000 magnetization 

 Free energy of the ion-electron system (eV)
  ---------------------------------------------------
  alpha Z        PSCENC =         0.08964095
  Ewald energy   TEWEN  =       552.56712791
  -Hartree energ DENC   =     -1355.50156735
  -exchange      EXHF   =         0.00000000
  -V(xc)+E(xc)   XCENC  =        56.51246208
  PAW double counting   =       811.46599430     -807.75478900
  entropy T*S    EENTRO =        -0.00000000
  eigenvalues    EBANDS =      -255.78029816
  atomic energy  EATOM  =      1022.40977043
  ---------------------------------------------------
  free energy    TOTEN  =        24.00834116 eV

  energy without entropy =       24.00834116  energy(sigma->0) =       24.00834116


--------------------------------------------------------------------------------------------------------




--------------------------------------- Iteration      1(   4)  ---------------------------------------


    TRIAL :  cpu time      0.1725: real time      0.1725
    CORREC:  cpu time      0.0001: real time      0.0001
    --------------------------------------------
      LOOP:  cpu time      0.2013: real time      0.2019

 eigenvalue-minimisations  :    28
 total energy-change (2. order) :-0.3877979E+02  (-0.3862177E+02)
 number of electron      16.0000000 magnetization 
 augmentation part       16.0000000 magnetization 

 Free energy of the ion-electron system (eV)
  ---------------------------------------------------
  alpha Z        PSCENC =         0.08964095
  Ewald energy   TEWEN  =       552.56712791
  -Hartree energ DENC   =     -1355.50156735
  -exchange      EXHF   =         0.00000000
  -V(xc)+E(xc)   XCENC  =        56.51246208
  PAW double counting   =       811.46599430     -807.75478900
  entropy T*S    EENTRO =        -0.00000000
  eigenvalues    EBANDS =      -294.56008914
  atomic energy  EATOM  =      1022.40977043
  ---------------------------------------------------
  free energy    TOTEN  =       -14.77144982 eV

  energy without entropy =      -14.77144982  energy(sigma->0) =      -14.77144982


--------------------------------------------------------------------------------------------------------




--------------------------------------- Iteration      1(   5)  ---------------------------------------


    TRIAL :  cpu time      0.1889: real time      0.1889
    CORREC:  cpu time      0.0001: real time      0.0001
    CHARGE:  cpu time      0.0576: real time      0.0583
    --------------------------------------------
      LOOP:  cpu time      0.2600: real time      0.2760

 eigenvalue-minimisations  :    32
 total energy-change (2. order) :-0.4305594E+01  (-0.4279339E+01)
 number of electron      16.0000000 magnetization 
 augmentation part        0.1313397 magnetization 

 Free energy of the ion-electron system (eV)
  ---------------------------------------------------
  alpha Z        PSCENC =         0.08964095
  Ewald energy   TEWEN  =       552.56712791
  -Hartree energ DENC   =     -1355.50156735
  -exchange      EXHF   =         0.00000000
  -V(xc)+E(xc)   XCENC  =        56.51246208
  PAW double counting   =       811.46599430     -807.75478900
  entropy T*S    EENTRO =        -0.00000000
  eigenvalues    EBANDS =      -298.86568297
  atomic energy  EATOM  =      1022.40977043
  ---------------------------------------------------
  free energy    TOTEN  =       -19.07704364 eV

  energy without entropy =      -19.07704364  energy(sigma->0) =      -19.07704364


--------------------------------------------------------------------------------------------------------




--------------------------------------- Iteration      1(   6)  ---------------------------------------


    POTLOK:  cpu time     14.2971: real time     14.3010
    SETDIJ:  cpu time      0.0647: real time      0.0647
    TRIAL :  cpu time      0.1184: real time      0.1196
    CORREC:  cpu time     14.3594: real time     14.3644
    CHARGE:  cpu time      0.0501: real time      0.0501
    --------------------------------------------
      LOOP:  cpu time     28.9046: real time     28.9311

 eigenvalue-minimisations  :     0
 total energy-change (2. order) : 0.4644135E+01  (-0.2333991E+01)
 number of electron      16.0000000 magnetization 
 augmentation part        0.0889143 magnetization 

 Free energy of the ion-electron system (eV)
  ---------------------------------------------------
  alpha Z        PSCENC =         0.08964095
  Ewald energy   TEWEN  =       552.56712791
  -Hartree energ DENC   =     -1443.42321035
  -exchange      EXHF   =         0.00000000
  -V(xc)+E(xc)   XCENC  =        61.49878869
  PAW double counting   =      8775.81277359    -8773.34139502
  entropy T*S    EENTRO =        -0.00000000
  eigenvalues    EBANDS =      -210.04640493
  atomic energy  EATOM  =      1022.40977043
  ---------------------------------------------------
  free energy    TOTEN  =       -14.43290872 eV

  energy without entropy =      -14.43290872  energy(sigma->0) =      -14.43290872


--------------------------------------------------------------------------------------------------------




--------------------------------------- Iteration      1(   7)  ---------------------------------------


    POTLOK:  cpu time     14.3138: real time     14.3181
    SETDIJ:  cpu time      0.0647: real time      0.0647
    TRIAL :  cpu time      0.1020: real time      0.1020
    CORREC:  cpu time     14.4725: real time     14.4766
    CHARGE:  cpu time      0.0500: real time      0.0500
    --------------------------------------------
      LOOP:  cpu time     29.0324: real time     29.0412

 eigenvalue-minimisations  :     0
 total energy-change (2. order) :-0.2361385E+01  (-0.2863165E+00)
 number of electron      16.0000000 magnetization 
 augmentation part        0.0649757 magnetization 

 Free energy of the ion-electron system (eV)
  ---------------------------------------------------
  alpha Z        PSCENC =         0.08964095
  Ewald energy   TEWEN  =       552.56712791
  -Hartree energ DENC   =     -1393.66160858
  -exchange      EXHF   =         0.00000000
  -V(xc)+E(xc)   XCENC  =        58.75312285
  PAW double counting   =     10658.82941790   -10655.80817354
  entropy T*S    EENTRO =        -0.00000000
  eigenvalues    EBANDS =      -259.97359138
  atomic energy  EATOM  =      1022.40977043
  ---------------------------------------------------
  free energy    TOTEN  =       -16.79429346 eV

  energy without entropy =      -16.79429346  energy(sigma->0) =      -16.79429346


--------------------------------------------------------------------------------------------------------




--------------------------------------- Iteration      1(   8)  ---------------------------------------


    POTLOK:  cpu time     14.3215: real time     14.3261
    SETDIJ:  cpu time      0.0660: real time      0.0660
    TRIAL :  cpu time      0.1016: real time      0.1016
    CORREC:  cpu time     14.4536: real time     14.4578
    CHARGE:  cpu time      0.0490: real time      0.0490
    --------------------------------------------
      LOOP:  cpu time     29.0044: real time     29.0298

 eigenvalue-minimisations  :     0
 total energy-change (2. order) :-0.2862567E+00  (-0.1113608E+00)
 number of electron      16.0000000 magnetization 
 augmentation part        0.0605099 magnetization 

 Free energy of the ion-electron system (eV)
  ---------------------------------------------------
  alpha Z        PSCENC =         0.08964095
  Ewald energy   TEWEN  =       552.56712791
  -Hartree energ DENC   =     -1397.18475547
  -exchange      EXHF   =         0.00000000
  -V(xc)+E(xc)   XCENC  =        58.81706150
  PAW double counting   =     11117.77781442   -11114.63702346
  entropy T*S    EENTRO =        -0.00000000
  eigenvalues    EBANDS =      -256.92018650
  atomic energy  EATOM  =      1022.40977043
  ---------------------------------------------------
  free energy    TOTEN  =       -17.08055021 eV

  energy without entropy =      -17.08055021  energy(sigma->0) =      -17.08055021


--------------------------------------------------------------------------------------------------------




--------------------------------------- Iteration      1(   9)  ---------------------------------------


    POTLOK:  cpu time     14.2754: real time     14.2797
    SETDIJ:  cpu time      0.0648: real time      0.0648
    TRIAL :  cpu time      0.1016: real time      0.1016
    CORREC:  cpu time     14.3913: real time     14.3951
    CHARGE:  cpu time      0.0508: real time      0.0508
    --------------------------------------------
      LOOP:  cpu time     28.8972: real time     28.9207

 eigenvalue-minimisations  :     0
 total energy-change (2. order) :-0.1115717E+00  (-0.4047614E-01)
 number of electron      16.0000000 magnetization 
 augmentation part        0.0613932 magnetization 

 Free energy of the ion-electron system (eV)
  ---------------------------------------------------
  alpha Z        PSCENC =         0.08964095
  Ewald energy   TEWEN  =       552.56712791
  -Hartree energ DENC   =     -1399.25143130
  -exchange      EXHF   =         0.00000000
  -V(xc)+E(xc)   XCENC  =        58.88371627
  PAW double counting   =     11724.13090030   -11720.96265262
  entropy T*S    EENTRO =        -0.00000000
  eigenvalues    EBANDS =      -255.05919387
  atomic energy  EATOM  =      1022.40977043
  ---------------------------------------------------
  free energy    TOTEN  =       -17.19212192 eV

  energy without entropy =      -17.19212192  energy(sigma->0) =      -17.19212192


--------------------------------------------------------------------------------------------------------




--------------------------------------- Iteration      1(  10)  ---------------------------------------


    POTLOK:  cpu time     14.3380: real time     14.3422
    SETDIJ:  cpu time      0.0648: real time      0.0648
    TRIAL :  cpu time      0.1018: real time      0.1018
    CORREC:  cpu time     14.4348: real time     14.4389
    CHARGE:  cpu time      0.0505: real time      0.0505
    --------------------------------------------
      LOOP:  cpu time     29.0026: real time     29.0272

 eigenvalue-minimisations  :     0
 total energy-change (2. order) :-0.4061708E-01  (-0.1344286E-01)
 number of electron      16.0000000 magnetization 
 augmentation part        0.0626261 magnetization 

 Free energy of the ion-electron system (eV)
  ---------------------------------------------------
  alpha Z        PSCENC =         0.08964095
  Ewald energy   TEWEN  =       552.56712791
  -Hartree energ DENC   =     -1397.37905774
  -exchange      EXHF   =         0.00000000
  -V(xc)+E(xc)   XCENC  =        58.79589241
  PAW double counting   =     11923.75437152   -11920.57970634
  entropy T*S    EENTRO =        -0.00000000
  eigenvalues    EBANDS =      -256.89077814
  atomic energy  EATOM  =      1022.40977043
  ---------------------------------------------------
  free energy    TOTEN  =       -17.23273900 eV

  energy without entropy =      -17.23273900  energy(sigma->0) =      -17.23273900


--------------------------------------------------------------------------------------------------------




--------------------------------------- Iteration      1(  11)  ---------------------------------------


    POTLOK:  cpu time     14.3139: real time     14.3186
    SETDIJ:  cpu time      0.0650: real time      0.0650
    TRIAL :  cpu time      0.1020: real time      0.1020
    CORREC:  cpu time     14.4466: real time     14.4510
    CHARGE:  cpu time      0.0497: real time      0.0497
    --------------------------------------------
      LOOP:  cpu time     28.9893: real time     29.0149

 eigenvalue-minimisations  :     0
 total energy-change (2. order) :-0.1351970E-01  (-0.4429794E-02)
 number of electron      16.0000000 magnetization 
 augmentation part        0.0639811 magnetization 

 Free energy of the ion-electron system (eV)
  ---------------------------------------------------
  alpha Z        PSCENC =         0.08964095
  Ewald energy   TEWEN  =       552.56712791
  -Hartree energ DENC   =     -1397.19047905
  -exchange      EXHF   =         0.00000000
  -V(xc)+E(xc)   XCENC  =        58.77962538
  PAW double counting   =     11822.31363526   -11819.14635655
  entropy T*S    EENTRO =        -0.00000000
  eigenvalues    EBANDS =      -257.06922304
  atomic energy  EATOM  =      1022.40977043
  ---------------------------------------------------
  free energy    TOTEN  =       -17.24625870 eV

  energy without entropy =      -17.24625870  energy(sigma->0) =      -17.24625870


--------------------------------------------------------------------------------------------------------




--------------------------------------- Iteration      1(  12)  ---------------------------------------


    POTLOK:  cpu time     14.3469: real time     14.3517
    SETDIJ:  cpu time      0.0649: real time      0.0649
    TRIAL :  cpu time      0.1031: real time      0.1031
    CORREC:  cpu time     14.3908: real time     14.3952
    CHARGE:  cpu time      0.0491: real time      0.0491
    --------------------------------------------
      LOOP:  cpu time     28.9848: real time     28.9944

 eigenvalue-minimisations  :     0
 total energy-change (2. order) :-0.4423580E-02  (-0.1270791E-02)
 number of electron      16.0000000 magnetization 
 augmentation part        0.0645346 magnetization 

 Free energy of the ion-electron system (eV)
  ---------------------------------------------------
  alpha Z        PSCENC =         0.08964095
  Ewald energy   TEWEN  =       552.56712791
  -Hartree energ DENC   =     -1397.63659698
  -exchange      EXHF   =         0.00000000
  -V(xc)+E(xc)   XCENC  =        58.79265447
  PAW double counting   =     11766.36574791   -11763.20684169
  entropy T*S    EENTRO =        -0.00000000
  eigenvalues    EBANDS =      -256.63218528
  atomic energy  EATOM  =      1022.40977043
  ---------------------------------------------------
  free energy    TOTEN  =       -17.25068228 eV

  energy without entropy =      -17.25068228  energy(sigma->0) =      -17.25068228


--------------------------------------------------------------------------------------------------------




--------------------------------------- Iteration      1(  13)  ---------------------------------------


    POTLOK:  cpu time     14.2675: real time     14.2717
    SETDIJ:  cpu time      0.0645: real time      0.0645
    TRIAL :  cpu time      0.1014: real time      0.1014
    CORREC:  cpu time     14.4688: real time     14.4726
    CHARGE:  cpu time      0.0499: real time      0.0499
    --------------------------------------------
      LOOP:  cpu time     28.9652: real time     28.9899

 eigenvalue-minimisations  :     0
 total energy-change (2. order) :-0.1271174E-02  (-0.3538538E-03)
 number of electron      16.0000000 magnetization 
 augmentation part        0.0646121 magnetization 

 Free energy of the ion-electron system (eV)
  ---------------------------------------------------
  alpha Z        PSCENC =         0.08964095
  Ewald energy   TEWEN  =       552.56712791
  -Hartree energ DENC   =     -1397.53981048
  -exchange      EXHF   =         0.00000000
  -V(xc)+E(xc)   XCENC  =        58.78823034
  PAW double counting   =     11751.17838256   -11748.02086370
  entropy T*S    EENTRO =        -0.00000000
  eigenvalues    EBANDS =      -256.72443147
  atomic energy  EATOM  =      1022.40977043
  ---------------------------------------------------
  free energy    TOTEN  =       -17.25195345 eV

  energy without entropy =      -17.25195345  energy(sigma->0) =      -17.25195345


--------------------------------------------------------------------------------------------------------




--------------------------------------- Iteration      1(  14)  ---------------------------------------


    POTLOK:  cpu time     14.3227: real time     14.3262
    SETDIJ:  cpu time      0.0646: real time      0.0646
    TRIAL :  cpu time      0.1018: real time      0.1018
    CORREC:  cpu time     14.4398: real time     14.4435
    CHARGE:  cpu time      0.0491: real time      0.0492
    --------------------------------------------
      LOOP:  cpu time     28.9917: real time     29.0137

 eigenvalue-minimisations  :     0
 total energy-change (2. order) :-0.3542936E-03  (-0.9499718E-04)
 number of electron      16.0000000 magnetization 
 augmentation part        0.0646529 magnetization 

 Free energy of the ion-electron system (eV)
  ---------------------------------------------------
  alpha Z        PSCENC =         0.08964095
  Ewald energy   TEWEN  =       552.56712791
  -Hartree energ DENC   =     -1397.39917315
  -exchange      EXHF   =         0.00000000
  -V(xc)+E(xc)   XCENC  =        58.78318710
  PAW double counting   =     11740.33177287   -11737.17351065
  entropy T*S    EENTRO =        -0.00000000
  eigenvalues    EBANDS =      -256.86112321
  atomic energy  EATOM  =      1022.40977043
  ---------------------------------------------------
  free energy    TOTEN  =       -17.25230775 eV

  energy without entropy =      -17.25230775  energy(sigma->0) =      -17.25230775


--------------------------------------------------------------------------------------------------------




--------------------------------------- Iteration      1(  15)  ---------------------------------------


    POTLOK:  cpu time     14.1539: real time     14.1579
    SETDIJ:  cpu time      0.0645: real time      0.0645
    TRIAL :  cpu time      0.1014: real time      0.1019
    CORREC:  cpu time     14.3204: real time     14.3248
    CHARGE:  cpu time      0.0504: real time      0.0504
    --------------------------------------------
      LOOP:  cpu time     28.7079: real time     28.7300

 eigenvalue-minimisations  :     0
 total energy-change (2. order) :-0.9491145E-04  (-0.2813749E-04)
 number of electron      16.0000000 magnetization 
 augmentation part        0.0646669 magnetization 

 Free energy of the ion-electron system (eV)
  ---------------------------------------------------
  alpha Z        PSCENC =         0.08964095
  Ewald energy   TEWEN  =       552.56712791
  -Hartree energ DENC   =     -1397.42453697
  -exchange      EXHF   =         0.00000000
  -V(xc)+E(xc)   XCENC  =        58.78466861
  PAW double counting   =     11734.38662088   -11731.22838260
  entropy T*S    EENTRO =        -0.00000000
  eigenvalues    EBANDS =      -256.83731188
  atomic energy  EATOM  =      1022.40977043
  ---------------------------------------------------
  free energy    TOTEN  =       -17.25240266 eV

  energy without entropy =      -17.25240266  energy(sigma->0) =      -17.25240266


--------------------------------------------------------------------------------------------------------




--------------------------------------- Iteration      1(  16)  ---------------------------------------


    POTLOK:  cpu time     14.2878: real time     14.2916
    SETDIJ:  cpu time      0.0647: real time      0.0647
    TRIAL :  cpu time      0.1020: real time      0.1020
    CORREC:  cpu time     14.4149: real time     14.4196
    CHARGE:  cpu time      0.0496: real time      0.0496
    --------------------------------------------
      LOOP:  cpu time     28.9330: real time     28.9566

 eigenvalue-minimisations  :     0
 total energy-change (2. order) :-0.2815486E-04  (-0.9239209E-05)
 number of electron      16.0000000 magnetization 
 augmentation part        0.0646512 magnetization 

 Free energy of the ion-electron system (eV)
  ---------------------------------------------------
  alpha Z        PSCENC =         0.08964095
  Ewald energy   TEWEN  =       552.56712791
  -Hartree energ DENC   =     -1397.42742967
  -exchange      EXHF   =         0.00000000
  -V(xc)+E(xc)   XCENC  =        58.78472823
  PAW double counting   =     11729.20076520   -11726.04255389
  entropy T*S    EENTRO =        -0.00000000
  eigenvalues    EBANDS =      -256.83447997
  atomic energy  EATOM  =      1022.40977043
  ---------------------------------------------------
  free energy    TOTEN  =       -17.25243081 eV

  energy without entropy =      -17.25243081  energy(sigma->0) =      -17.25243081


--------------------------------------------------------------------------------------------------------




--------------------------------------- Iteration      1(  17)  ---------------------------------------


    POTLOK:  cpu time     14.2141: real time     14.2186
    SETDIJ:  cpu time      0.0648: real time      0.0648
    TRIAL :  cpu time      0.1011: real time      0.1011
    CORREC:  cpu time     14.3557: real time     14.3606
    CHARGE:  cpu time      0.0497: real time      0.0498
    --------------------------------------------
      LOOP:  cpu time     28.7991: real time     28.8241

 eigenvalue-minimisations  :     0
 total energy-change (2. order) :-0.9184463E-05  (-0.3675765E-05)
 number of electron      16.0000000 magnetization 
 augmentation part        0.0646288 magnetization 

 Free energy of the ion-electron system (eV)
  ---------------------------------------------------
  alpha Z        PSCENC =         0.08964095
  Ewald energy   TEWEN  =       552.56712791
  -Hartree energ DENC   =     -1397.42385710
  -exchange      EXHF   =         0.00000000
  -V(xc)+E(xc)   XCENC  =        58.78465492
  PAW double counting   =     11723.33423903   -11720.17608004
  entropy T*S    EENTRO =        -0.00000000
  eigenvalues    EBANDS =      -256.83793610
  atomic energy  EATOM  =      1022.40977043
  ---------------------------------------------------
  free energy    TOTEN  =       -17.25244000 eV

  energy without entropy =      -17.25244000  energy(sigma->0) =      -17.25244000


--------------------------------------------------------------------------------------------------------




--------------------------------------- Iteration      1(  18)  ---------------------------------------


    POTLOK:  cpu time     14.1584: real time     14.1630
    SETDIJ:  cpu time      0.0648: real time      0.0648
    TRIAL :  cpu time      0.1018: real time      0.1018
    CORREC:  cpu time     14.3680: real time     14.3720
    CHARGE:  cpu time      0.0495: real time      0.0500
    --------------------------------------------
      LOOP:  cpu time     28.7565: real time     28.7806

 eigenvalue-minimisations  :     0
 total energy-change (2. order) :-0.3579265E-05  (-0.1476638E-05)
 number of electron      16.0000000 magnetization 
 augmentation part        0.0646069 magnetization 

 Free energy of the ion-electron system (eV)
  ---------------------------------------------------
  alpha Z        PSCENC =         0.08964095
  Ewald energy   TEWEN  =       552.56712791
  -Hartree energ DENC   =     -1397.42397138
  -exchange      EXHF   =         0.00000000
  -V(xc)+E(xc)   XCENC  =        58.78462934
  PAW double counting   =     11720.55476380   -11717.39662084
  entropy T*S    EENTRO =        -0.00000000
  eigenvalues    EBANDS =      -256.83778378
  atomic energy  EATOM  =      1022.40977043
  ---------------------------------------------------
  free energy    TOTEN  =       -17.25244358 eV

  energy without entropy =      -17.25244358  energy(sigma->0) =      -17.25244358


--------------------------------------------------------------------------------------------------------




--------------------------------------- Iteration      1(  19)  ---------------------------------------


    POTLOK:  cpu time     14.2339: real time     14.2384
    SETDIJ:  cpu time      0.0647: real time      0.0647
    TRIAL :  cpu time      0.1014: real time      0.1014
    CORREC:  cpu time     14.3818: real time     14.3862
    CHARGE:  cpu time      0.0499: real time      0.0499
    --------------------------------------------
      LOOP:  cpu time     28.8438: real time     28.8704

 eigenvalue-minimisations  :     0
 total energy-change (2. order) :-0.1388216E-05  (-0.7448323E-06)
 number of electron      16.0000000 magnetization 
 augmentation part        0.0645840 magnetization 

 Free energy of the ion-electron system (eV)
  ---------------------------------------------------
  alpha Z        PSCENC =         0.08964095
  Ewald energy   TEWEN  =       552.56712791
  -Hartree energ DENC   =     -1397.42421699
  -exchange      EXHF   =         0.00000000
  -V(xc)+E(xc)   XCENC  =        58.78458108
  PAW double counting   =     11721.51109082   -11718.35289146
  entropy T*S    EENTRO =        -0.00000000
  eigenvalues    EBANDS =      -256.83754771
  atomic energy  EATOM  =      1022.40977043
  ---------------------------------------------------
  free energy    TOTEN  =       -17.25244497 eV

  energy without entropy =      -17.25244497  energy(sigma->0) =      -17.25244497


--------------------------------------------------------------------------------------------------------




--------------------------------------- Iteration      1(  20)  ---------------------------------------


    POTLOK:  cpu time     14.2962: real time     14.3009
    SETDIJ:  cpu time      0.0649: real time      0.0649
    TRIAL :  cpu time      0.1011: real time      0.1012
    CORREC:  cpu time     14.3579: real time     14.3625
    CHARGE:  cpu time      0.0504: real time      0.0504
    --------------------------------------------
      LOOP:  cpu time     28.8875: real time     28.9095

 eigenvalue-minimisations  :     0
 total energy-change (2. order) :-0.5989586E-06  (-0.2768023E-06)
 number of electron      16.0000000 magnetization 
 augmentation part        0.0645677 magnetization 

 Free energy of the ion-electron system (eV)
  ---------------------------------------------------
  alpha Z        PSCENC =         0.08964095
  Ewald energy   TEWEN  =       552.56712791
  -Hartree energ DENC   =     -1397.42678636
  -exchange      EXHF   =         0.00000000
  -V(xc)+E(xc)   XCENC  =        58.78473520
  PAW double counting   =     11724.15623017   -11720.99794935
  entropy T*S    EENTRO =        -0.00000000
  eigenvalues    EBANDS =      -256.83521451
  atomic energy  EATOM  =      1022.40977043
  ---------------------------------------------------
  free energy    TOTEN  =       -17.25244556 eV

  energy without entropy =      -17.25244556  energy(sigma->0) =      -17.25244556


--------------------------------------------------------------------------------------------------------




--------------------------------------- Iteration      1(  21)  ---------------------------------------


    POTLOK:  cpu time     14.1502: real time     14.1551
    SETDIJ:  cpu time      0.0644: real time      0.0644
    TRIAL :  cpu time      0.1018: real time      0.1018
    CORREC:  cpu time     14.4196: real time     14.4245
    CHARGE:  cpu time      0.0496: real time      0.0496
    --------------------------------------------
      LOOP:  cpu time     28.7988: real time     28.8245

 eigenvalue-minimisations  :     0
 total energy-change (2. order) :-0.2304532E-06  (-0.1006211E-06)
 number of electron      16.0000000 magnetization 
 augmentation part        0.0645670 magnetization 

 Free energy of the ion-electron system (eV)
  ---------------------------------------------------
  alpha Z        PSCENC =         0.08964095
  Ewald energy   TEWEN  =       552.56712791
  -Hartree energ DENC   =     -1397.42415739
  -exchange      EXHF   =         0.00000000
  -V(xc)+E(xc)   XCENC  =        58.78460240
  PAW double counting   =     11725.73762764   -11722.57924821
  entropy T*S    EENTRO =        -0.00000000
  eigenvalues    EBANDS =      -256.83780952
  atomic energy  EATOM  =      1022.40977043
  ---------------------------------------------------
  free energy    TOTEN  =       -17.25244579 eV

  energy without entropy =      -17.25244579  energy(sigma->0) =      -17.25244579


--------------------------------------------------------------------------------------------------------




--------------------------------------- Iteration      1(  22)  ---------------------------------------


    POTLOK:  cpu time     14.2828: real time     14.2874
    SETDIJ:  cpu time      0.0644: real time      0.0647
    TRIAL :  cpu time      0.1020: real time      0.1020
    CORREC:  cpu time     14.4822: real time     14.4867
    EDDIAG:  cpu time      0.0518: real time      0.0520
    CHARGE:  cpu time      0.0497: real time      0.0497
    --------------------------------------------
      LOOP:  cpu time     29.0453: real time     29.0722

 eigenvalue-minimisations  :     0
 total energy-change (2. order) :-0.9657197E-07  (-0.2379540E-07)
 number of electron      16.0000000 magnetization 
 augmentation part        0.0645691 magnetization 

 Free energy of the ion-electron system (eV)
  ---------------------------------------------------
  alpha Z        PSCENC =         0.08964095
  Ewald energy   TEWEN  =       552.56712791
  -Hartree energ DENC   =     -1397.42630173
  -exchange      EXHF   =         0.00000000
  -V(xc)+E(xc)   XCENC  =        58.78470229
  PAW double counting   =     11725.75176034   -11722.59338210
  entropy T*S    EENTRO =        -0.00000000
  eigenvalues    EBANDS =      -256.83576398
  atomic energy  EATOM  =      1022.40977043
  ---------------------------------------------------
  free energy    TOTEN  =       -17.25244589 eV

  energy without entropy =      -17.25244589  energy(sigma->0) =      -17.25244589


--------------------------------------------------------------------------------------------------------


  average scaling for gradient   0.9426


 average (electrostatic) potential at core
  the test charge radii are     0.5770  0.5955
  (the norm of the test charge is              1.0000)
       1 -91.9633       2-122.1519       3-122.1539



 E-fermi :  -9.1335     XC(G=0):  -0.1266     alpha+bet : -0.0337

 Fermi energy:        -9.1334835676

 k-point     1 :       0.0000    0.0000    0.0000
  band No.  band energies     occupation 
      1     -29.3008      2.00000
      2     -28.3070      2.00000
      3     -13.9931      2.00000
      4     -12.8504      2.00000
      5     -12.7769      2.00000
      6     -12.7769      2.00000
      7      -9.2065      2.00000
      8      -9.2065      2.00000
      9      -1.3992      0.00000
     10      -0.6030      0.00000
     11      -0.6029      0.00000
     12       0.1725      0.00000


--------------------------------------------------------------------------------------------------------


 soft charge-density along one line, spin component           1
         0         1         2         3         4         5         6         7         8         9
 total charge-density along one line

 pseudopotential strength for first ion, spin component:           1
 12.910  21.731  -0.000   0.000  -0.000  -0.000   0.000  -0.000
 21.731  36.579  -0.000   0.000  -0.000  -0.000   0.000   0.000
 -0.000  -0.000  -3.248   0.004  -0.004  -5.828   0.007  -0.007
  0.000   0.000   0.004  -3.249  -0.004   0.007  -5.829  -0.007
 -0.000  -0.000  -0.004  -0.004  -3.248  -0.007  -0.007  -5.828
 -0.000  -0.000  -5.828   0.007  -0.007 -10.435   0.012  -0.012
  0.000   0.000   0.007  -5.829  -0.007   0.012 -10.436  -0.012
 -0.000   0.000  -0.007  -0.007  -5.828  -0.012  -0.012 -10.435
 total augmentation occupancy for first ion, spin component:           1
  9.956  -3.930   0.010  -0.010  -0.009  -0.005   0.005   0.004
 -3.930   1.701  -0.005   0.005   0.004   0.002  -0.002  -0.002
  0.010  -0.005   7.375   3.961  -4.049  -2.658  -1.730   1.768
 -0.010   0.005   3.961   7.197  -3.959  -1.730  -2.580   1.729
 -0.009   0.004  -4.049  -3.959   7.372   1.768   1.729  -2.657
 -0.005   0.002  -2.658  -1.730   1.768   1.004   0.749  -0.766
  0.005  -0.002  -1.730  -2.580   1.729   0.749   0.970  -0.749
  0.004  -0.002   1.768   1.729  -2.657  -0.766  -0.749   1.003


------------------------ aborting loop because EDIFF is reached ----------------------------------------


    FORLOC:  cpu time      0.0150: real time      0.0150
    FORNL :  cpu time      0.0083: real time      0.0084
    FORCOR:  cpu time     14.2807: real time     14.2861
    OFIELD:  cpu time      0.0037: real time      0.0037

 VOLUME and BASIS-vectors are now :
 -----------------------------------------------------------------------------
  energy-cutoff  :     1000.00
  volume of cell :     8000.00
      direct lattice vectors                 reciprocal lattice vectors
    20.000000000  0.000000000  0.000000000     0.050000000  0.000000000  0.000000000
     0.000000000 20.000000000  0.000000000     0.000000000  0.050000000  0.000000000
     0.000000000  0.000000000 20.000000000     0.000000000  0.000000000  0.050000000

  length of vectors
    20.000000000 20.000000000 20.000000000     0.050000000  0.050000000  0.050000000


 FORCES acting on ions:
    Electron-Ion                     Ewald-Force                    Non-Local-Force
 -----------------------------------------------------------------------------------------------
   -.359E+00 0.430E+00 -.644E+00   0.358E+00 -.427E+00 0.617E+00   0.634E-02 -.638E-02 -.466E-02
   -.165E+03 0.165E+03 0.162E+03   0.202E+03 -.202E+03 -.198E+03   -.361E+02 0.361E+02 0.354E+02
   0.166E+03 -.166E+03 -.162E+03   -.202E+03 0.202E+03 0.197E+03   0.362E+02 -.362E+02 -.352E+02
 -----------------------------------------------------------------------------------------------
   -.103E+00 0.125E+00 -.214E+00   0.000E+00 0.000E+00 0.000E+00   0.103E+00 -.125E+00 0.214E+00


 POSITION                                       TOTAL-FORCE (eV/Angst)
 -----------------------------------------------------------------------------------
     10.00062      9.99922     10.00163         0.004004     -0.002059     -0.031501
     10.67966      9.32001      9.33520         0.248626     -0.249714     -0.229336
      9.32034     10.67999     10.66480        -0.252630      0.251774      0.260836
 -----------------------------------------------------------------------------------
    total drift:                                0.000118     -0.000225      0.000325


--------------------------------------------------------------------------------------------------------



  FREE ENERGIE OF THE ION-ELECTRON SYSTEM (eV)
  ---------------------------------------------------
  free  energy   TOTEN  =       -17.25244589 eV

  energy  without entropy=      -17.25244589  energy(sigma->0) =      -17.25244589



--------------------------------------------------------------------------------------------------------


    POTLOK:  cpu time     14.2394: real time     14.2445


--------------------------------------------------------------------------------------------------------


 stress matrix after NEB project (eV)
      0.00000      0.00000      0.00000
      0.00000      0.00000      0.00000
      0.00000      0.00000      0.00000
  FORCES: max atom, RMS     0.441868    0.352622
  FORCE total and by dimension    0.610759    0.260836
  Stress total and by dimension    0.000000    0.000000
     LOOP+:  cpu time    536.2459: real time    536.7078
    4ORBIT:  cpu time      0.0000: real time      0.0000

 total amount of memory used by VASP MPI-rank0    73404. kBytes
=======================================================================

   base      :      30000. kBytes
   nonl-proj :        789. kBytes
   fftplans  :      15076. kBytes
   grid      :      26893. kBytes
   one-center:          1. kBytes
   wavefun   :        645. kBytes

  
  
 General timing and accounting informations for this job:
 ========================================================
  
                  Total CPU time used (sec):      558.492
                            User time (sec):      549.707
                          System time (sec):        8.786
                         Elapsed time (sec):      562.926
  
                   Maximum memory used (kb):      526896.
                   Average memory used (kb):          N/A
  
                          Minor page faults:       284034
                          Major page faults:          298
                 Voluntary context switches:         6395
