 vasp.6.4.1 05Apr23 (build Jun  6 2023 14:46:38) gamma-only                      
 executed on        HPECrayEX_GCC date 2024.08.21  07:27:05
 running  256 mpi-ranks, with    1 threads/rank, on    2 nodes
 distrk:  each k-point on  256 cores,    1 groups
 distr:  one band on NCORE=  64 cores,    4 groups


--------------------------------------------------------------------------------------------------------


 INCAR:
   NPAR = 4
   ALGO = Conjugate
   ISMEAR = 0
   SIGMA = 0.01
   PREC = Accurate
   EDIFF = 1E-7
   ENCUT = 1000
   ISIF = 0
   GGA = ML
   LUSE_VDW = .TRUE.
   ZAB_VDW = -1.8867
   AGGAC = 0.0000
   LASPH = .TRUE.
   SYMPREC = 1E-7
   LWAVE = .FALSE.
   LCHARG = .FALSE.

 POTCAR:    PAW_PBE C_h 06Feb2004                 
 POTCAR:    PAW_PBE O_h 06Feb2004                 
 -----------------------------------------------------------------------------
|                                                                             |
|               ----> ADVICE to this user running VASP <----                  |
|                                                                             |
|     You have switched on vdW-DFT.                                           |
|     This routine was written and supplied by Jiri Klimes. We recommend      |
|     that you carefully read and cite the following publications:            |
|       J. Klimes, D.R. Bowler, A. Michelides                                 |
|          J. Phys.: Cond Matt. 22 022201 (2010)                              |
|       J. Klimes, D.R. Bowler, A. Michelides                                 |
|          Phys. Rev. B. 83, 195131 (2011)                                    |
|     and references therein.                                                 |
|                                                                             |
 -----------------------------------------------------------------------------

 POTCAR:    PAW_PBE C_h 06Feb2004                 
   VRHFIN =C: s2p2                                                                                  
   LEXCH  = PE                                                                                      
   EATOM  =   147.1560 eV,   10.8157 Ry                                                             
                                                                                                    
   TITEL  = PAW_PBE C_h 06Feb2004                                                                   
   LULTRA =        F    use ultrasoft PP ?                                                          
   IUNSCR =        1    unscreen: 0-lin 1-nonlin 2-no                                               
   RPACOR =    0.800    partial core radius                                                         
   POMASS =   12.011; ZVAL   =    4.000    mass and valenz                                          
   RCORE  =    1.100    outmost cutoff radius                                                       
   RWIGS  =    1.630; RWIGS  =    0.863    wigner-seitz radius (au A)                               
   ENMAX  =  700.000; ENMIN  =  500.000 eV                                                          
   ICORE  =        2    local potential                                                             
   LCOR   =        T    correct aug charges                                                         
   LPAW   =        T    paw PP                                                                      
   EAUG   =  946.768                                                                                
   DEXC   =    0.000                                                                                
   RMAX   =    1.128    core radius for proj-oper                                                   
   RAUG   =    1.300    factor for augmentation sphere                                              
   RDEP   =    1.162    radius for radial grids                                                     
   RDEPT  =    1.088    core radius for aug-charge                                                  
                                                                                                    
   Atomic configuration                                                                             
    4 entries                                                                                       
     n  l   j            E        occ.                                                              
     1  0  0.50      -273.3789   2.0000                                                             
     2  0  0.50       -13.7508   2.0000                                                             
     2  1  0.50        -5.2854   2.0000                                                             
     3  2  1.50        -5.4423   0.0000                                                             
   Description                                                                                      
     l       E           TYP  RCUT    TYP  RCUT                                                     
     0    -13.7508458     23  1.100                                                                 
     0     -8.2022199     23  1.100                                                                 
     1     -5.2854383     23  1.100                                                                 
     1      1.1560700     23  1.100                                                                 
     2     -5.4423304      7  1.100                                                                 
  local pseudopotential read in
  partial core-charges read in
  partial kinetic energy density read in
  atomic valenz-charges read in
  non local Contribution for L=           0  read in
    real space projection operators read in
  non local Contribution for L=           0  read in
    real space projection operators read in
  non local Contribution for L=           1  read in
    real space projection operators read in
  non local Contribution for L=           1  read in
    real space projection operators read in
    PAW grid and wavefunctions read in

   number of l-projection  operators is LMAX  =           4
   number of lm-projection operators is LMMAX =           8

 POTCAR:    PAW_PBE O_h 06Feb2004                 
   VRHFIN =O: s2p4                                                                                  
   LEXCH  = PE                                                                                      
   EATOM  =   432.3788 eV,   31.7789 Ry                                                             
                                                                                                    
   TITEL  = PAW_PBE O_h 06Feb2004                                                                   
   LULTRA =        F    use ultrasoft PP ?                                                          
   IUNSCR =        1    unscreen: 0-lin 1-nonlin 2-no                                               
   RPACOR =    0.800    partial core radius                                                         
   POMASS =   16.000; ZVAL   =    6.000    mass and valenz                                          
   RCORE  =    1.100    outmost cutoff radius                                                       
   RWIGS  =    1.400; RWIGS  =    0.741    wigner-seitz radius (au A)                               
   ENMAX  =  700.000; ENMIN  =  500.000 eV                                                          
   ICORE  =        2    local potential                                                             
   LCOR   =        T    correct aug charges                                                         
   LPAW   =        T    paw PP                                                                      
   EAUG   =  888.804                                                                                
   DEXC   =    0.000                                                                                
   RMAX   =    1.128    core radius for proj-oper                                                   
   RAUG   =    1.300    factor for augmentation sphere                                              
   RDEP   =    1.125    radius for radial grids                                                     
   RDEPT  =    1.088    core radius for aug-charge                                                  
                                                                                                    
   Atomic configuration                                                                             
    4 entries                                                                                       
     n  l   j            E        occ.                                                              
     1  0  0.50      -514.6923   2.0000                                                             
     2  0  0.50       -23.9615   2.0000                                                             
     2  1  0.50        -9.0305   4.0000                                                             
     3  2  1.50        -9.5241   0.0000                                                             
   Description                                                                                      
     l       E           TYP  RCUT    TYP  RCUT                                                     
     0    -23.9615319     23  1.100                                                                 
     0    -25.3221145     23  1.100                                                                 
     1     -9.0304911     23  1.100                                                                 
     1     -5.4802209     23  1.100                                                                 
     2     -9.5240782      7  1.100                                                                 
  local pseudopotential read in
  partial core-charges read in
  partial kinetic energy density read in
  atomic valenz-charges read in
  non local Contribution for L=           0  read in
    real space projection operators read in
  non local Contribution for L=           0  read in
    real space projection operators read in
  non local Contribution for L=           1  read in
    real space projection operators read in
  non local Contribution for L=           1  read in
    real space projection operators read in
    PAW grid and wavefunctions read in

   number of l-projection  operators is LMAX  =           4
   number of lm-projection operators is LMMAX =           8

 -----------------------------------------------------------------------------
|                                                                             |
|               ----> ADVICE to this user running VASP <----                  |
|                                                                             |
|     You enforced a specific xc type in the INCAR file but a different       |
|     type was found in the POTCAR file.                                      |
|     I HOPE YOU KNOW WHAT YOU ARE DOING!                                     |
|                                                                             |
 -----------------------------------------------------------------------------

  PAW_PBE C_h 06Feb2004                 :
 energy of atom  1       EATOM= -147.1560
 kinetic energy error for atom=    0.0031 (will be added to EATOM!!)
  PAW_PBE O_h 06Feb2004                 :
 energy of atom  2       EATOM= -432.3788
 kinetic energy error for atom=    0.0171 (will be added to EATOM!!)


 POSCAR:  C  O
  positions in cartesian coordinates
  No initial velocities read in
 exchange correlation table for  LEXCH =       44
   RHO(1)=    0.500       N(1)  =     2000
   RHO(2)=  100.500       N(2)  =     4000

 VTST: version 4.1, (05/19/21)

 CHAIN: initializing optimizer
 
 OPT: Using VASP Dynamics algorithm
 CHAIN: Read ICHAIN            0

 POSCAR:  C  O
  positions in cartesian coordinates
  No initial velocities read in



--------------------------------------------------------------------------------------------------------


 ion  position               nearest neighbor table
   1  0.500  0.500  0.500-   3 1.17   2 1.17
   2  0.534  0.466  0.467-   1 1.17
   3  0.466  0.534  0.533-   1 1.17

  LATTYP: Found a simple cubic cell.
 ALAT       =    20.0000000000
  
  Lattice vectors:
  
 A1 = (  20.0000000000,   0.0000000000,   0.0000000000)
 A2 = (   0.0000000000,  20.0000000000,   0.0000000000)
 A3 = (   0.0000000000,   0.0000000000,  20.0000000000)


Analysis of symmetry for initial positions (statically):
=====================================================================
 Subroutine PRICEL returns:
 Original cell was already a primitive cell.
 

 Routine SETGRP: Setting up the symmetry group for a 
 simple cubic supercell.


 Subroutine GETGRP returns: Found  1 space group operations
 (whereof  1 operations were pure point group operations)
 out of a pool of 48 trial point group operations.


The static configuration has the point symmetry C_1 .


Analysis of symmetry for dynamics (positions and initial velocities):
=====================================================================
 Subroutine PRICEL returns:
 Original cell was already a primitive cell.
 

 Routine SETGRP: Setting up the symmetry group for a 
 simple cubic supercell.


 Subroutine GETGRP returns: Found  1 space group operations
 (whereof  1 operations were pure point group operations)
 out of a pool of 48 trial point group operations.


The dynamic configuration has the point symmetry C_1 .


 Subroutine INISYM returns: Found  1 space group operations
 (whereof  1 operations are pure point group operations),
 and found     1 'primitive' translations


----------------------------------------------------------------------------------------

                                     Primitive cell                                     

  volume of cell :    8000.0000

  direct lattice vectors                    reciprocal lattice vectors
    20.000000000  0.000000000  0.000000000     0.050000000  0.000000000  0.000000000
     0.000000000 20.000000000  0.000000000     0.000000000  0.050000000  0.000000000
     0.000000000  0.000000000 20.000000000     0.000000000  0.000000000  0.050000000

  length of vectors
    20.000000000 20.000000000 20.000000000     0.050000000  0.050000000  0.050000000

  position of ions in fractional coordinates (direct lattice)
     0.500030750  0.499961250  0.500081750
     0.533983250  0.466000750  0.466759750
     0.466016750  0.533999250  0.533240250

  ion indices of the primitive-cell ions
   primitive index   ion index
                 1           1
                 2           2
                 3           3

----------------------------------------------------------------------------------------



 KPOINTS: auto                                    

Automatic generation of k-mesh.
 Grid dimensions read from file:
 generate k-points for:    1    1    1

 Generating k-lattice:

  Cartesian coordinates                     Fractional coordinates (reciprocal lattice)
     0.050000000  0.000000000  0.000000000     1.000000000  0.000000000  0.000000000
     0.000000000  0.050000000  0.000000000     0.000000000  1.000000000  0.000000000
     0.000000000  0.000000000  0.050000000     0.000000000  0.000000000  1.000000000

  Length of vectors
     0.050000000  0.050000000  0.050000000

  Shift w.r.t. Gamma in fractional coordinates (k-lattice)
     0.000000000  0.000000000  0.000000000

 
 Subroutine IBZKPT returns following result:
 ===========================================
 
 Found      1 irreducible k-points:
 
 Following reciprocal coordinates:
            Coordinates               Weight
  0.000000  0.000000  0.000000      1.000000
 
 Following cartesian coordinates:
            Coordinates               Weight
  0.000000  0.000000  0.000000      1.000000
 


--------------------------------------------------------------------------------------------------------




 Dimension of arrays:
   k-points           NKPTS =      1   k-points in BZ     NKDIM =      1   number of bands    NBANDS=     12
   number of dos      NEDOS =    301   number of ions     NIONS =      3
   non local maximal  LDIM  =      4   non local SUM 2l+1 LMDIM =      8
   total plane-waves  NPLWV = ******
   max r-space proj   IRMAX =      1   max aug-charges    IRDMAX=   8641
   dimension x,y,z NGX =   210 NGY =  210 NGZ =  210
   dimension x,y,z NGXF=   420 NGYF=  420 NGZF=  420
   support grid    NGXF=   420 NGYF=  420 NGZF=  420
   ions per type =               1   2
   NGX,Y,Z   is equivalent  to a cutoff of  17.46, 17.46, 17.46 a.u.
   NGXF,Y,Z  is equivalent  to a cutoff of  34.91, 34.91, 34.91 a.u.

 SYSTEM =  unknown system                          
 POSCAR =   C  O                                   

 Startparameter for this run:
   NWRITE =      2    write-flag & timer
   PREC   = accura    normal or accurate (medium, high low for compatibility)
   ISTART =      0    job   : 0-new  1-cont  2-samecut
   ICHARG =      2    charge: 1-file 2-atom 10-const
   ISPIN  =      1    spin polarized calculation?
   LNONCOLLINEAR =      F non collinear calculations
   LSORBIT =      F    spin-orbit coupling
   INIWAV =      1    electr: 0-lowe 1-rand  2-diag
   LASPH  =      T    aspherical Exc in radial PAW
 Electronic Relaxation 1
   ENCUT  = 1000.0 eV  73.50 Ry    8.57 a.u.  51.57 51.57 51.57*2*pi/ulx,y,z
   ENINI  = 1000.0     initial cutoff
   ENAUG  =  946.8 eV  augmentation charge cutoff
   NELM   =     60;   NELMIN=  2; NELMDL= -5     # of ELM steps 
   EDIFF  = 0.1E-06   stopping-criterion for ELM
   LREAL  =      F    real-space projection
   NLSPLINE    = F    spline interpolate recip. space projectors
   LCOMPAT=      F    compatible to vasp.4.4
   GGA_COMPAT  = T    GGA compatible to vasp.4.4-vasp.4.6
   LMAXPAW     = -100 max onsite density
   LMAXMIX     =    2 max onsite mixed and CHGCAR
   VOSKOWN=      0    Vosko Wilk Nusair interpolation
   ROPT   =    0.00000   0.00000
 Ionic relaxation
   EDIFFG = 0.1E-05   stopping-criterion for IOM
   NSW    =      0    number of steps for IOM
   NBLOCK =      1;   KBLOCK =      1    inner block; outer block 
   IBRION =     -1    ionic relax: 0-MD 1-quasi-New 2-CG
   NFREE  =      0    steps in history (QN), initial steepest desc. (CG)
   ISIF   =      0    stress and relaxation
   IWAVPR =     10    prediction:  0-non 1-charg 2-wave 3-comb
   ISYM   =      2    0-nonsym 1-usesym 2-fastsym
   LCORR  =      T    Harris-Foulkes like correction to forces

   POTIM  = 0.5000    time-step for ionic-motion
   TEIN   =    0.0    initial temperature
   TEBEG  =    0.0;   TEEND  =   0.0 temperature during run
   SMASS  =  -3.00    Nose mass-parameter (am)
   estimated Nose-frequenzy (Omega)   =  0.10E-29 period in steps = 0.13E+47 mass=  -0.914E-26a.u.
   SCALEE = 1.0000    scale energy and forces
   NPACO  =    256;   APACO  = 10.0  distance and # of slots for P.C.
   PSTRESS=    0.0 pullay stress

  Mass of Ions in am
   POMASS =  12.01 16.00
  Ionic Valenz
   ZVAL   =   4.00  6.00
  Atomic Wigner-Seitz radii
   RWIGS  =  -1.00 -1.00
  virtual crystal weights 
   VCA    =   1.00  1.00
   NELECT =      16.0000    total number of electrons
   NUPDOWN=      -1.0000    fix difference up-down

 DOS related values:
   EMIN   =  10.00;   EMAX   =-10.00  energy-range for DOS
   EFERMI =   0.00;   METHOD = LEGACY      
   ISMEAR =     0;   SIGMA  =   0.01  broadening in eV -4-tet -1-fermi 0-gaus

 Electronic relaxation 2 (details)
   IALGO  =     58    algorithm
   LDIAG  =      T    sub-space diagonalisation (order eigenvalues)
   LSUBROT=      F    optimize rotation matrix (better conditioning)
   TURBO    =      0    0=normal 1=particle mesh
   IRESTART =      0    0=no restart 2=restart with 2 vectors
   NREBOOT  =      0    no. of reboots
   NMIN     =      0    reboot dimension
   EREF     =   0.00    reference energy to select bands
   IMIX   =      4    mixing-type and parameters
     AMIX     =   0.40;   BMIX     =  1.00
     AMIX_MAG =   1.60;   BMIX_MAG =  1.00
     AMIN     =   0.10
     WC   =   100.;   INIMIX=   1;  MIXPRE=   1;  MAXMIX= -45

 Intra band minimization:
   WEIMIN = 0.0000     energy-eigenvalue tresh-hold
   EBREAK =  0.21E-08  absolut break condition
   DEPER  =   0.30     relativ break condition  

   TIME   =   0.40     timestep for ELM

  volume/ion in A,a.u.               =    2666.67     17995.55
  Fermi-wavevector in a.u.,A,eV,Ry     =   0.206261  0.389778  0.578844  0.042544
  Thomas-Fermi vector in A             =   0.968418

 Write flags
   LWAVE        =      F    write WAVECAR
   LDOWNSAMPLE  =      F    k-point downsampling of WAVECAR
   LCHARG       =      F    write CHGCAR
   LVTOT        =      F    write LOCPOT, total local potential
   LVHAR        =      F    write LOCPOT, Hartree potential only
   LELF         =      F    write electronic localiz. function (ELF)
   LORBIT       =      0    0 simple, 1 ext, 2 COOP (PROOUT), +10 PAW based schemes


 Dipole corrections
   LMONO  =      F    monopole corrections only (constant potential shift)
   LDIPOL =      F    correct potential (dipole corrections)
   IDIPOL =      0    1-x, 2-y, 3-z, 4-all directions 
   EPSILON=  1.0000000 bulk dielectric constant

 Exchange correlation treatment:
   GGA     =    ML    GGA type
   LEXCH   =    44    internal setting for exchange type
   LIBXC   =     F    Libxc                    
   VOSKOWN =     0    Vosko Wilk Nusair interpolation
   LHFCALC =     F    Hartree Fock is set to
   LHFONE  =     F    Hartree Fock one center treatment
   AEXX    =    0.0000 exact exchange contribution

 vdW DFT:
   LUSE_VDW   =     T    switch on vdW DFT
   IVDW_NL    =     1    kernel type
   LSPIN_VDW  =     F    use spin-polarized vdW DFT
   Zab_VDW    =******    correlation parameter
   PARAM1     =0.1234
   PARAM2     =1.0000
   PARAM3     =0.0000
   -- rVV10 --
   BPARAM     = 6.3000
   CPARAM     = 0.0093

 Linear response parameters
   LEPSILON=     F    determine dielectric tensor
   LRPA    =     F    only Hartree local field effects (RPA)
   LNABLA  =     F    use nabla operator in PAW spheres
   LVEL    =     F    velocity operator in full k-point grid
   CSHIFT  =0.1000    complex shift for real part using Kramers Kronig
   OMEGAMAX=  -1.0    maximum frequency
   DEG_THRESHOLD= 0.2000000E-02 threshold for treating states as degnerate
   RTIME   =   -0.100 relaxation time in fs
  (WPLASMAI=    0.000 imaginary part of plasma frequency in eV, 0.658/RTIME)
   DFIELD  = 0.0000000 0.0000000 0.0000000 field for delta impulse in time

  Optional k-point grid parameters
   LKPOINTS_OPT  =     F    use optional k-point grid
   KPOINTS_OPT_MODE=     1    mode for optional k-point grid

 Orbital magnetization related:
   ORBITALMAG=     F  switch on orbital magnetization
   LCHIMAG   =     F  perturbation theory with respect to B field
   DQ        =  0.001000  dq finite difference perturbation B field
   LLRAUG    =     F  two centre corrections for induced B field
   LBONE     =     F  B-component reconstruction in AE one-centre
   LVGVCALC  =     T  calculate vGv susceptibility
   LVGVAPPL  =     F  apply vGv susceptibility instead of pGv for G=0

 Random number generation:
   RANDOM_GENERATOR = DEFAULT
   PCG_SEED         = not used


--------------------------------------------------------------------------------------------------------


 Static calculation
 charge density and potential will be updated during run
 non-spin polarized calculation
 Conjugate gradient for all bands (Freysoldt, et al. PRB 79, 241103 (2009))
 preconditioned conjugated gradient                                        
 perform sub-space diagonalisation
    before iterative eigenvector-optimisation
 modified Broyden-mixing scheme, WC =      100.0
 initial mixing is a Kerker type mixing with AMIX =  0.4000 and BMIX =      1.0000
 Hartree-type preconditioning will be used
 using additional bands            4
 reciprocal scheme for non local part
 use partial core corrections
 no Harris-corrections to forces 
 use gradient corrections 
 use of overlap-Matrix (Vanderbilt PP)
 Gauss-broadening in eV      SIGMA  =   0.01


--------------------------------------------------------------------------------------------------------


  energy-cutoff  :     1000.00
  volume of cell :     8000.00
      direct lattice vectors                 reciprocal lattice vectors
    20.000000000  0.000000000  0.000000000     0.050000000  0.000000000  0.000000000
     0.000000000 20.000000000  0.000000000     0.000000000  0.050000000  0.000000000
     0.000000000  0.000000000 20.000000000     0.000000000  0.000000000  0.050000000

  length of vectors
    20.000000000 20.000000000 20.000000000     0.050000000  0.050000000  0.050000000



 k-points in units of 2pi/SCALE and weight: auto                                    
   0.00000000  0.00000000  0.00000000       1.000

 k-points in reciprocal lattice and weights: auto                                    
   0.00000000  0.00000000  0.00000000       1.000

 position of ions in fractional coordinates (direct lattice) 
   0.50003075  0.49996125  0.50008175
   0.53398325  0.46600075  0.46675975
   0.46601675  0.53399925  0.53324025

 position of ions in cartesian coordinates  (Angst):
  10.00061500  9.99922500 10.00163500
  10.67966500  9.32001500  9.33519500
   9.32033500 10.67998500 10.66480500



--------------------------------------------------------------------------------------------------------


 use parallel FFT for orbitals z direction half grid
 k-point   1 :   0.0000 0.0000 0.0000  plane waves:  287166

 maximum and minimum number of plane-waves per node :      4498     4479

 maximum number of plane-waves:    287166
 maximum index in each direction: 
   IXMAX=   51   IYMAX=   51   IZMAX=   51
   IXMIN=  -51   IYMIN=  -51   IZMIN=    0


 parallel 3D FFT for wavefunctions:
    minimum data exchange during FFTs selected (reduces bandwidth)
 parallel 3D FFT for charge:
    minimum data exchange during FFTs selected (reduces bandwidth)


 total amount of memory used by VASP MPI-rank0    73404. kBytes
=======================================================================

   base      :      30000. kBytes
   nonl-proj :        789. kBytes
   fftplans  :      15076. kBytes
   grid      :      26893. kBytes
   one-center:          1. kBytes
   wavefun   :        645. kBytes

     INWAV:  cpu time      0.0001: real time      0.0003
 Broyden mixing: mesh for mixing (old mesh)
   NGX =103   NGY =103   NGZ =103
  (NGX  =420   NGY  =420   NGZ  =420)
  gives a total of ****** points

 initial charge density was supplied:
 charge density of overlapping atoms calculated
 number of electron      16.0000000 magnetization 
 keeping initial charge density in first step


--------------------------------------------------------------------------------------------------------


 Maximum index for augmentation-charges            0 (set IRDMAX)


--------------------------------------------------------------------------------------------------------


 First call to EWALD:  gamma=   0.089
 Maximum number of real-space cells 3x 3x 3
 Maximum number of reciprocal cells 3x 3x 3

    FEWALD:  cpu time      0.0030: real time      0.0030


--------------------------------------- Ionic step        1  -------------------------------------------




--------------------------------------- Iteration      1(   1)  ---------------------------------------


vdW kernel read from vdw_kernel.bindat
  0.0000  0.2424  0.5071  0.7962  1.1119  1.4567  1.8333  2.2446  2.6937  3.1842
  3.7199  4.3049  4.9438  5.6415  6.4036  7.2358  8.1446  9.1372 10.2212 11.4050
 12.6979 14.1099 15.6519 17.3360 19.1751 21.1837 23.3773 25.7729 28.3892 31.2465
 34.3669 37.7748 41.4965 45.5611 50.0000

    POTLOK:  cpu time     14.8099: real time     14.8179
    SETDIJ:  cpu time      0.0729: real time      0.0729
    TRIAL :  cpu time      0.2216: real time      0.2237
    CORREC:  cpu time      0.0015: real time      0.0015
    --------------------------------------------
      LOOP:  cpu time     15.1118: real time     15.1219

 eigenvalue-minimisations  :    32
 total energy-change (2. order) : 0.2311932E+03  (-0.3410828E+03)
 number of electron      16.0000000 magnetization 
 augmentation part       16.0000000 magnetization 

 Free energy of the ion-electron system (eV)
  ---------------------------------------------------
  alpha Z        PSCENC =         0.08964095
  Ewald energy   TEWEN  =       552.56712791
  -Hartree energ DENC   =     -1355.50156735
  -exchange      EXHF   =         0.00000000
  -V(xc)+E(xc)   XCENC  =        55.57000224
  PAW double counting   =       811.69278475     -809.82440165
  entropy T*S    EENTRO =        -0.00000000
  eigenvalues    EBANDS =       -51.37085267
  atomic energy  EATOM  =      1027.97048504
  ---------------------------------------------------
  free energy    TOTEN  =       231.19321922 eV

  energy without entropy =      231.19321922  energy(sigma->0) =      231.19321922


--------------------------------------------------------------------------------------------------------




--------------------------------------- Iteration      1(   2)  ---------------------------------------


    TRIAL :  cpu time      0.2057: real time      0.2057
    CORREC:  cpu time      0.0001: real time      0.0001
    --------------------------------------------
      LOOP:  cpu time      0.2195: real time      0.2372

 eigenvalue-minimisations  :    36
 total energy-change (2. order) :-0.8796226E+02  (-0.8659478E+02)
 number of electron      16.0000000 magnetization 
 augmentation part       16.0000000 magnetization 

 Free energy of the ion-electron system (eV)
  ---------------------------------------------------
  alpha Z        PSCENC =         0.08964095
  Ewald energy   TEWEN  =       552.56712791
  -Hartree energ DENC   =     -1355.50156735
  -exchange      EXHF   =         0.00000000
  -V(xc)+E(xc)   XCENC  =        55.57000224
  PAW double counting   =       811.69278475     -809.82440165
  entropy T*S    EENTRO =        -0.00000000
  eigenvalues    EBANDS =      -139.33311495
  atomic energy  EATOM  =      1027.97048504
  ---------------------------------------------------
  free energy    TOTEN  =       143.23095694 eV

  energy without entropy =      143.23095694  energy(sigma->0) =      143.23095694


--------------------------------------------------------------------------------------------------------




--------------------------------------- Iteration      1(   3)  ---------------------------------------


    TRIAL :  cpu time      0.2568: real time      0.2568
    CORREC:  cpu time      0.0001: real time      0.0001
    --------------------------------------------
      LOOP:  cpu time      0.2723: real time      0.2862

 eigenvalue-minimisations  :    48
 total energy-change (2. order) :-0.1179331E+03  (-0.1140068E+03)
 number of electron      16.0000000 magnetization 
 augmentation part       16.0000000 magnetization 

 Free energy of the ion-electron system (eV)
  ---------------------------------------------------
  alpha Z        PSCENC =         0.08964095
  Ewald energy   TEWEN  =       552.56712791
  -Hartree energ DENC   =     -1355.50156735
  -exchange      EXHF   =         0.00000000
  -V(xc)+E(xc)   XCENC  =        55.57000224
  PAW double counting   =       811.69278475     -809.82440165
  entropy T*S    EENTRO =        -0.00000000
  eigenvalues    EBANDS =      -257.26617304
  atomic energy  EATOM  =      1027.97048504
  ---------------------------------------------------
  free energy    TOTEN  =        25.29789885 eV

  energy without entropy =       25.29789885  energy(sigma->0) =       25.29789885


--------------------------------------------------------------------------------------------------------




--------------------------------------- Iteration      1(   4)  ---------------------------------------


    TRIAL :  cpu time      0.1763: real time      0.1769
    CORREC:  cpu time      0.0001: real time      0.0001
    --------------------------------------------
      LOOP:  cpu time      0.2046: real time      0.2054

 eigenvalue-minimisations  :    28
 total energy-change (2. order) :-0.3966126E+02  (-0.3943885E+02)
 number of electron      16.0000000 magnetization 
 augmentation part       16.0000000 magnetization 

 Free energy of the ion-electron system (eV)
  ---------------------------------------------------
  alpha Z        PSCENC =         0.08964095
  Ewald energy   TEWEN  =       552.56712791
  -Hartree energ DENC   =     -1355.50156735
  -exchange      EXHF   =         0.00000000
  -V(xc)+E(xc)   XCENC  =        55.57000224
  PAW double counting   =       811.69278475     -809.82440165
  entropy T*S    EENTRO =        -0.00000000
  eigenvalues    EBANDS =      -296.92742993
  atomic energy  EATOM  =      1027.97048504
  ---------------------------------------------------
  free energy    TOTEN  =       -14.36335804 eV

  energy without entropy =      -14.36335804  energy(sigma->0) =      -14.36335804


--------------------------------------------------------------------------------------------------------




--------------------------------------- Iteration      1(   5)  ---------------------------------------


    TRIAL :  cpu time      0.1907: real time      0.1907
    CORREC:  cpu time      0.0001: real time      0.0001
    CHARGE:  cpu time      0.0609: real time      0.0612
    --------------------------------------------
      LOOP:  cpu time      0.2634: real time      0.2809

 eigenvalue-minimisations  :    32
 total energy-change (2. order) :-0.5471554E+01  (-0.5457121E+01)
 number of electron      16.0000000 magnetization 
 augmentation part        0.1449251 magnetization 

 Free energy of the ion-electron system (eV)
  ---------------------------------------------------
  alpha Z        PSCENC =         0.08964095
  Ewald energy   TEWEN  =       552.56712791
  -Hartree energ DENC   =     -1355.50156735
  -exchange      EXHF   =         0.00000000
  -V(xc)+E(xc)   XCENC  =        55.57000224
  PAW double counting   =       811.69278475     -809.82440165
  entropy T*S    EENTRO =        -0.00000000
  eigenvalues    EBANDS =      -302.39898384
  atomic energy  EATOM  =      1027.97048504
  ---------------------------------------------------
  free energy    TOTEN  =       -19.83491195 eV

  energy without entropy =      -19.83491195  energy(sigma->0) =      -19.83491195


--------------------------------------------------------------------------------------------------------




--------------------------------------- Iteration      1(   6)  ---------------------------------------


    POTLOK:  cpu time     14.3002: real time     14.3048
    SETDIJ:  cpu time      0.0672: real time      0.0672
    TRIAL :  cpu time      0.1185: real time      0.1192
    CORREC:  cpu time     14.5196: real time     14.5247
    CHARGE:  cpu time      0.0500: real time      0.0500
    --------------------------------------------
      LOOP:  cpu time     29.0697: real time     29.0965

 eigenvalue-minimisations  :     0
 total energy-change (2. order) : 0.5023335E+01  (-0.2567781E+01)
 number of electron      16.0000000 magnetization 
 augmentation part        0.0983236 magnetization 

 Free energy of the ion-electron system (eV)
  ---------------------------------------------------
  alpha Z        PSCENC =         0.08964095
  Ewald energy   TEWEN  =       552.56712791
  -Hartree energ DENC   =     -1446.58299119
  -exchange      EXHF   =         0.00000000
  -V(xc)+E(xc)   XCENC  =        60.75618893
  PAW double counting   =      7469.39084248    -7469.39198830
  entropy T*S    EENTRO =        -0.00000000
  eigenvalues    EBANDS =      -209.61088276
  atomic energy  EATOM  =      1027.97048504
  ---------------------------------------------------
  free energy    TOTEN  =       -14.81157695 eV

  energy without entropy =      -14.81157695  energy(sigma->0) =      -14.81157695


--------------------------------------------------------------------------------------------------------




--------------------------------------- Iteration      1(   7)  ---------------------------------------


    POTLOK:  cpu time     14.3575: real time     14.3622
    SETDIJ:  cpu time      0.0669: real time      0.0669
    TRIAL :  cpu time      0.1026: real time      0.1026
    CORREC:  cpu time     14.3806: real time     14.3855
    CHARGE:  cpu time      0.0511: real time      0.0511
    --------------------------------------------
      LOOP:  cpu time     28.9756: real time     28.9980

 eigenvalue-minimisations  :     0
 total energy-change (2. order) :-0.2599949E+01  (-0.2836375E+00)
 number of electron      16.0000000 magnetization 
 augmentation part        0.0751135 magnetization 

 Free energy of the ion-electron system (eV)
  ---------------------------------------------------
  alpha Z        PSCENC =         0.08964095
  Ewald energy   TEWEN  =       552.56712791
  -Hartree energ DENC   =     -1393.17204503
  -exchange      EXHF   =         0.00000000
  -V(xc)+E(xc)   XCENC  =        57.80354635
  PAW double counting   =      8999.44805657    -8998.65960984
  entropy T*S    EENTRO =        -0.00000000
  eigenvalues    EBANDS =      -263.45872746
  atomic energy  EATOM  =      1027.97048504
  ---------------------------------------------------
  free energy    TOTEN  =       -17.41152551 eV

  energy without entropy =      -17.41152551  energy(sigma->0) =      -17.41152551


--------------------------------------------------------------------------------------------------------




--------------------------------------- Iteration      1(   8)  ---------------------------------------


    POTLOK:  cpu time     14.3083: real time     14.3124
    SETDIJ:  cpu time      0.0669: real time      0.0669
    TRIAL :  cpu time      0.1031: real time      0.1031
    CORREC:  cpu time     14.4679: real time     14.4725
    CHARGE:  cpu time      0.0505: real time      0.0505
    --------------------------------------------
      LOOP:  cpu time     29.0098: real time     29.0339

 eigenvalue-minimisations  :     0
 total energy-change (2. order) :-0.2836523E+00  (-0.8388214E-01)
 number of electron      16.0000000 magnetization 
 augmentation part        0.0716414 magnetization 

 Free energy of the ion-electron system (eV)
  ---------------------------------------------------
  alpha Z        PSCENC =         0.08964095
  Ewald energy   TEWEN  =       552.56712791
  -Hartree energ DENC   =     -1397.07303065
  -exchange      EXHF   =         0.00000000
  -V(xc)+E(xc)   XCENC  =        57.88644594
  PAW double counting   =      9452.07605391    -9451.15502782
  entropy T*S    EENTRO =        -0.00000000
  eigenvalues    EBANDS =      -260.05687306
  atomic energy  EATOM  =      1027.97048504
  ---------------------------------------------------
  free energy    TOTEN  =       -17.69517778 eV

  energy without entropy =      -17.69517778  energy(sigma->0) =      -17.69517778


--------------------------------------------------------------------------------------------------------




--------------------------------------- Iteration      1(   9)  ---------------------------------------


    POTLOK:  cpu time     14.3836: real time     14.3876
    SETDIJ:  cpu time      0.0670: real time      0.0670
    TRIAL :  cpu time      0.1015: real time      0.1018
    CORREC:  cpu time     14.4750: real time     14.4793
    CHARGE:  cpu time      0.0506: real time      0.0506
    --------------------------------------------
      LOOP:  cpu time     29.0920: real time     29.1154

 eigenvalue-minimisations  :     0
 total energy-change (2. order) :-0.8385978E-01  (-0.4176806E-01)
 number of electron      16.0000000 magnetization 
 augmentation part        0.0719348 magnetization 

 Free energy of the ion-electron system (eV)
  ---------------------------------------------------
  alpha Z        PSCENC =         0.08964095
  Ewald energy   TEWEN  =       552.56712791
  -Hartree energ DENC   =     -1399.74552740
  -exchange      EXHF   =         0.00000000
  -V(xc)+E(xc)   XCENC  =        57.98170240
  PAW double counting   =     10044.27203113   -10043.32867659
  entropy T*S    EENTRO =        -0.00000000
  eigenvalues    EBANDS =      -257.58582101
  atomic energy  EATOM  =      1027.97048504
  ---------------------------------------------------
  free energy    TOTEN  =       -17.77903755 eV

  energy without entropy =      -17.77903755  energy(sigma->0) =      -17.77903755


--------------------------------------------------------------------------------------------------------




--------------------------------------- Iteration      1(  10)  ---------------------------------------


    POTLOK:  cpu time     14.3075: real time     14.3116
    SETDIJ:  cpu time      0.0670: real time      0.0670
    TRIAL :  cpu time      0.1054: real time      0.1058
    CORREC:  cpu time     14.3760: real time     14.3803
    CHARGE:  cpu time      0.0509: real time      0.0509
    --------------------------------------------
      LOOP:  cpu time     28.9209: real time     28.9436

 eigenvalue-minimisations  :     0
 total energy-change (2. order) :-0.4174013E-01  (-0.1405422E-01)
 number of electron      16.0000000 magnetization 
 augmentation part        0.0726765 magnetization 

 Free energy of the ion-electron system (eV)
  ---------------------------------------------------
  alpha Z        PSCENC =         0.08964095
  Ewald energy   TEWEN  =       552.56712791
  -Hartree energ DENC   =     -1398.56605664
  -exchange      EXHF   =         0.00000000
  -V(xc)+E(xc)   XCENC  =        57.93013831
  PAW double counting   =     10431.34557955   -10430.38569232
  entropy T*S    EENTRO =        -0.00000000
  eigenvalues    EBANDS =      -258.77200050
  atomic energy  EATOM  =      1027.97048504
  ---------------------------------------------------
  free energy    TOTEN  =       -17.82077769 eV

  energy without entropy =      -17.82077769  energy(sigma->0) =      -17.82077769


--------------------------------------------------------------------------------------------------------




--------------------------------------- Iteration      1(  11)  ---------------------------------------


    POTLOK:  cpu time     14.2975: real time     14.3016
    SETDIJ:  cpu time      0.0673: real time      0.0673
    TRIAL :  cpu time      0.1023: real time      0.1023
    CORREC:  cpu time     14.5660: real time     14.5703
    CHARGE:  cpu time      0.0506: real time      0.0506
    --------------------------------------------
      LOOP:  cpu time     29.0977: real time     29.1208

 eigenvalue-minimisations  :     0
 total energy-change (2. order) :-0.1406674E-01  (-0.4880252E-02)
 number of electron      16.0000000 magnetization 
 augmentation part        0.0740722 magnetization 

 Free energy of the ion-electron system (eV)
  ---------------------------------------------------
  alpha Z        PSCENC =         0.08964095
  Ewald energy   TEWEN  =       552.56712791
  -Hartree energ DENC   =     -1397.82520231
  -exchange      EXHF   =         0.00000000
  -V(xc)+E(xc)   XCENC  =        57.89677971
  PAW double counting   =     10443.19577349   -10442.23857321
  entropy T*S    EENTRO =        -0.00000000
  eigenvalues    EBANDS =      -259.49087601
  atomic energy  EATOM  =      1027.97048504
  ---------------------------------------------------
  free energy    TOTEN  =       -17.83484443 eV

  energy without entropy =      -17.83484443  energy(sigma->0) =      -17.83484443


--------------------------------------------------------------------------------------------------------




--------------------------------------- Iteration      1(  12)  ---------------------------------------


    POTLOK:  cpu time     14.3410: real time     14.3452
    SETDIJ:  cpu time      0.0667: real time      0.0670
    TRIAL :  cpu time      0.1027: real time      0.1027
    CORREC:  cpu time     14.5065: real time     14.5109
    CHARGE:  cpu time      0.0507: real time      0.0507
    --------------------------------------------
      LOOP:  cpu time     29.0967: real time     29.1056

 eigenvalue-minimisations  :     0
 total energy-change (2. order) :-0.4878198E-02  (-0.1364101E-02)
 number of electron      16.0000000 magnetization 
 augmentation part        0.0748003 magnetization 

 Free energy of the ion-electron system (eV)
  ---------------------------------------------------
  alpha Z        PSCENC =         0.08964095
  Ewald energy   TEWEN  =       552.56712791
  -Hartree energ DENC   =     -1398.01178718
  -exchange      EXHF   =         0.00000000
  -V(xc)+E(xc)   XCENC  =        57.89922486
  PAW double counting   =     10411.07302657   -10410.12921939
  entropy T*S    EENTRO =        -0.00000000
  eigenvalues    EBANDS =      -259.29822140
  atomic energy  EATOM  =      1027.97048504
  ---------------------------------------------------
  free energy    TOTEN  =       -17.83972263 eV

  energy without entropy =      -17.83972263  energy(sigma->0) =      -17.83972263


--------------------------------------------------------------------------------------------------------




--------------------------------------- Iteration      1(  13)  ---------------------------------------


    POTLOK:  cpu time     14.3059: real time     14.3110
    SETDIJ:  cpu time      0.0670: real time      0.0670
    TRIAL :  cpu time      0.1033: real time      0.1033
    CORREC:  cpu time     14.4174: real time     14.4224
    CHARGE:  cpu time      0.0498: real time      0.0498
    --------------------------------------------
      LOOP:  cpu time     28.9563: real time     28.9820

 eigenvalue-minimisations  :     0
 total energy-change (2. order) :-0.1364493E-02  (-0.3902844E-03)
 number of electron      16.0000000 magnetization 
 augmentation part        0.0748786 magnetization 

 Free energy of the ion-electron system (eV)
  ---------------------------------------------------
  alpha Z        PSCENC =         0.08964095
  Ewald energy   TEWEN  =       552.56712791
  -Hartree energ DENC   =     -1398.08038864
  -exchange      EXHF   =         0.00000000
  -V(xc)+E(xc)   XCENC  =        57.90108627
  PAW double counting   =     10391.46329009   -10390.52544012
  entropy T*S    EENTRO =        -0.00000000
  eigenvalues    EBANDS =      -259.22688863
  atomic energy  EATOM  =      1027.97048504
  ---------------------------------------------------
  free energy    TOTEN  =       -17.84108712 eV

  energy without entropy =      -17.84108712  energy(sigma->0) =      -17.84108712


--------------------------------------------------------------------------------------------------------




--------------------------------------- Iteration      1(  14)  ---------------------------------------


    POTLOK:  cpu time     14.2101: real time     14.2145
    SETDIJ:  cpu time      0.0668: real time      0.0671
    TRIAL :  cpu time      0.1025: real time      0.1025
    CORREC:  cpu time     14.4830: real time     14.4871
    CHARGE:  cpu time      0.0500: real time      0.0500
    --------------------------------------------
      LOOP:  cpu time     28.9256: real time     28.9499

 eigenvalue-minimisations  :     0
 total energy-change (2. order) :-0.3908296E-03  (-0.1081978E-03)
 number of electron      16.0000000 magnetization 
 augmentation part        0.0747857 magnetization 

 Free energy of the ion-electron system (eV)
  ---------------------------------------------------
  alpha Z        PSCENC =         0.08964095
  Ewald energy   TEWEN  =       552.56712791
  -Hartree energ DENC   =     -1397.97293905
  -exchange      EXHF   =         0.00000000
  -V(xc)+E(xc)   XCENC  =        57.89721322
  PAW double counting   =     10374.03945231   -10373.10130166
  entropy T*S    EENTRO =        -0.00000000
  eigenvalues    EBANDS =      -259.33115666
  atomic energy  EATOM  =      1027.97048504
  ---------------------------------------------------
  free energy    TOTEN  =       -17.84147795 eV

  energy without entropy =      -17.84147795  energy(sigma->0) =      -17.84147795


--------------------------------------------------------------------------------------------------------




--------------------------------------- Iteration      1(  15)  ---------------------------------------


    POTLOK:  cpu time     14.2964: real time     14.3002
    SETDIJ:  cpu time      0.0668: real time      0.0670
    TRIAL :  cpu time      0.1032: real time      0.1032
    CORREC:  cpu time     14.3902: real time     14.3943
    CHARGE:  cpu time      0.0508: real time      0.0508
    --------------------------------------------
      LOOP:  cpu time     28.9364: real time     28.9449

 eigenvalue-minimisations  :     0
 total energy-change (2. order) :-0.1078827E-03  (-0.3354700E-04)
 number of electron      16.0000000 magnetization 
 augmentation part        0.0747144 magnetization 

 Free energy of the ion-electron system (eV)
  ---------------------------------------------------
  alpha Z        PSCENC =         0.08964095
  Ewald energy   TEWEN  =       552.56712791
  -Hartree energ DENC   =     -1397.95807951
  -exchange      EXHF   =         0.00000000
  -V(xc)+E(xc)   XCENC  =        57.89665169
  PAW double counting   =     10366.36247022   -10365.42339608
  entropy T*S    EENTRO =        -0.00000000
  eigenvalues    EBANDS =      -259.34648607
  atomic energy  EATOM  =      1027.97048504
  ---------------------------------------------------
  free energy    TOTEN  =       -17.84158583 eV

  energy without entropy =      -17.84158583  energy(sigma->0) =      -17.84158583


--------------------------------------------------------------------------------------------------------




--------------------------------------- Iteration      1(  16)  ---------------------------------------


    POTLOK:  cpu time     14.2264: real time     14.2311
    SETDIJ:  cpu time      0.0671: real time      0.0671
    TRIAL :  cpu time      0.1023: real time      0.1027
    CORREC:  cpu time     14.2981: real time     14.3024
    CHARGE:  cpu time      0.0501: real time      0.0501
    --------------------------------------------
      LOOP:  cpu time     28.7587: real time     28.7820

 eigenvalue-minimisations  :     0
 total energy-change (2. order) :-0.3330355E-04  (-0.1129828E-04)
 number of electron      16.0000000 magnetization 
 augmentation part        0.0746863 magnetization 

 Free energy of the ion-electron system (eV)
  ---------------------------------------------------
  alpha Z        PSCENC =         0.08964095
  Ewald energy   TEWEN  =       552.56712791
  -Hartree energ DENC   =     -1397.96347042
  -exchange      EXHF   =         0.00000000
  -V(xc)+E(xc)   XCENC  =        57.89664511
  PAW double counting   =     10363.45637182   -10362.51679721
  entropy T*S    EENTRO =        -0.00000000
  eigenvalues    EBANDS =      -259.34162234
  atomic energy  EATOM  =      1027.97048504
  ---------------------------------------------------
  free energy    TOTEN  =       -17.84161914 eV

  energy without entropy =      -17.84161914  energy(sigma->0) =      -17.84161914


--------------------------------------------------------------------------------------------------------




--------------------------------------- Iteration      1(  17)  ---------------------------------------


    POTLOK:  cpu time     14.3104: real time     14.3150
    SETDIJ:  cpu time      0.0669: real time      0.0669
    TRIAL :  cpu time      0.1022: real time      0.1022
    CORREC:  cpu time     14.4271: real time     14.4318
    CHARGE:  cpu time      0.0501: real time      0.0501
    --------------------------------------------
      LOOP:  cpu time     28.9698: real time     28.9954

 eigenvalue-minimisations  :     0
 total energy-change (2. order) :-0.1124857E-04  (-0.4156482E-05)
 number of electron      16.0000000 magnetization 
 augmentation part        0.0746697 magnetization 

 Free energy of the ion-electron system (eV)
  ---------------------------------------------------
  alpha Z        PSCENC =         0.08964095
  Ewald energy   TEWEN  =       552.56712791
  -Hartree energ DENC   =     -1397.96943573
  -exchange      EXHF   =         0.00000000
  -V(xc)+E(xc)   XCENC  =        57.89709137
  PAW double counting   =     10360.28797774   -10359.34839565
  entropy T*S    EENTRO =        -0.00000000
  eigenvalues    EBANDS =      -259.33612202
  atomic energy  EATOM  =      1027.97048504
  ---------------------------------------------------
  free energy    TOTEN  =       -17.84163038 eV

  energy without entropy =      -17.84163038  energy(sigma->0) =      -17.84163038


--------------------------------------------------------------------------------------------------------




--------------------------------------- Iteration      1(  18)  ---------------------------------------


    POTLOK:  cpu time     14.2303: real time     14.2343
    SETDIJ:  cpu time      0.0672: real time      0.0672
    TRIAL :  cpu time      0.1021: real time      0.1021
    CORREC:  cpu time     14.3912: real time     14.3958
    CHARGE:  cpu time      0.0481: real time      0.0481
    --------------------------------------------
      LOOP:  cpu time     28.8680: real time     28.8770

 eigenvalue-minimisations  :     0
 total energy-change (2. order) :-0.4162273E-05  (-0.1608730E-05)
 number of electron      16.0000000 magnetization 
 augmentation part        0.0746523 magnetization 

 Free energy of the ion-electron system (eV)
  ---------------------------------------------------
  alpha Z        PSCENC =         0.08964095
  Ewald energy   TEWEN  =       552.56712791
  -Hartree energ DENC   =     -1397.96856359
  -exchange      EXHF   =         0.00000000
  -V(xc)+E(xc)   XCENC  =        57.89711810
  PAW double counting   =     10358.82859661   -10357.88903420
  entropy T*S    EENTRO =        -0.00000000
  eigenvalues    EBANDS =      -259.33700538
  atomic energy  EATOM  =      1027.97048504
  ---------------------------------------------------
  free energy    TOTEN  =       -17.84163455 eV

  energy without entropy =      -17.84163455  energy(sigma->0) =      -17.84163455


--------------------------------------------------------------------------------------------------------




--------------------------------------- Iteration      1(  19)  ---------------------------------------


    POTLOK:  cpu time     14.2147: real time     14.2189
    SETDIJ:  cpu time      0.0670: real time      0.0670
    TRIAL :  cpu time      0.1020: real time      0.1020
    CORREC:  cpu time     14.3191: real time     14.3235
    CHARGE:  cpu time      0.0507: real time      0.0507
    --------------------------------------------
      LOOP:  cpu time     28.7669: real time     28.7929

 eigenvalue-minimisations  :     0
 total energy-change (2. order) :-0.1585624E-05  (-0.7202225E-06)
 number of electron      16.0000000 magnetization 
 augmentation part        0.0746348 magnetization 

 Free energy of the ion-electron system (eV)
  ---------------------------------------------------
  alpha Z        PSCENC =         0.08964095
  Ewald energy   TEWEN  =       552.56712791
  -Hartree energ DENC   =     -1397.96978585
  -exchange      EXHF   =         0.00000000
  -V(xc)+E(xc)   XCENC  =        57.89711164
  PAW double counting   =     10359.80100356   -10358.86140156
  entropy T*S    EENTRO =        -0.00000000
  eigenvalues    EBANDS =      -259.33581782
  atomic energy  EATOM  =      1027.97048504
  ---------------------------------------------------
  free energy    TOTEN  =       -17.84163613 eV

  energy without entropy =      -17.84163613  energy(sigma->0) =      -17.84163613


--------------------------------------------------------------------------------------------------------




--------------------------------------- Iteration      1(  20)  ---------------------------------------


    POTLOK:  cpu time     14.2794: real time     14.2843
    SETDIJ:  cpu time      0.0669: real time      0.0669
    TRIAL :  cpu time      0.1013: real time      0.1013
    CORREC:  cpu time     14.3865: real time     14.3909
    CHARGE:  cpu time      0.0496: real time      0.0496
    --------------------------------------------
      LOOP:  cpu time     28.9010: real time     28.9224

 eigenvalue-minimisations  :     0
 total energy-change (2. order) :-0.6439641E-06  (-0.2957343E-06)
 number of electron      16.0000000 magnetization 
 augmentation part        0.0746215 magnetization 

 Free energy of the ion-electron system (eV)
  ---------------------------------------------------
  alpha Z        PSCENC =         0.08964095
  Ewald energy   TEWEN  =       552.56712791
  -Hartree energ DENC   =     -1397.97292304
  -exchange      EXHF   =         0.00000000
  -V(xc)+E(xc)   XCENC  =        57.89725401
  PAW double counting   =     10362.23452320   -10361.29485331
  entropy T*S    EENTRO =        -0.00000000
  eigenvalues    EBANDS =      -259.33289155
  atomic energy  EATOM  =      1027.97048504
  ---------------------------------------------------
  free energy    TOTEN  =       -17.84163678 eV

  energy without entropy =      -17.84163678  energy(sigma->0) =      -17.84163678


--------------------------------------------------------------------------------------------------------




--------------------------------------- Iteration      1(  21)  ---------------------------------------


    POTLOK:  cpu time     14.2496: real time     14.2535
    SETDIJ:  cpu time      0.0671: real time      0.0671
    TRIAL :  cpu time      0.1021: real time      0.1021
    CORREC:  cpu time     14.4065: real time     14.4106
    CHARGE:  cpu time      0.0499: real time      0.0499
    --------------------------------------------
      LOOP:  cpu time     28.8947: real time     28.9132

 eigenvalue-minimisations  :     0
 total energy-change (2. order) :-0.2395773E-06  (-0.1009026E-06)
 number of electron      16.0000000 magnetization 
 augmentation part        0.0746195 magnetization 

 Free energy of the ion-electron system (eV)
  ---------------------------------------------------
  alpha Z        PSCENC =         0.08964095
  Ewald energy   TEWEN  =       552.56712791
  -Hartree energ DENC   =     -1397.97071968
  -exchange      EXHF   =         0.00000000
  -V(xc)+E(xc)   XCENC  =        57.89715292
  PAW double counting   =     10364.23443584   -10363.29465964
  entropy T*S    EENTRO =        -0.00000000
  eigenvalues    EBANDS =      -259.33510035
  atomic energy  EATOM  =      1027.97048504
  ---------------------------------------------------
  free energy    TOTEN  =       -17.84163702 eV

  energy without entropy =      -17.84163702  energy(sigma->0) =      -17.84163702


--------------------------------------------------------------------------------------------------------




--------------------------------------- Iteration      1(  22)  ---------------------------------------


    POTLOK:  cpu time     14.1561: real time     14.1609
    SETDIJ:  cpu time      0.0682: real time      0.0682
    TRIAL :  cpu time      0.1021: real time      0.1021
    CORREC:  cpu time     14.3083: real time     14.3125
    EDDIAG:  cpu time      0.0525: real time      0.0531
    CHARGE:  cpu time      0.0496: real time      0.0496
    --------------------------------------------
      LOOP:  cpu time     28.7512: real time     28.7769

 eigenvalue-minimisations  :     0
 total energy-change (2. order) :-0.9149880E-07  (-0.2941284E-07)
 number of electron      16.0000000 magnetization 
 augmentation part        0.0746205 magnetization 

 Free energy of the ion-electron system (eV)
  ---------------------------------------------------
  alpha Z        PSCENC =         0.08964095
  Ewald energy   TEWEN  =       552.56712791
  -Hartree energ DENC   =     -1397.97268100
  -exchange      EXHF   =         0.00000000
  -V(xc)+E(xc)   XCENC  =        57.89724727
  PAW double counting   =     10364.69145344   -10363.75167229
  entropy T*S    EENTRO =        -0.00000000
  eigenvalues    EBANDS =      -259.33323844
  atomic energy  EATOM  =      1027.97048504
  ---------------------------------------------------
  free energy    TOTEN  =       -17.84163711 eV

  energy without entropy =      -17.84163711  energy(sigma->0) =      -17.84163711


--------------------------------------------------------------------------------------------------------


  average scaling for gradient   0.8974


 average (electrostatic) potential at core
  the test charge radii are     0.5770  0.5955
  (the norm of the test charge is              1.0000)
       1 -92.3939       2-122.1905       3-122.1926



 E-fermi :  -9.3381     XC(G=0):  -0.1445     alpha+bet : -0.0337

 Fermi energy:        -9.3380825227

 k-point     1 :       0.0000    0.0000    0.0000
  band No.  band energies     occupation 
      1     -29.3741      2.00000
      2     -28.4268      2.00000
      3     -14.1228      2.00000
      4     -13.0520      2.00000
      5     -12.9507      2.00000
      6     -12.9507      2.00000
      7      -9.3949      2.00000
      8      -9.3949      2.00000
      9      -1.4779      0.00000
     10      -0.8453      0.00000
     11      -0.7977      0.00000
     12       0.1844      0.00000


--------------------------------------------------------------------------------------------------------


 soft charge-density along one line, spin component           1
         0         1         2         3         4         5         6         7         8         9
 total charge-density along one line

 pseudopotential strength for first ion, spin component:           1
 12.835  21.606   0.000   0.000  -0.000   0.000   0.000  -0.000
 21.606  36.370   0.000   0.000  -0.000   0.000   0.000  -0.000
  0.000   0.000  -3.418   0.019  -0.019  -6.132   0.033  -0.034
  0.000   0.000   0.019  -3.419  -0.019   0.033  -6.133  -0.033
 -0.000  -0.000  -0.019  -0.019  -3.418  -0.034  -0.033  -6.132
  0.000   0.000  -6.132   0.033  -0.034 -10.979   0.059  -0.060
  0.000   0.000   0.033  -6.133  -0.033   0.059 -10.981  -0.059
 -0.000  -0.000  -0.034  -0.033  -6.132  -0.060  -0.059 -10.979
 total augmentation occupancy for first ion, spin component:           1
  8.578  -3.312   0.010  -0.010  -0.008  -0.004   0.004   0.004
 -3.312   1.456  -0.004   0.005   0.004   0.002  -0.002  -0.002
  0.010  -0.004   6.296   3.740  -3.824  -2.177  -1.605   1.641
 -0.010   0.005   3.740   6.127  -3.739  -1.605  -2.104   1.605
 -0.008   0.004  -3.824  -3.739   6.293   1.641   1.605  -2.175
 -0.004   0.002  -2.177  -1.605   1.641   0.811   0.680  -0.695
  0.004  -0.002  -1.605  -2.104   1.605   0.680   0.781  -0.680
  0.004  -0.002   1.641   1.605  -2.175  -0.695  -0.680   0.811


------------------------ aborting loop because EDIFF is reached ----------------------------------------


    FORLOC:  cpu time      0.0158: real time      0.0158
    FORNL :  cpu time      0.0083: real time      0.0087
    FORCOR:  cpu time     14.2991: real time     14.3035
    OFIELD:  cpu time      0.0046: real time      0.0051

 VOLUME and BASIS-vectors are now :
 -----------------------------------------------------------------------------
  energy-cutoff  :     1000.00
  volume of cell :     8000.00
      direct lattice vectors                 reciprocal lattice vectors
    20.000000000  0.000000000  0.000000000     0.050000000  0.000000000  0.000000000
     0.000000000 20.000000000  0.000000000     0.000000000  0.050000000  0.000000000
     0.000000000  0.000000000 20.000000000     0.000000000  0.000000000  0.050000000

  length of vectors
    20.000000000 20.000000000 20.000000000     0.050000000  0.050000000  0.050000000


 FORCES acting on ions:
    Electron-Ion                     Ewald-Force                    Non-Local-Force
 -----------------------------------------------------------------------------------------------
   -.360E+00 0.430E+00 -.643E+00   0.358E+00 -.427E+00 0.617E+00   0.559E-02 -.479E-02 -.612E-02
   -.166E+03 0.166E+03 0.162E+03   0.202E+03 -.202E+03 -.198E+03   -.362E+02 0.362E+02 0.355E+02
   0.166E+03 -.166E+03 -.162E+03   -.202E+03 0.202E+03 0.197E+03   0.362E+02 -.363E+02 -.353E+02
 -----------------------------------------------------------------------------------------------
   -.102E+00 0.124E+00 -.213E+00   0.000E+00 0.000E+00 0.000E+00   0.102E+00 -.124E+00 0.213E+00


 POSITION                                       TOTAL-FORCE (eV/Angst)
 -----------------------------------------------------------------------------------
     10.00062      9.99922     10.00163         0.003430     -0.001417     -0.031843
     10.67966      9.32001      9.33520         0.094879     -0.095902     -0.078594
      9.32034     10.67999     10.66480        -0.098308      0.097319      0.110437
 -----------------------------------------------------------------------------------
    total drift:                               -0.000107     -0.000278     -0.000011


--------------------------------------------------------------------------------------------------------



  FREE ENERGIE OF THE ION-ELECTRON SYSTEM (eV)
  ---------------------------------------------------
  free  energy   TOTEN  =       -17.84163711 eV

  energy  without entropy=      -17.84163711  energy(sigma->0) =      -17.84163711



--------------------------------------------------------------------------------------------------------


    POTLOK:  cpu time     14.3941: real time     14.3990


--------------------------------------------------------------------------------------------------------


 stress matrix after NEB project (eV)
      0.00000      0.00000      0.00000
      0.00000      0.00000      0.00000
      0.00000      0.00000      0.00000
  FORCES: max atom, RMS     0.177008    0.137520
  FORCE total and by dimension    0.238192    0.110437
  Stress total and by dimension    0.000000    0.000000
     LOOP+:  cpu time    536.8134: real time    537.2585
    4ORBIT:  cpu time      0.0000: real time      0.0000

 total amount of memory used by VASP MPI-rank0    73404. kBytes
=======================================================================

   base      :      30000. kBytes
   nonl-proj :        789. kBytes
   fftplans  :      15076. kBytes
   grid      :      26893. kBytes
   one-center:          1. kBytes
   wavefun   :        645. kBytes

  
  
 General timing and accounting informations for this job:
 ========================================================
  
                  Total CPU time used (sec):      559.331
                            User time (sec):      550.262
                          System time (sec):        9.069
                         Elapsed time (sec):      563.530
  
                   Maximum memory used (kb):      523948.
                   Average memory used (kb):          N/A
  
                          Minor page faults:       309696
                          Major page faults:          296
                 Voluntary context switches:         6192
