 vasp.6.4.1 05Apr23 (build Jun  6 2023 14:46:38) gamma-only                      
 executed on        HPECrayEX_GCC date 2024.08.21  08:22:59
 running  256 mpi-ranks, with    1 threads/rank, on    2 nodes
 distrk:  each k-point on  128 cores,    2 groups
 distr:  one band on NCORE=  32 cores,    4 groups


--------------------------------------------------------------------------------------------------------


 INCAR:
   ALGO = Conjugate
   KPAR = 2
   NCORE = 32
   ISMEAR = 0
   SIGMA = 0.01
   PREC = Accurate
   EDIFF = 1E-7
   ENCUT = 1000
   ISIF = 0
   METAGGA = R2SCAN
   LASPH = .TRUE.
   SYMPREC = 1E-7
   LWAVE = .FALSE.
   LCHARG = .FALSE.
   LWAVE = .FALSE.
   LCHARG = .FALSE.

 POTCAR:    PAW_PBE C_h 06Feb2004                 
 POTCAR:    PAW_PBE O_h 06Feb2004                 
 POTCAR:    PAW_PBE C_h 06Feb2004                 
   VRHFIN =C: s2p2                                                                                  
   LEXCH  = PE                                                                                      
   EATOM  =   147.1560 eV,   10.8157 Ry                                                             
                                                                                                    
   TITEL  = PAW_PBE C_h 06Feb2004                                                                   
   LULTRA =        F    use ultrasoft PP ?                                                          
   IUNSCR =        1    unscreen: 0-lin 1-nonlin 2-no                                               
   RPACOR =    0.800    partial core radius                                                         
   POMASS =   12.011; ZVAL   =    4.000    mass and valenz                                          
   RCORE  =    1.100    outmost cutoff radius                                                       
   RWIGS  =    1.630; RWIGS  =    0.863    wigner-seitz radius (au A)                               
   ENMAX  =  700.000; ENMIN  =  500.000 eV                                                          
   ICORE  =        2    local potential                                                             
   LCOR   =        T    correct aug charges                                                         
   LPAW   =        T    paw PP                                                                      
   EAUG   =  946.768                                                                                
   DEXC   =    0.000                                                                                
   RMAX   =    1.128    core radius for proj-oper                                                   
   RAUG   =    1.300    factor for augmentation sphere                                              
   RDEP   =    1.162    radius for radial grids                                                     
   RDEPT  =    1.088    core radius for aug-charge                                                  
                                                                                                    
   Atomic configuration                                                                             
    4 entries                                                                                       
     n  l   j            E        occ.                                                              
     1  0  0.50      -273.3789   2.0000                                                             
     2  0  0.50       -13.7508   2.0000                                                             
     2  1  0.50        -5.2854   2.0000                                                             
     3  2  1.50        -5.4423   0.0000                                                             
   Description                                                                                      
     l       E           TYP  RCUT    TYP  RCUT                                                     
     0    -13.7508458     23  1.100                                                                 
     0     -8.2022199     23  1.100                                                                 
     1     -5.2854383     23  1.100                                                                 
     1      1.1560700     23  1.100                                                                 
     2     -5.4423304      7  1.100                                                                 
  local pseudopotential read in
  partial core-charges read in
  partial kinetic energy density read in
  atomic valenz-charges read in
  non local Contribution for L=           0  read in
    real space projection operators read in
  non local Contribution for L=           0  read in
    real space projection operators read in
  non local Contribution for L=           1  read in
    real space projection operators read in
  non local Contribution for L=           1  read in
    real space projection operators read in
    PAW grid and wavefunctions read in

   number of l-projection  operators is LMAX  =           4
   number of lm-projection operators is LMMAX =           8

 POTCAR:    PAW_PBE O_h 06Feb2004                 
   VRHFIN =O: s2p4                                                                                  
   LEXCH  = PE                                                                                      
   EATOM  =   432.3788 eV,   31.7789 Ry                                                             
                                                                                                    
   TITEL  = PAW_PBE O_h 06Feb2004                                                                   
   LULTRA =        F    use ultrasoft PP ?                                                          
   IUNSCR =        1    unscreen: 0-lin 1-nonlin 2-no                                               
   RPACOR =    0.800    partial core radius                                                         
   POMASS =   16.000; ZVAL   =    6.000    mass and valenz                                          
   RCORE  =    1.100    outmost cutoff radius                                                       
   RWIGS  =    1.400; RWIGS  =    0.741    wigner-seitz radius (au A)                               
   ENMAX  =  700.000; ENMIN  =  500.000 eV                                                          
   ICORE  =        2    local potential                                                             
   LCOR   =        T    correct aug charges                                                         
   LPAW   =        T    paw PP                                                                      
   EAUG   =  888.804                                                                                
   DEXC   =    0.000                                                                                
   RMAX   =    1.128    core radius for proj-oper                                                   
   RAUG   =    1.300    factor for augmentation sphere                                              
   RDEP   =    1.125    radius for radial grids                                                     
   RDEPT  =    1.088    core radius for aug-charge                                                  
                                                                                                    
   Atomic configuration                                                                             
    4 entries                                                                                       
     n  l   j            E        occ.                                                              
     1  0  0.50      -514.6923   2.0000                                                             
     2  0  0.50       -23.9615   2.0000                                                             
     2  1  0.50        -9.0305   4.0000                                                             
     3  2  1.50        -9.5241   0.0000                                                             
   Description                                                                                      
     l       E           TYP  RCUT    TYP  RCUT                                                     
     0    -23.9615319     23  1.100                                                                 
     0    -25.3221145     23  1.100                                                                 
     1     -9.0304911     23  1.100                                                                 
     1     -5.4802209     23  1.100                                                                 
     2     -9.5240782      7  1.100                                                                 
  local pseudopotential read in
  partial core-charges read in
  partial kinetic energy density read in
  atomic valenz-charges read in
  non local Contribution for L=           0  read in
    real space projection operators read in
  non local Contribution for L=           0  read in
    real space projection operators read in
  non local Contribution for L=           1  read in
    real space projection operators read in
  non local Contribution for L=           1  read in
    real space projection operators read in
    PAW grid and wavefunctions read in

   number of l-projection  operators is LMAX  =           4
   number of lm-projection operators is LMMAX =           8

  PAW_PBE C_h 06Feb2004                 :
 energy of atom  1       EATOM= -147.1560
 kinetic energy error for atom=    0.0031 (will be added to EATOM!!)
  PAW_PBE O_h 06Feb2004                 :
 energy of atom  2       EATOM= -432.3788
 kinetic energy error for atom=    0.0171 (will be added to EATOM!!)


 POSCAR:  C  O
  positions in cartesian coordinates
  No initial velocities read in

 METAGGA = R2SCAN                                      LMAXTAU =  6    LMIXTAU =  F

 exchange correlation table for  LEXCH =        8
   RHO(1)=    0.500       N(1)  =     2000
   RHO(2)=  100.500       N(2)  =     4000

 VTST: version 4.1, (05/19/21)

 CHAIN: initializing optimizer
 
 OPT: Using VASP Dynamics algorithm
 CHAIN: Read ICHAIN            0

 POSCAR:  C  O
  positions in cartesian coordinates
  No initial velocities read in



--------------------------------------------------------------------------------------------------------


 ion  position               nearest neighbor table
   1  0.500  0.500  0.500-   3 1.17   2 1.17
   2  0.534  0.466  0.467-   1 1.17
   3  0.466  0.534  0.533-   1 1.17

  LATTYP: Found a simple cubic cell.
 ALAT       =    20.0000000000
  
  Lattice vectors:
  
 A1 = (  20.0000000000,   0.0000000000,   0.0000000000)
 A2 = (   0.0000000000,  20.0000000000,   0.0000000000)
 A3 = (   0.0000000000,   0.0000000000,  20.0000000000)


Analysis of symmetry for initial positions (statically):
=====================================================================
 Subroutine PRICEL returns:
 Original cell was already a primitive cell.
 

 Routine SETGRP: Setting up the symmetry group for a 
 simple cubic supercell.


 Subroutine GETGRP returns: Found  1 space group operations
 (whereof  1 operations were pure point group operations)
 out of a pool of 48 trial point group operations.


The static configuration has the point symmetry C_1 .


Analysis of symmetry for dynamics (positions and initial velocities):
=====================================================================
 Subroutine PRICEL returns:
 Original cell was already a primitive cell.
 

 Routine SETGRP: Setting up the symmetry group for a 
 simple cubic supercell.


 Subroutine GETGRP returns: Found  1 space group operations
 (whereof  1 operations were pure point group operations)
 out of a pool of 48 trial point group operations.


The dynamic configuration has the point symmetry C_1 .


 Subroutine INISYM returns: Found  1 space group operations
 (whereof  1 operations are pure point group operations),
 and found     1 'primitive' translations


----------------------------------------------------------------------------------------

                                     Primitive cell                                     

  volume of cell :    8000.0000

  direct lattice vectors                    reciprocal lattice vectors
    20.000000000  0.000000000  0.000000000     0.050000000  0.000000000  0.000000000
     0.000000000 20.000000000  0.000000000     0.000000000  0.050000000  0.000000000
     0.000000000  0.000000000 20.000000000     0.000000000  0.000000000  0.050000000

  length of vectors
    20.000000000 20.000000000 20.000000000     0.050000000  0.050000000  0.050000000

  position of ions in fractional coordinates (direct lattice)
     0.500030750  0.499961250  0.500081750
     0.533983250  0.466000750  0.466759750
     0.466016750  0.533999250  0.533240250

  ion indices of the primitive-cell ions
   primitive index   ion index
                 1           1
                 2           2
                 3           3

----------------------------------------------------------------------------------------



 KPOINTS: auto                                    

Automatic generation of k-mesh.
 Grid dimensions read from file:
 generate k-points for:    1    1    1

 Generating k-lattice:

  Cartesian coordinates                     Fractional coordinates (reciprocal lattice)
     0.050000000  0.000000000  0.000000000     1.000000000  0.000000000  0.000000000
     0.000000000  0.050000000  0.000000000     0.000000000  1.000000000  0.000000000
     0.000000000  0.000000000  0.050000000     0.000000000  0.000000000  1.000000000

  Length of vectors
     0.050000000  0.050000000  0.050000000

  Shift w.r.t. Gamma in fractional coordinates (k-lattice)
     0.000000000  0.000000000  0.000000000

 
 Subroutine IBZKPT returns following result:
 ===========================================
 
 Found      1 irreducible k-points:
 
 Following reciprocal coordinates:
            Coordinates               Weight
  0.000000  0.000000  0.000000      1.000000
 
 Following cartesian coordinates:
            Coordinates               Weight
  0.000000  0.000000  0.000000      1.000000
 


--------------------------------------------------------------------------------------------------------




 Dimension of arrays:
   k-points           NKPTS =      1   k-points in BZ     NKDIM =      1   number of bands    NBANDS=     12
   number of dos      NEDOS =    301   number of ions     NIONS =      3
   non local maximal  LDIM  =      4   non local SUM 2l+1 LMDIM =      8
   total plane-waves  NPLWV = ******
   max r-space proj   IRMAX =      1   max aug-charges    IRDMAX=   8641
   dimension x,y,z NGX =   210 NGY =  210 NGZ =  210
   dimension x,y,z NGXF=   420 NGYF=  420 NGZF=  420
   support grid    NGXF=   420 NGYF=  420 NGZF=  420
   ions per type =               1   2
   NGX,Y,Z   is equivalent  to a cutoff of  17.46, 17.46, 17.46 a.u.
   NGXF,Y,Z  is equivalent  to a cutoff of  34.91, 34.91, 34.91 a.u.

 SYSTEM =  unknown system                          
 POSCAR =   C  O                                   

 Startparameter for this run:
   NWRITE =      2    write-flag & timer
   PREC   = accura    normal or accurate (medium, high low for compatibility)
   ISTART =      0    job   : 0-new  1-cont  2-samecut
   ICHARG =      2    charge: 1-file 2-atom 10-const
   ISPIN  =      1    spin polarized calculation?
   LNONCOLLINEAR =      F non collinear calculations
   LSORBIT =      F    spin-orbit coupling
   INIWAV =      1    electr: 0-lowe 1-rand  2-diag
   LASPH  =      T    aspherical Exc in radial PAW
 Electronic Relaxation 1
   ENCUT  = 1000.0 eV  73.50 Ry    8.57 a.u.  51.57 51.57 51.57*2*pi/ulx,y,z
   ENINI  = 1000.0     initial cutoff
   ENAUG  =  946.8 eV  augmentation charge cutoff
   NELM   =     60;   NELMIN=  2; NELMDL= -5     # of ELM steps 
   EDIFF  = 0.1E-06   stopping-criterion for ELM
   LREAL  =      F    real-space projection
   NLSPLINE    = F    spline interpolate recip. space projectors
   LCOMPAT=      F    compatible to vasp.4.4
   GGA_COMPAT  = T    GGA compatible to vasp.4.4-vasp.4.6
   LMAXPAW     = -100 max onsite density
   LMAXMIX     =    2 max onsite mixed and CHGCAR
   VOSKOWN=      0    Vosko Wilk Nusair interpolation
   ROPT   =    0.00000   0.00000
 Ionic relaxation
   EDIFFG = 0.1E-05   stopping-criterion for IOM
   NSW    =      0    number of steps for IOM
   NBLOCK =      1;   KBLOCK =      1    inner block; outer block 
   IBRION =     -1    ionic relax: 0-MD 1-quasi-New 2-CG
   NFREE  =      0    steps in history (QN), initial steepest desc. (CG)
   ISIF   =      0    stress and relaxation
   IWAVPR =     10    prediction:  0-non 1-charg 2-wave 3-comb
   ISYM   =      2    0-nonsym 1-usesym 2-fastsym
   LCORR  =      T    Harris-Foulkes like correction to forces

   POTIM  = 0.5000    time-step for ionic-motion
   TEIN   =    0.0    initial temperature
   TEBEG  =    0.0;   TEEND  =   0.0 temperature during run
   SMASS  =  -3.00    Nose mass-parameter (am)
   estimated Nose-frequenzy (Omega)   =  0.10E-29 period in steps = 0.13E+47 mass=  -0.914E-26a.u.
   SCALEE = 1.0000    scale energy and forces
   NPACO  =    256;   APACO  = 10.0  distance and # of slots for P.C.
   PSTRESS=    0.0 pullay stress

  Mass of Ions in am
   POMASS =  12.01 16.00
  Ionic Valenz
   ZVAL   =   4.00  6.00
  Atomic Wigner-Seitz radii
   RWIGS  =  -1.00 -1.00
  virtual crystal weights 
   VCA    =   1.00  1.00
   NELECT =      16.0000    total number of electrons
   NUPDOWN=      -1.0000    fix difference up-down

 DOS related values:
   EMIN   =  10.00;   EMAX   =-10.00  energy-range for DOS
   EFERMI =   0.00;   METHOD = LEGACY      
   ISMEAR =     0;   SIGMA  =   0.01  broadening in eV -4-tet -1-fermi 0-gaus

 Electronic relaxation 2 (details)
   IALGO  =     58    algorithm
   LDIAG  =      T    sub-space diagonalisation (order eigenvalues)
   LSUBROT=      F    optimize rotation matrix (better conditioning)
   TURBO    =      0    0=normal 1=particle mesh
   IRESTART =      0    0=no restart 2=restart with 2 vectors
   NREBOOT  =      0    no. of reboots
   NMIN     =      0    reboot dimension
   EREF     =   0.00    reference energy to select bands
   IMIX   =      4    mixing-type and parameters
     AMIX     =   0.40;   BMIX     =  1.00
     AMIX_MAG =   1.60;   BMIX_MAG =  1.00
     AMIN     =   0.10
     WC   =   100.;   INIMIX=   1;  MIXPRE=   1;  MAXMIX= -45

 Intra band minimization:
   WEIMIN = 0.0000     energy-eigenvalue tresh-hold
   EBREAK =  0.21E-08  absolut break condition
   DEPER  =   0.30     relativ break condition  

   TIME   =   0.40     timestep for ELM

  volume/ion in A,a.u.               =    2666.67     17995.55
  Fermi-wavevector in a.u.,A,eV,Ry     =   0.206261  0.389778  0.578844  0.042544
  Thomas-Fermi vector in A             =   0.968418

 Write flags
   LWAVE        =      F    write WAVECAR
   LDOWNSAMPLE  =      F    k-point downsampling of WAVECAR
   LCHARG       =      F    write CHGCAR
   LVTOT        =      F    write LOCPOT, total local potential
   LVHAR        =      F    write LOCPOT, Hartree potential only
   LELF         =      F    write electronic localiz. function (ELF)
   LORBIT       =      0    0 simple, 1 ext, 2 COOP (PROOUT), +10 PAW based schemes


 Dipole corrections
   LMONO  =      F    monopole corrections only (constant potential shift)
   LDIPOL =      F    correct potential (dipole corrections)
   IDIPOL =      0    1-x, 2-y, 3-z, 4-all directions 
   EPSILON=  1.0000000 bulk dielectric constant

 Exchange correlation treatment:
   GGA     =    --    GGA type
   LEXCH   =     8    internal setting for exchange type
   LIBXC   =     F    Libxc                    
   VOSKOWN =     0    Vosko Wilk Nusair interpolation
   LHFCALC =     F    Hartree Fock is set to
   LHFONE  =     F    Hartree Fock one center treatment
   AEXX    =    0.0000 exact exchange contribution

 Linear response parameters
   LEPSILON=     F    determine dielectric tensor
   LRPA    =     F    only Hartree local field effects (RPA)
   LNABLA  =     F    use nabla operator in PAW spheres
   LVEL    =     F    velocity operator in full k-point grid
   CSHIFT  =0.1000    complex shift for real part using Kramers Kronig
   OMEGAMAX=  -1.0    maximum frequency
   DEG_THRESHOLD= 0.2000000E-02 threshold for treating states as degnerate
   RTIME   =   -0.100 relaxation time in fs
  (WPLASMAI=    0.000 imaginary part of plasma frequency in eV, 0.658/RTIME)
   DFIELD  = 0.0000000 0.0000000 0.0000000 field for delta impulse in time

  Optional k-point grid parameters
   LKPOINTS_OPT  =     F    use optional k-point grid
   KPOINTS_OPT_MODE=     1    mode for optional k-point grid

 Orbital magnetization related:
   ORBITALMAG=     F  switch on orbital magnetization
   LCHIMAG   =     F  perturbation theory with respect to B field
   DQ        =  0.001000  dq finite difference perturbation B field
   LLRAUG    =     F  two centre corrections for induced B field
   LBONE     =     F  B-component reconstruction in AE one-centre
   LVGVCALC  =     T  calculate vGv susceptibility
   LVGVAPPL  =     F  apply vGv susceptibility instead of pGv for G=0

 Random number generation:
   RANDOM_GENERATOR = DEFAULT
   PCG_SEED         = not used


--------------------------------------------------------------------------------------------------------


 Static calculation
 charge density and potential will be updated during run
 non-spin polarized calculation
 Conjugate gradient for all bands (Freysoldt, et al. PRB 79, 241103 (2009))
 preconditioned conjugated gradient                                        
 perform sub-space diagonalisation
    before iterative eigenvector-optimisation
 modified Broyden-mixing scheme, WC =      100.0
 initial mixing is a Kerker type mixing with AMIX =  0.4000 and BMIX =      1.0000
 Hartree-type preconditioning will be used
 using additional bands            4
 reciprocal scheme for non local part
 use partial core corrections
 no Harris-corrections to forces 
 use gradient corrections 
 use of overlap-Matrix (Vanderbilt PP)
 Gauss-broadening in eV      SIGMA  =   0.01


--------------------------------------------------------------------------------------------------------


  energy-cutoff  :     1000.00
  volume of cell :     8000.00
      direct lattice vectors                 reciprocal lattice vectors
    20.000000000  0.000000000  0.000000000     0.050000000  0.000000000  0.000000000
     0.000000000 20.000000000  0.000000000     0.000000000  0.050000000  0.000000000
     0.000000000  0.000000000 20.000000000     0.000000000  0.000000000  0.050000000

  length of vectors
    20.000000000 20.000000000 20.000000000     0.050000000  0.050000000  0.050000000



 k-points in units of 2pi/SCALE and weight: auto                                    
   0.00000000  0.00000000  0.00000000       1.000

 k-points in reciprocal lattice and weights: auto                                    
   0.00000000  0.00000000  0.00000000       1.000

 position of ions in fractional coordinates (direct lattice) 
   0.50003075  0.49996125  0.50008175
   0.53398325  0.46600075  0.46675975
   0.46601675  0.53399925  0.53324025

 position of ions in cartesian coordinates  (Angst):
  10.00061500  9.99922500 10.00163500
  10.67966500  9.32001500  9.33519500
   9.32033500 10.67998500 10.66480500



--------------------------------------------------------------------------------------------------------


 use parallel FFT for orbitals z direction half grid
 k-point   1 :   0.0000 0.0000 0.0000  plane waves:  287166

 maximum and minimum number of plane-waves per node :      8979     8970

 maximum number of plane-waves:    287166
 maximum index in each direction: 
   IXMAX=   51   IYMAX=   51   IZMAX=   51
   IXMIN=  -51   IYMIN=  -51   IZMIN=    0


 parallel 3D FFT for wavefunctions:
    minimum data exchange during FFTs selected (reduces bandwidth)
 parallel 3D FFT for charge:
    minimum data exchange during FFTs selected (reduces bandwidth)


 total amount of memory used by VASP MPI-rank0   129582. kBytes
=======================================================================

   base      :      30000. kBytes
   nonl-proj :       1580. kBytes
   fftplans  :      29139. kBytes
   grid      :      67569. kBytes
   one-center:          1. kBytes
   wavefun   :       1293. kBytes

     INWAV:  cpu time      0.0016: real time      0.0019
 Broyden mixing: mesh for mixing (old mesh)
   NGX =103   NGY =103   NGZ =103
  (NGX  =420   NGY  =420   NGZ  =420)
  gives a total of ****** points

 initial charge density was supplied:
 charge density of overlapping atoms calculated
 number of electron      16.0000000 magnetization 
 keeping initial charge density in first step


--------------------------------------------------------------------------------------------------------


 Maximum index for augmentation-charges            0 (set IRDMAX)


--------------------------------------------------------------------------------------------------------


 First call to EWALD:  gamma=   0.089
 Maximum number of real-space cells 3x 3x 3
 Maximum number of reciprocal cells 3x 3x 3

    FEWALD:  cpu time      0.0029: real time      0.0029


--------------------------------------- Ionic step        1  -------------------------------------------




--------------------------------------- Iteration      1(   1)  ---------------------------------------


    POTLOK:  cpu time      2.2526: real time      2.2532
    SETDIJ:  cpu time      0.2733: real time      0.2739
    TRIAL :  cpu time      1.6814: real time      1.6844
    CORREC:  cpu time      0.0026: real time      0.0026
    --------------------------------------------
      LOOP:  cpu time      4.2228: real time      4.2271

 eigenvalue-minimisations  :    32
 total energy-change (2. order) : 0.2235633E+03  (-0.3455083E+03)
 number of electron      16.0000000 magnetization 
 augmentation part       16.0000000 magnetization 

 Free energy of the ion-electron system (eV)
  ---------------------------------------------------
  alpha Z        PSCENC =         0.08964095
  Ewald energy   TEWEN  =       552.56712791
  -Hartree energ DENC   =     -1355.50156735
  -exchange      EXHF   =         0.00000000
  -V(xc)+E(xc)   XCENC  =        73.88937054
  PAW double counting   =       791.83375697     -796.66044987
  entropy T*S    EENTRO =        -0.00000000
  eigenvalues    EBANDS =       -54.53097988
  atomic energy  EATOM  =      1011.87641368
  ---------------------------------------------------
  free energy    TOTEN  =       223.56331294 eV

  energy without entropy =      223.56331294  energy(sigma->0) =      223.56331294


--------------------------------------------------------------------------------------------------------




--------------------------------------- Iteration      1(   2)  ---------------------------------------


    TRIAL :  cpu time      1.8630: real time      1.8639
    CORREC:  cpu time      0.0001: real time      0.0001
    --------------------------------------------
      LOOP:  cpu time      1.8756: real time      1.8896

 eigenvalue-minimisations  :    40
 total energy-change (2. order) :-0.9981883E+02  (-0.9839640E+02)
 number of electron      16.0000000 magnetization 
 augmentation part       16.0000000 magnetization 

 Free energy of the ion-electron system (eV)
  ---------------------------------------------------
  alpha Z        PSCENC =         0.08964095
  Ewald energy   TEWEN  =       552.56712791
  -Hartree energ DENC   =     -1355.50156735
  -exchange      EXHF   =         0.00000000
  -V(xc)+E(xc)   XCENC  =        73.88937054
  PAW double counting   =       791.83375697     -796.66044987
  entropy T*S    EENTRO =        -0.00000000
  eigenvalues    EBANDS =      -154.34980861
  atomic energy  EATOM  =      1011.87641368
  ---------------------------------------------------
  free energy    TOTEN  =       123.74448421 eV

  energy without entropy =      123.74448421  energy(sigma->0) =      123.74448421


--------------------------------------------------------------------------------------------------------




--------------------------------------- Iteration      1(   3)  ---------------------------------------


    TRIAL :  cpu time      2.1088: real time      2.1099
    CORREC:  cpu time      0.0001: real time      0.0001
    --------------------------------------------
      LOOP:  cpu time      2.1288: real time      2.1379

 eigenvalue-minimisations  :    48
 total energy-change (2. order) :-0.1177087E+03  (-0.1122160E+03)
 number of electron      16.0000000 magnetization 
 augmentation part       16.0000000 magnetization 

 Free energy of the ion-electron system (eV)
  ---------------------------------------------------
  alpha Z        PSCENC =         0.08964095
  Ewald energy   TEWEN  =       552.56712791
  -Hartree energ DENC   =     -1355.50156735
  -exchange      EXHF   =         0.00000000
  -V(xc)+E(xc)   XCENC  =        73.88937054
  PAW double counting   =       791.83375697     -796.66044987
  entropy T*S    EENTRO =        -0.00000000
  eigenvalues    EBANDS =      -272.05853155
  atomic energy  EATOM  =      1011.87641368
  ---------------------------------------------------
  free energy    TOTEN  =         6.03576127 eV

  energy without entropy =        6.03576127  energy(sigma->0) =        6.03576127


--------------------------------------------------------------------------------------------------------




--------------------------------------- Iteration      1(   4)  ---------------------------------------


    TRIAL :  cpu time      1.6240: real time      1.6251
    CORREC:  cpu time      0.0001: real time      0.0001
    --------------------------------------------
      LOOP:  cpu time      1.6368: real time      1.6536

 eigenvalue-minimisations  :    32
 total energy-change (2. order) :-0.3557017E+02  (-0.3556044E+02)
 number of electron      16.0000000 magnetization 
 augmentation part       16.0000000 magnetization 

 Free energy of the ion-electron system (eV)
  ---------------------------------------------------
  alpha Z        PSCENC =         0.08964095
  Ewald energy   TEWEN  =       552.56712791
  -Hartree energ DENC   =     -1355.50156735
  -exchange      EXHF   =         0.00000000
  -V(xc)+E(xc)   XCENC  =        73.88937054
  PAW double counting   =       791.83375697     -796.66044987
  entropy T*S    EENTRO =        -0.00000000
  eigenvalues    EBANDS =      -307.62870135
  atomic energy  EATOM  =      1011.87641368
  ---------------------------------------------------
  free energy    TOTEN  =       -29.53440853 eV

  energy without entropy =      -29.53440853  energy(sigma->0) =      -29.53440853


--------------------------------------------------------------------------------------------------------




--------------------------------------- Iteration      1(   5)  ---------------------------------------


    TRIAL :  cpu time      1.6213: real time      1.6225
    CORREC:  cpu time      0.0001: real time      0.0001
    CHARGE:  cpu time      0.3901: real time      0.3906
    --------------------------------------------
      LOOP:  cpu time      2.0228: real time      2.0411

 eigenvalue-minimisations  :    32
 total energy-change (2. order) :-0.3644422E+01  (-0.3629914E+01)
 number of electron      16.0000000 magnetization 
 augmentation part        0.0851607 magnetization 

 Free energy of the ion-electron system (eV)
  ---------------------------------------------------
  alpha Z        PSCENC =         0.08964095
  Ewald energy   TEWEN  =       552.56712791
  -Hartree energ DENC   =     -1355.50156735
  -exchange      EXHF   =         0.00000000
  -V(xc)+E(xc)   XCENC  =        73.88937054
  PAW double counting   =       791.83375697     -796.66044987
  entropy T*S    EENTRO =        -0.00000000
  eigenvalues    EBANDS =      -311.27312368
  atomic energy  EATOM  =      1011.87641368
  ---------------------------------------------------
  free energy    TOTEN  =       -33.17883086 eV

  energy without entropy =      -33.17883086  energy(sigma->0) =      -33.17883086


--------------------------------------------------------------------------------------------------------




--------------------------------------- Iteration      1(   6)  ---------------------------------------


    POTLOK:  cpu time      2.2237: real time      2.2244
    SETDIJ:  cpu time      0.2800: real time      0.2801
    TRIAL :  cpu time      1.3598: real time      1.3624
    CORREC:  cpu time      3.2370: real time      3.2390
    CHARGE:  cpu time      0.3716: real time      0.3716
    --------------------------------------------
      LOOP:  cpu time      7.4873: real time      7.5085

 eigenvalue-minimisations  :     0
 total energy-change (2. order) : 0.9180893E+01  (-0.1583674E+01)
 number of electron      16.0000000 magnetization 
 augmentation part        0.0585948 magnetization 

 Free energy of the ion-electron system (eV)
  ---------------------------------------------------
  alpha Z        PSCENC =         0.08964095
  Ewald energy   TEWEN  =       552.56712791
  -Hartree energ DENC   =     -1432.51498519
  -exchange      EXHF   =         0.00000000
  -V(xc)+E(xc)   XCENC  =        81.32742249
  PAW double counting   =     12621.99074257   -12627.63996220
  entropy T*S    EENTRO =        -0.00000000
  eigenvalues    EBANDS =      -231.69433779
  atomic energy  EATOM  =      1011.87641368
  ---------------------------------------------------
  free energy    TOTEN  =       -23.99793758 eV

  energy without entropy =      -23.99793758  energy(sigma->0) =      -23.99793758


--------------------------------------------------------------------------------------------------------




--------------------------------------- Iteration      1(   7)  ---------------------------------------


    POTLOK:  cpu time      2.2271: real time      2.2286
    SETDIJ:  cpu time      0.2760: real time      0.2760
    TRIAL :  cpu time      1.3516: real time      1.3521
    CORREC:  cpu time      3.2308: real time      3.2330
    CHARGE:  cpu time      0.3694: real time      0.3694
    --------------------------------------------
      LOOP:  cpu time      7.4700: real time      7.4895

 eigenvalue-minimisations  :     0
 total energy-change (2. order) :-0.1595092E+01  (-0.2080312E+00)
 number of electron      16.0000000 magnetization 
 augmentation part        0.0443958 magnetization 

 Free energy of the ion-electron system (eV)
  ---------------------------------------------------
  alpha Z        PSCENC =         0.08964095
  Ewald energy   TEWEN  =       552.56712791
  -Hartree energ DENC   =     -1394.47244583
  -exchange      EXHF   =         0.00000000
  -V(xc)+E(xc)   XCENC  =        78.50746080
  PAW double counting   =     13901.63688191   -13906.76762415
  entropy T*S    EENTRO =        -0.00000000
  eigenvalues    EBANDS =      -269.03048447
  atomic energy  EATOM  =      1011.87641368
  ---------------------------------------------------
  free energy    TOTEN  =       -25.59302919 eV

  energy without entropy =      -25.59302919  energy(sigma->0) =      -25.59302919


--------------------------------------------------------------------------------------------------------




--------------------------------------- Iteration      1(   8)  ---------------------------------------


    POTLOK:  cpu time      2.2212: real time      2.2219
    SETDIJ:  cpu time      0.2797: real time      0.2797
    TRIAL :  cpu time      1.3473: real time      1.3484
    CORREC:  cpu time      3.2296: real time      3.2311
    CHARGE:  cpu time      0.3713: real time      0.3713
    --------------------------------------------
      LOOP:  cpu time      7.4620: real time      7.4842

 eigenvalue-minimisations  :     0
 total energy-change (2. order) :-0.2080320E+00  (-0.8370920E-01)
 number of electron      16.0000000 magnetization 
 augmentation part        0.0450614 magnetization 

 Free energy of the ion-electron system (eV)
  ---------------------------------------------------
  alpha Z        PSCENC =         0.08964095
  Ewald energy   TEWEN  =       552.56712791
  -Hartree energ DENC   =     -1397.41180070
  -exchange      EXHF   =         0.00000000
  -V(xc)+E(xc)   XCENC  =        78.51879251
  PAW double counting   =     14581.65199453   -14586.70071461
  entropy T*S    EENTRO =        -0.00000000
  eigenvalues    EBANDS =      -266.39251542
  atomic energy  EATOM  =      1011.87641368
  ---------------------------------------------------
  free energy    TOTEN  =       -25.80106115 eV

  energy without entropy =      -25.80106115  energy(sigma->0) =      -25.80106115


--------------------------------------------------------------------------------------------------------




--------------------------------------- Iteration      1(   9)  ---------------------------------------


    POTLOK:  cpu time      2.2291: real time      2.2303
    SETDIJ:  cpu time      0.2772: real time      0.2772
    TRIAL :  cpu time      1.3520: real time      1.3528
    CORREC:  cpu time      3.2338: real time      3.2359
    CHARGE:  cpu time      0.3713: real time      0.3713
    --------------------------------------------
      LOOP:  cpu time      7.4784: real time      7.4985

 eigenvalue-minimisations  :     0
 total energy-change (2. order) :-0.8368193E-01  (-0.3633520E-01)
 number of electron      16.0000000 magnetization 
 augmentation part        0.0480381 magnetization 

 Free energy of the ion-electron system (eV)
  ---------------------------------------------------
  alpha Z        PSCENC =         0.08964095
  Ewald energy   TEWEN  =       552.56712791
  -Hartree energ DENC   =     -1399.83693884
  -exchange      EXHF   =         0.00000000
  -V(xc)+E(xc)   XCENC  =        78.59619124
  PAW double counting   =     15552.04672730   -15557.09233058
  entropy T*S    EENTRO =        -0.00000000
  eigenvalues    EBANDS =      -264.13157473
  atomic energy  EATOM  =      1011.87641368
  ---------------------------------------------------
  free energy    TOTEN  =       -25.88474308 eV

  energy without entropy =      -25.88474308  energy(sigma->0) =      -25.88474308


--------------------------------------------------------------------------------------------------------




--------------------------------------- Iteration      1(  10)  ---------------------------------------


    POTLOK:  cpu time      2.2269: real time      2.2277
    SETDIJ:  cpu time      0.2793: real time      0.2793
    TRIAL :  cpu time      1.3494: real time      1.3505
    CORREC:  cpu time      3.2298: real time      3.2316
    CHARGE:  cpu time      0.3686: real time      0.3686
    --------------------------------------------
      LOOP:  cpu time      7.4829: real time      7.4867

 eigenvalue-minimisations  :     0
 total energy-change (2. order) :-0.3653778E-01  (-0.1306181E-01)
 number of electron      16.0000000 magnetization 
 augmentation part        0.0491228 magnetization 

 Free energy of the ion-electron system (eV)
  ---------------------------------------------------
  alpha Z        PSCENC =         0.08964095
  Ewald energy   TEWEN  =       552.56712791
  -Hartree energ DENC   =     -1398.43783537
  -exchange      EXHF   =         0.00000000
  -V(xc)+E(xc)   XCENC  =        78.51498603
  PAW double counting   =     16209.74002265   -16214.79114251
  entropy T*S    EENTRO =        -0.00000000
  eigenvalues    EBANDS =      -265.48049421
  atomic energy  EATOM  =      1011.87641368
  ---------------------------------------------------
  free energy    TOTEN  =       -25.92128086 eV

  energy without entropy =      -25.92128086  energy(sigma->0) =      -25.92128086


--------------------------------------------------------------------------------------------------------




--------------------------------------- Iteration      1(  11)  ---------------------------------------


    POTLOK:  cpu time      2.2260: real time      2.2275
    SETDIJ:  cpu time      0.2804: real time      0.2805
    TRIAL :  cpu time      1.3496: real time      1.3505
    CORREC:  cpu time      3.2374: real time      3.2392
    CHARGE:  cpu time      0.3687: real time      0.3692
    --------------------------------------------
      LOOP:  cpu time      7.4938: real time      7.4986

 eigenvalue-minimisations  :     0
 total energy-change (2. order) :-0.1309842E-01  (-0.4465419E-02)
 number of electron      16.0000000 magnetization 
 augmentation part        0.0500598 magnetization 

 Free energy of the ion-electron system (eV)
  ---------------------------------------------------
  alpha Z        PSCENC =         0.08964095
  Ewald energy   TEWEN  =       552.56712791
  -Hartree energ DENC   =     -1397.75648981
  -exchange      EXHF   =         0.00000000
  -V(xc)+E(xc)   XCENC  =        78.47923112
  PAW double counting   =     16329.50336851   -16334.56060943
  entropy T*S    EENTRO =        -0.00000000
  eigenvalues    EBANDS =      -266.13306222
  atomic energy  EATOM  =      1011.87641368
  ---------------------------------------------------
  free energy    TOTEN  =       -25.93437929 eV

  energy without entropy =      -25.93437929  energy(sigma->0) =      -25.93437929


--------------------------------------------------------------------------------------------------------




--------------------------------------- Iteration      1(  12)  ---------------------------------------


    POTLOK:  cpu time      2.2270: real time      2.2279
    SETDIJ:  cpu time      0.2789: real time      0.2789
    TRIAL :  cpu time      1.3479: real time      1.3490
    CORREC:  cpu time      3.2319: real time      3.2335
    CHARGE:  cpu time      0.3711: real time      0.3711
    --------------------------------------------
      LOOP:  cpu time      7.4729: real time      7.4910

 eigenvalue-minimisations  :     0
 total energy-change (2. order) :-0.4458942E-02  (-0.1138166E-02)
 number of electron      16.0000000 magnetization 
 augmentation part        0.0503672 magnetization 

 Free energy of the ion-electron system (eV)
  ---------------------------------------------------
  alpha Z        PSCENC =         0.08964095
  Ewald energy   TEWEN  =       552.56712791
  -Hartree energ DENC   =     -1398.06384225
  -exchange      EXHF   =         0.00000000
  -V(xc)+E(xc)   XCENC  =        78.49251367
  PAW double counting   =     16325.05954610   -16330.12295558
  entropy T*S    EENTRO =        -0.00000000
  eigenvalues    EBANDS =      -265.83728270
  atomic energy  EATOM  =      1011.87641368
  ---------------------------------------------------
  free energy    TOTEN  =       -25.93883823 eV

  energy without entropy =      -25.93883823  energy(sigma->0) =      -25.93883823


--------------------------------------------------------------------------------------------------------




--------------------------------------- Iteration      1(  13)  ---------------------------------------


    POTLOK:  cpu time      2.2305: real time      2.2318
    SETDIJ:  cpu time      0.2772: real time      0.2772
    TRIAL :  cpu time      1.3502: real time      1.3507
    CORREC:  cpu time      3.2325: real time      3.2347
    CHARGE:  cpu time      0.3768: real time      0.3773
    --------------------------------------------
      LOOP:  cpu time      7.4800: real time      7.5023

 eigenvalue-minimisations  :     0
 total energy-change (2. order) :-0.1137609E-02  (-0.3305793E-03)
 number of electron      16.0000000 magnetization 
 augmentation part        0.0502787 magnetization 

 Free energy of the ion-electron system (eV)
  ---------------------------------------------------
  alpha Z        PSCENC =         0.08964095
  Ewald energy   TEWEN  =       552.56712791
  -Hartree energ DENC   =     -1398.18189216
  -exchange      EXHF   =         0.00000000
  -V(xc)+E(xc)   XCENC  =        78.49959452
  PAW double counting   =     16298.34616203   -16303.41096670
  entropy T*S    EENTRO =        -0.00000000
  eigenvalues    EBANDS =      -265.72605606
  atomic energy  EATOM  =      1011.87641368
  ---------------------------------------------------
  free energy    TOTEN  =       -25.93997584 eV

  energy without entropy =      -25.93997584  energy(sigma->0) =      -25.93997584


--------------------------------------------------------------------------------------------------------




--------------------------------------- Iteration      1(  14)  ---------------------------------------


    POTLOK:  cpu time      2.2292: real time      2.2301
    SETDIJ:  cpu time      0.2785: real time      0.2785
    TRIAL :  cpu time      1.3501: real time      1.3511
    CORREC:  cpu time      3.2295: real time      3.2309
    CHARGE:  cpu time      0.3729: real time      0.3729
    --------------------------------------------
      LOOP:  cpu time      7.4756: real time      7.4920

 eigenvalue-minimisations  :     0
 total energy-change (2. order) :-0.3306085E-03  (-0.8956281E-04)
 number of electron      16.0000000 magnetization 
 augmentation part        0.0502017 magnetization 

 Free energy of the ion-electron system (eV)
  ---------------------------------------------------
  alpha Z        PSCENC =         0.08964095
  Ewald energy   TEWEN  =       552.56712791
  -Hartree energ DENC   =     -1398.05674730
  -exchange      EXHF   =         0.00000000
  -V(xc)+E(xc)   XCENC  =        78.49405386
  PAW double counting   =     16261.02951543   -16266.09291850
  entropy T*S    EENTRO =        -0.00000000
  eigenvalues    EBANDS =      -265.84739247
  atomic energy  EATOM  =      1011.87641368
  ---------------------------------------------------
  free energy    TOTEN  =       -25.94030645 eV

  energy without entropy =      -25.94030645  energy(sigma->0) =      -25.94030645


--------------------------------------------------------------------------------------------------------




--------------------------------------- Iteration      1(  15)  ---------------------------------------


    POTLOK:  cpu time      2.2294: real time      2.2307
    SETDIJ:  cpu time      0.2776: real time      0.2776
    TRIAL :  cpu time      1.3533: real time      1.3541
    CORREC:  cpu time      3.2308: real time      3.2325
    CHARGE:  cpu time      0.3700: real time      0.3706
    --------------------------------------------
      LOOP:  cpu time      7.4739: real time      7.4955

 eigenvalue-minimisations  :     0
 total energy-change (2. order) :-0.8920234E-04  (-0.2669488E-04)
 number of electron      16.0000000 magnetization 
 augmentation part        0.0501854 magnetization 

 Free energy of the ion-electron system (eV)
  ---------------------------------------------------
  alpha Z        PSCENC =         0.08964095
  Ewald energy   TEWEN  =       552.56712791
  -Hartree energ DENC   =     -1398.04430562
  -exchange      EXHF   =         0.00000000
  -V(xc)+E(xc)   XCENC  =        78.49395230
  PAW double counting   =     16229.17388914   -16234.23671643
  entropy T*S    EENTRO =        -0.00000000
  eigenvalues    EBANDS =      -265.86039758
  atomic energy  EATOM  =      1011.87641368
  ---------------------------------------------------
  free energy    TOTEN  =       -25.94039565 eV

  energy without entropy =      -25.94039565  energy(sigma->0) =      -25.94039565


--------------------------------------------------------------------------------------------------------




--------------------------------------- Iteration      1(  16)  ---------------------------------------


    POTLOK:  cpu time      2.2258: real time      2.2265
    SETDIJ:  cpu time      0.2830: real time      0.2830
    TRIAL :  cpu time      1.3558: real time      1.3570
    CORREC:  cpu time      3.2327: real time      3.2340
    CHARGE:  cpu time      0.3734: real time      0.3734
    --------------------------------------------
      LOOP:  cpu time      7.4849: real time      7.5052

 eigenvalue-minimisations  :     0
 total energy-change (2. order) :-0.2652268E-04  (-0.8041421E-05)
 number of electron      16.0000000 magnetization 
 augmentation part        0.0501669 magnetization 

 Free energy of the ion-electron system (eV)
  ---------------------------------------------------
  alpha Z        PSCENC =         0.08964095
  Ewald energy   TEWEN  =       552.56712791
  -Hartree energ DENC   =     -1398.06586854
  -exchange      EXHF   =         0.00000000
  -V(xc)+E(xc)   XCENC  =        78.49529278
  PAW double counting   =     16205.83025337   -16210.89309241
  entropy T*S    EENTRO =        -0.00000000
  eigenvalues    EBANDS =      -265.84018991
  atomic energy  EATOM  =      1011.87641368
  ---------------------------------------------------
  free energy    TOTEN  =       -25.94042217 eV

  energy without entropy =      -25.94042217  energy(sigma->0) =      -25.94042217


--------------------------------------------------------------------------------------------------------




--------------------------------------- Iteration      1(  17)  ---------------------------------------


    POTLOK:  cpu time      2.2242: real time      2.2254
    SETDIJ:  cpu time      0.2821: real time      0.2821
    TRIAL :  cpu time      1.3514: real time      1.3519
    CORREC:  cpu time      3.2290: real time      3.2306
    CHARGE:  cpu time      0.3710: real time      0.3715
    --------------------------------------------
      LOOP:  cpu time      7.4731: real time      7.4915

 eigenvalue-minimisations  :     0
 total energy-change (2. order) :-0.7979988E-05  (-0.2929502E-05)
 number of electron      16.0000000 magnetization 
 augmentation part        0.0501454 magnetization 

 Free energy of the ion-electron system (eV)
  ---------------------------------------------------
  alpha Z        PSCENC =         0.08964095
  Ewald energy   TEWEN  =       552.56712791
  -Hartree energ DENC   =     -1398.06152052
  -exchange      EXHF   =         0.00000000
  -V(xc)+E(xc)   XCENC  =        78.49519525
  PAW double counting   =     16189.55558857   -16194.61843089
  entropy T*S    EENTRO =        -0.00000000
  eigenvalues    EBANDS =      -265.84444510
  atomic energy  EATOM  =      1011.87641368
  ---------------------------------------------------
  free energy    TOTEN  =       -25.94043015 eV

  energy without entropy =      -25.94043015  energy(sigma->0) =      -25.94043015


--------------------------------------------------------------------------------------------------------




--------------------------------------- Iteration      1(  18)  ---------------------------------------


    POTLOK:  cpu time      2.2267: real time      2.2274
    SETDIJ:  cpu time      0.2817: real time      0.2817
    TRIAL :  cpu time      1.3489: real time      1.3498
    CORREC:  cpu time      3.2330: real time      3.2346
    CHARGE:  cpu time      0.3705: real time      0.3705
    --------------------------------------------
      LOOP:  cpu time      7.4800: real time      7.4942

 eigenvalue-minimisations  :     0
 total energy-change (2. order) :-0.2821709E-05  (-0.1112380E-05)
 number of electron      16.0000000 magnetization 
 augmentation part        0.0501255 magnetization 

 Free energy of the ion-electron system (eV)
  ---------------------------------------------------
  alpha Z        PSCENC =         0.08964095
  Ewald energy   TEWEN  =       552.56712791
  -Hartree energ DENC   =     -1398.06196607
  -exchange      EXHF   =         0.00000000
  -V(xc)+E(xc)   XCENC  =        78.49531216
  PAW double counting   =     16179.35812410   -16184.42098827
  entropy T*S    EENTRO =        -0.00000000
  eigenvalues    EBANDS =      -265.84409742
  atomic energy  EATOM  =      1011.87641368
  ---------------------------------------------------
  free energy    TOTEN  =       -25.94043297 eV

  energy without entropy =      -25.94043297  energy(sigma->0) =      -25.94043297


--------------------------------------------------------------------------------------------------------




--------------------------------------- Iteration      1(  19)  ---------------------------------------


    POTLOK:  cpu time      2.2293: real time      2.2305
    SETDIJ:  cpu time      0.2770: real time      0.2771
    TRIAL :  cpu time      1.3510: real time      1.3518
    CORREC:  cpu time      3.2318: real time      3.2336
    CHARGE:  cpu time      0.3693: real time      0.3697
    --------------------------------------------
      LOOP:  cpu time      7.4780: real time      7.4929

 eigenvalue-minimisations  :     0
 total energy-change (2. order) :-0.1011635E-05  (-0.4954243E-06)
 number of electron      16.0000000 magnetization 
 augmentation part        0.0501089 magnetization 

 Free energy of the ion-electron system (eV)
  ---------------------------------------------------
  alpha Z        PSCENC =         0.08964095
  Ewald energy   TEWEN  =       552.56712791
  -Hartree energ DENC   =     -1398.06339037
  -exchange      EXHF   =         0.00000000
  -V(xc)+E(xc)   XCENC  =        78.49534784
  PAW double counting   =     16176.09870531   -16181.16152368
  entropy T*S    EENTRO =        -0.00000000
  eigenvalues    EBANDS =      -265.84275563
  atomic energy  EATOM  =      1011.87641368
  ---------------------------------------------------
  free energy    TOTEN  =       -25.94043398 eV

  energy without entropy =      -25.94043398  energy(sigma->0) =      -25.94043398


--------------------------------------------------------------------------------------------------------




--------------------------------------- Iteration      1(  20)  ---------------------------------------


    POTLOK:  cpu time      2.2281: real time      2.2289
    SETDIJ:  cpu time      0.2758: real time      0.2758
    TRIAL :  cpu time      1.3500: real time      1.3511
    CORREC:  cpu time      3.2322: real time      3.2339
    CHARGE:  cpu time      0.3674: real time      0.3674
    --------------------------------------------
      LOOP:  cpu time      7.4669: real time      7.4880

 eigenvalue-minimisations  :     0
 total energy-change (2. order) :-0.4199246E-06  (-0.2027924E-06)
 number of electron      16.0000000 magnetization 
 augmentation part        0.0501018 magnetization 

 Free energy of the ion-electron system (eV)
  ---------------------------------------------------
  alpha Z        PSCENC =         0.08964095
  Ewald energy   TEWEN  =       552.56712791
  -Hartree energ DENC   =     -1398.06279983
  -exchange      EXHF   =         0.00000000
  -V(xc)+E(xc)   XCENC  =        78.49530107
  PAW double counting   =     16177.23865213   -16182.30139935
  entropy T*S    EENTRO =        -0.00000000
  eigenvalues    EBANDS =      -265.84337095
  atomic energy  EATOM  =      1011.87641368
  ---------------------------------------------------
  free energy    TOTEN  =       -25.94043440 eV

  energy without entropy =      -25.94043440  energy(sigma->0) =      -25.94043440


--------------------------------------------------------------------------------------------------------




--------------------------------------- Iteration      1(  21)  ---------------------------------------


    POTLOK:  cpu time      2.2328: real time      2.2341
    SETDIJ:  cpu time      0.2741: real time      0.2741
    TRIAL :  cpu time      1.3497: real time      1.3502
    CORREC:  cpu time      3.2341: real time      3.2357
    CHARGE:  cpu time      0.3708: real time      0.3714
    --------------------------------------------
      LOOP:  cpu time      7.4951: real time      7.5010

 eigenvalue-minimisations  :     0
 total energy-change (2. order) :-0.1821645E-06  (-0.5915315E-07)
 number of electron      16.0000000 magnetization 
 augmentation part        0.0501011 magnetization 

 Free energy of the ion-electron system (eV)
  ---------------------------------------------------
  alpha Z        PSCENC =         0.08964095
  Ewald energy   TEWEN  =       552.56712791
  -Hartree energ DENC   =     -1398.06393100
  -exchange      EXHF   =         0.00000000
  -V(xc)+E(xc)   XCENC  =        78.49537733
  PAW double counting   =     16179.62166281   -16184.68438320
  entropy T*S    EENTRO =        -0.00000000
  eigenvalues    EBANDS =      -265.84234307
  atomic energy  EATOM  =      1011.87641368
  ---------------------------------------------------
  free energy    TOTEN  =       -25.94043459 eV

  energy without entropy =      -25.94043459  energy(sigma->0) =      -25.94043459


--------------------------------------------------------------------------------------------------------




--------------------------------------- Iteration      1(  22)  ---------------------------------------


    POTLOK:  cpu time      2.2271: real time      2.2281
    SETDIJ:  cpu time      0.2783: real time      0.2783
    TRIAL :  cpu time      1.3499: real time      1.3509
    CORREC:  cpu time      3.2340: real time      3.2352
    EDDIAG:  cpu time      0.3513: real time      0.3518
    CHARGE:  cpu time      0.3680: real time      0.3685
    --------------------------------------------
      LOOP:  cpu time      7.8228: real time      7.8430

 eigenvalue-minimisations  :     0
 total energy-change (2. order) :-0.5991023E-07  (-0.1328446E-07)
 number of electron      16.0000000 magnetization 
 augmentation part        0.0501023 magnetization 

 Free energy of the ion-electron system (eV)
  ---------------------------------------------------
  alpha Z        PSCENC =         0.08964095
  Ewald energy   TEWEN  =       552.56712791
  -Hartree energ DENC   =     -1398.06364286
  -exchange      EXHF   =         0.00000000
  -V(xc)+E(xc)   XCENC  =        78.49535544
  PAW double counting   =     16180.85333625   -16185.91604866
  entropy T*S    EENTRO =        -0.00000000
  eigenvalues    EBANDS =      -265.84261737
  atomic energy  EATOM  =      1011.87641368
  ---------------------------------------------------
  free energy    TOTEN  =       -25.94043465 eV

  energy without entropy =      -25.94043465  energy(sigma->0) =      -25.94043465


--------------------------------------------------------------------------------------------------------


  average scaling for gradient   1.0642


 average (electrostatic) potential at core
  the test charge radii are     0.5770  0.5955
  (the norm of the test charge is              1.0000)
       1 -93.1907       2-125.6053       3-125.6075



 E-fermi :  -9.3449     XC(G=0):  -0.0671     alpha+bet : -0.0337

 Fermi energy:        -9.3448521847

 k-point     1 :       0.0000    0.0000    0.0000
  band No.  band energies     occupation 
      1     -30.6123      2.00000
      2     -29.5037      2.00000
      3     -14.5362      2.00000
      4     -13.2367      2.00000
      5     -13.1094      2.00000
      6     -13.1094      2.00000
      7      -9.4068      2.00000
      8      -9.4068      2.00000
      9      -0.3601      0.00000
     10      -0.0377      0.00000
     11      -0.0253      0.00000
     12       0.0932      0.00000


--------------------------------------------------------------------------------------------------------


 soft charge-density along one line, spin component           1
         0         1         2         3         4         5         6         7         8         9
 total charge-density along one line

 pseudopotential strength for first ion, spin component:           1
 12.843  21.615   0.000   0.000  -0.000  -0.000   0.000  -0.000
 21.615  36.378  -0.000   0.000  -0.000  -0.000   0.000  -0.000
  0.000  -0.000  -3.306   0.000  -0.000  -5.927  -0.000   0.000
  0.000   0.000   0.000  -3.306  -0.000  -0.000  -5.927   0.000
 -0.000  -0.000  -0.000  -0.000  -3.306   0.000   0.000  -5.927
 -0.000  -0.000  -5.927  -0.000   0.000 -10.604  -0.002   0.002
  0.000   0.000  -0.000  -5.927   0.000  -0.002 -10.604   0.002
 -0.000  -0.000   0.000   0.000  -5.927   0.002   0.002 -10.604
 total augmentation occupancy for first ion, spin component:           1
 12.825  -5.281   0.011  -0.011  -0.009  -0.005   0.005   0.004
 -5.281   2.290  -0.005   0.006   0.004   0.002  -0.002  -0.002
  0.011  -0.005   8.707   4.262  -4.358  -3.282  -1.886   1.928
 -0.011   0.006   4.262   8.514  -4.260  -1.886  -3.197   1.885
 -0.009   0.004  -4.358  -4.260   8.703   1.928   1.885  -3.280
 -0.005   0.002  -3.282  -1.886   1.928   1.273   0.832  -0.851
  0.005  -0.002  -1.886  -3.197   1.885   0.832   1.235  -0.832
  0.004  -0.002   1.928   1.885  -3.280  -0.851  -0.832   1.272


------------------------ aborting loop because EDIFF is reached ----------------------------------------


    FORLOC:  cpu time      0.0267: real time      0.0267
    FORNL :  cpu time      0.0103: real time      0.0106
    FORCOR:  cpu time      2.1449: real time      2.1459
    OFIELD:  cpu time      0.0070: real time      0.0070

 VOLUME and BASIS-vectors are now :
 -----------------------------------------------------------------------------
  energy-cutoff  :     1000.00
  volume of cell :     8000.00
      direct lattice vectors                 reciprocal lattice vectors
    20.000000000  0.000000000  0.000000000     0.050000000  0.000000000  0.000000000
     0.000000000 20.000000000  0.000000000     0.000000000  0.050000000  0.000000000
     0.000000000  0.000000000 20.000000000     0.000000000  0.000000000  0.050000000

  length of vectors
    20.000000000 20.000000000 20.000000000     0.050000000  0.050000000  0.050000000


 FORCES acting on ions:
    Electron-Ion                     Ewald-Force                    Non-Local-Force
 -----------------------------------------------------------------------------------------------
   -.362E+00 0.433E+00 -.649E+00   0.358E+00 -.427E+00 0.617E+00   0.683E-02 -.682E-02 -.388E-02
   -.165E+03 0.165E+03 0.162E+03   0.202E+03 -.202E+03 -.198E+03   -.368E+02 0.369E+02 0.362E+02
   0.165E+03 -.166E+03 -.161E+03   -.202E+03 0.202E+03 0.197E+03   0.369E+02 -.370E+02 -.360E+02
 -----------------------------------------------------------------------------------------------
   -.106E+00 0.129E+00 -.221E+00   0.000E+00 0.000E+00 0.000E+00   0.106E+00 -.129E+00 0.221E+00


 POSITION                                       TOTAL-FORCE (eV/Angst)
 -----------------------------------------------------------------------------------
     10.00062      9.99922     10.00163         0.001828      0.000712     -0.036392
     10.67966      9.32001      9.33520        -0.555954      0.554877      0.561727
      9.32034     10.67999     10.66480         0.554126     -0.555589     -0.525336
 -----------------------------------------------------------------------------------
    total drift:                               -0.000184     -0.000059      0.000011


--------------------------------------------------------------------------------------------------------



  FREE ENERGIE OF THE ION-ELECTRON SYSTEM (eV)
  ---------------------------------------------------
  free  energy   TOTEN  =       -25.94043465 eV

  energy  without entropy=      -25.94043465  energy(sigma->0) =      -25.94043465



--------------------------------------------------------------------------------------------------------


    POTLOK:  cpu time      2.5283: real time      2.5294


--------------------------------------------------------------------------------------------------------


 stress matrix after NEB project (eV)
      0.00000      0.00000      0.00000
      0.00000      0.00000      0.00000
      0.00000      0.00000      0.00000
  FORCES: max atom, RMS     0.965666    0.780075
  FORCE total and by dimension    1.351130    0.561727
  Stress total and by dimension    0.000000    0.000000
     LOOP+:  cpu time    144.1166: real time    144.4877
    4ORBIT:  cpu time      0.0000: real time      0.0000

 total amount of memory used by VASP MPI-rank0   129582. kBytes
=======================================================================

   base      :      30000. kBytes
   nonl-proj :       1580. kBytes
   fftplans  :      29139. kBytes
   grid      :      67569. kBytes
   one-center:          1. kBytes
   wavefun   :       1293. kBytes

  
  
 General timing and accounting informations for this job:
 ========================================================
  
                  Total CPU time used (sec):      156.849
                            User time (sec):      153.854
                          System time (sec):        2.995
                         Elapsed time (sec):      160.221
  
                   Maximum memory used (kb):      360484.
                   Average memory used (kb):          N/A
  
                          Minor page faults:       148272
                          Major page faults:         1161
                 Voluntary context switches:         3728
