 vasp.6.4.1 05Apr23 (build Jun  6 2023 14:46:38) gamma-only                      
 executed on        HPECrayEX_GCC date 2024.08.21  01:29:49
 running  256 mpi-ranks, with    1 threads/rank, on    2 nodes
 distrk:  each k-point on  128 cores,    2 groups
 distr:  one band on NCORE=  32 cores,    4 groups


--------------------------------------------------------------------------------------------------------


 INCAR:
   ALGO = Conjugate
   KPAR = 2
   NCORE = 32
   PREC = Accurate
   EDIFF = 1E-7
   ENCUT = 1000
   ISMEAR = 0
   SIGMA = 0.01
   ISIF = 0
   GGA = PE
   IVDW = 202
   LVDWEXPANSION = .TRUE.
   LWAVE = .FALSE.
   LCHARG = .FALSE.
   SYMPREC = 1E-7
   LWAVE = .FALSE.
   LCHARG = .FALSE.

 POTCAR:    PAW_PBE C_h 06Feb2004                 
 POTCAR:    PAW_PBE H_h 06Feb2004                 
 POTCAR:    PAW_PBE C_h 06Feb2004                 
   VRHFIN =C: s2p2                                                                                  
   LEXCH  = PE                                                                                      
   EATOM  =   147.1560 eV,   10.8157 Ry                                                             
                                                                                                    
   TITEL  = PAW_PBE C_h 06Feb2004                                                                   
   LULTRA =        F    use ultrasoft PP ?                                                          
   IUNSCR =        1    unscreen: 0-lin 1-nonlin 2-no                                               
   RPACOR =    0.800    partial core radius                                                         
   POMASS =   12.011; ZVAL   =    4.000    mass and valenz                                          
   RCORE  =    1.100    outmost cutoff radius                                                       
   RWIGS  =    1.630; RWIGS  =    0.863    wigner-seitz radius (au A)                               
   ENMAX  =  700.000; ENMIN  =  500.000 eV                                                          
   ICORE  =        2    local potential                                                             
   LCOR   =        T    correct aug charges                                                         
   LPAW   =        T    paw PP                                                                      
   EAUG   =  946.768                                                                                
   DEXC   =    0.000                                                                                
   RMAX   =    1.128    core radius for proj-oper                                                   
   RAUG   =    1.300    factor for augmentation sphere                                              
   RDEP   =    1.162    radius for radial grids                                                     
   RDEPT  =    1.088    core radius for aug-charge                                                  
                                                                                                    
   Atomic configuration                                                                             
    4 entries                                                                                       
     n  l   j            E        occ.                                                              
     1  0  0.50      -273.3789   2.0000                                                             
     2  0  0.50       -13.7508   2.0000                                                             
     2  1  0.50        -5.2854   2.0000                                                             
     3  2  1.50        -5.4423   0.0000                                                             
   Description                                                                                      
     l       E           TYP  RCUT    TYP  RCUT                                                     
     0    -13.7508458     23  1.100                                                                 
     0     -8.2022199     23  1.100                                                                 
     1     -5.2854383     23  1.100                                                                 
     1      1.1560700     23  1.100                                                                 
     2     -5.4423304      7  1.100                                                                 
  local pseudopotential read in
  partial core-charges read in
  partial kinetic energy density read in
  atomic valenz-charges read in
  non local Contribution for L=           0  read in
    real space projection operators read in
  non local Contribution for L=           0  read in
    real space projection operators read in
  non local Contribution for L=           1  read in
    real space projection operators read in
  non local Contribution for L=           1  read in
    real space projection operators read in
    PAW grid and wavefunctions read in

   number of l-projection  operators is LMAX  =           4
   number of lm-projection operators is LMMAX =           8

 POTCAR:    PAW_PBE H_h 06Feb2004                 
   VRHFIN =H: ultrasoft test                                                                        
   LEXCH  = PE                                                                                      
   EATOM  =    12.4884 eV,    0.9179 Ry                                                             
                                                                                                    
   TITEL  = PAW_PBE H_h 06Feb2004                                                                   
   LULTRA =        F    use ultrasoft PP ?                                                          
   IUNSCR =        0    unscreen: 0-lin 1-nonlin 2-no                                               
   RPACOR =    0.000    partial core radius                                                         
   POMASS =    1.000; ZVAL   =    1.000    mass and valenz                                          
   RCORE  =    0.800    outmost cutoff radius                                                       
   RWIGS  =    0.700; RWIGS  =    0.370    wigner-seitz radius (au A)                               
   ENMAX  =  700.000; ENMIN  =  350.000 eV                                                          
   RCLOC  =    0.701    cutoff for local pot                                                        
   LCOR   =        T    correct aug charges                                                         
   LPAW   =        T    paw PP                                                                      
   EAUG   = 1000.000                                                                                
   RMAX   =    0.819    core radius for proj-oper                                                   
   RAUG   =    1.000    factor for augmentation sphere                                              
   RDEP   =    0.817    radius for radial grids                                                     
   RDEPT  =    0.817    core radius for aug-charge                                                  
                                                                                                    
   Atomic configuration                                                                             
    2 entries                                                                                       
     n  l   j            E        occ.                                                              
     1  0  0.50        -6.4927   1.0000                                                             
     2  1  0.50        -3.4015   0.0000                                                             
   Description                                                                                      
     l       E           TYP  RCUT    TYP  RCUT                                                     
     0     -6.4927493     23  0.800                                                                 
     0      6.8029130     23  0.800                                                                 
     1     -6.8029130     23  0.800                                                                 
  local pseudopotential read in
  atomic valenz-charges read in
  non local Contribution for L=           0  read in
    real space projection operators read in
  non local Contribution for L=           0  read in
    real space projection operators read in
  non local Contribution for L=           1  read in
    real space projection operators read in
    PAW grid and wavefunctions read in

   number of l-projection  operators is LMAX  =           3
   number of lm-projection operators is LMMAX =           5

 -----------------------------------------------------------------------------
|                                                                             |
|               ----> ADVICE to this user running VASP <----                  |
|                                                                             |
|     You have a (more or less) 'large supercell' and for larger cells it     |
|     might be more efficient to use real-space projection operators.         |
|     Therefore, try LREAL= Auto in the INCAR file.                           |
|     Mind: For very accurate calculation, you might also keep the            |
|     reciprocal projection scheme (i.e. LREAL=.FALSE.).                      |
|                                                                             |
 -----------------------------------------------------------------------------

  PAW_PBE C_h 06Feb2004                 :
 energy of atom  1       EATOM= -147.1560
 kinetic energy error for atom=    0.0031 (will be added to EATOM!!)
  PAW_PBE H_h 06Feb2004                 :
 energy of atom  2       EATOM=  -12.4884
 kinetic energy error for atom=    0.0006 (will be added to EATOM!!)


 POSCAR:  C  H
  positions in cartesian coordinates
  No initial velocities read in
 exchange correlation table for  LEXCH =        8
   RHO(1)=    0.500       N(1)  =     2000
   RHO(2)=  100.500       N(2)  =     4000

 VTST: version 4.1, (05/19/21)

 CHAIN: initializing optimizer
 
 OPT: Using VASP Dynamics algorithm
 CHAIN: Read ICHAIN            0

 POSCAR:  C  H
  positions in cartesian coordinates
  No initial velocities read in



--------------------------------------------------------------------------------------------------------


 ion  position               nearest neighbor table
   1  0.388  0.388  0.500-  17 1.09   2 1.37   6 1.42
   2  0.443  0.388  0.500-  18 1.09   1 1.37   3 1.43
   3  0.472  0.444  0.500-   7 1.40   2 1.43   4 1.45
   4  0.443  0.500  0.500-   8 1.40   5 1.43   3 1.45
   5  0.386  0.498  0.500-  19 1.09   6 1.37   4 1.43
   6  0.360  0.444  0.500-  20 1.09   5 1.37   1 1.42
   7  0.528  0.445  0.500-  16 1.09   3 1.40  10 1.40
   8  0.472  0.555  0.500-  21 1.09   4 1.40   9 1.40
   9  0.528  0.556  0.500-   8 1.40  14 1.43  10 1.45
  10  0.557  0.500  0.500-   7 1.40  11 1.43   9 1.45
  11  0.614  0.502  0.500-  15 1.09  12 1.37  10 1.43
  12  0.640  0.556  0.500-  22 1.09  11 1.37  13 1.42
  13  0.612  0.612  0.500-  23 1.09  14 1.37  12 1.42
  14  0.557  0.612  0.500-  24 1.09  13 1.37   9 1.43
  15  0.636  0.459  0.501-  11 1.09
  16  0.551  0.402  0.501-   7 1.09
  17  0.366  0.345  0.500-   1 1.09
  18  0.465  0.345  0.500-   2 1.09
  19  0.364  0.541  0.499-   5 1.09
  20  0.316  0.443  0.499-   6 1.09
  21  0.449  0.598  0.499-   8 1.09
  22  0.684  0.557  0.501-  12 1.09
  23  0.634  0.655  0.500-  13 1.09
  24  0.535  0.655  0.500-  14 1.09

  LATTYP: Found a simple orthorhombic cell.
 ALAT       =    20.0000000000
 B/A-ratio  =     1.1000000000
 C/A-ratio  =     1.2500000000
  
  Lattice vectors:
  
 A1 = (   0.0000000000,   0.0000000000, -20.0000000000)
 A2 = (   0.0000000000,  22.0000000000,   0.0000000000)
 A3 = (  25.0000000000,   0.0000000000,   0.0000000000)


Analysis of symmetry for initial positions (statically):
=====================================================================
 Subroutine PRICEL returns:
 Original cell was already a primitive cell.
 

 Routine SETGRP: Setting up the symmetry group for a 
 simple orthorhombic supercell.


 Subroutine GETGRP returns: Found  1 space group operations
 (whereof  1 operations were pure point group operations)
 out of a pool of  8 trial point group operations.


The static configuration has the point symmetry C_1 .


Analysis of symmetry for dynamics (positions and initial velocities):
=====================================================================
 Subroutine PRICEL returns:
 Original cell was already a primitive cell.
 

 Routine SETGRP: Setting up the symmetry group for a 
 simple orthorhombic supercell.


 Subroutine GETGRP returns: Found  1 space group operations
 (whereof  1 operations were pure point group operations)
 out of a pool of  8 trial point group operations.


The dynamic configuration has the point symmetry C_1 .


 Subroutine INISYM returns: Found  1 space group operations
 (whereof  1 operations are pure point group operations),
 and found     1 'primitive' translations


----------------------------------------------------------------------------------------

                                     Primitive cell                                     

  volume of cell :   11000.0000

  direct lattice vectors                    reciprocal lattice vectors
    25.000000000  0.000000000  0.000000000     0.040000000  0.000000000  0.000000000
     0.000000000 22.000000000  0.000000000     0.000000000  0.045454545  0.000000000
     0.000000000  0.000000000 20.000000000     0.000000000  0.000000000  0.050000000

  length of vectors
    25.000000000 22.000000000 20.000000000     0.040000000  0.045454545  0.050000000

  position of ions in fractional coordinates (direct lattice)
     0.388325800  0.387904318  0.499848500
     0.443155800  0.387912045  0.500095500
     0.472484600  0.443506136  0.500058500
     0.443183000  0.500151591  0.499757500
     0.386177000  0.498072500  0.499513000
     0.359505000  0.443629773  0.499552000
     0.528453000  0.444987500  0.500293500
     0.471540600  0.555006591  0.499718500
     0.527513800  0.556487955  0.499952000
     0.556810600  0.499843864  0.500246000
     0.613818600  0.501926591  0.500483500
     0.640498600  0.556367500  0.500438500
     0.611670600  0.612088864  0.500151500
     0.556838600  0.612080227  0.499910000
     0.635854600  0.459216591  0.500711500
     0.550554600  0.402258864  0.500513000
     0.366478200  0.345139318  0.499869000
     0.465283400  0.345264318  0.500315000
     0.364143000  0.540781591  0.499288500
     0.315993400  0.442745682  0.499367500
     0.449435000  0.597737045  0.499498500
     0.684006600  0.557253864  0.500630500
     0.633514600  0.654860682  0.500129000
     0.534710600  0.654726591  0.499702000

  ion indices of the primitive-cell ions
   primitive index   ion index
                 1           1
                 2           2
                 3           3
                 4           4
                 5           5
                 6           6
                 7           7
                 8           8
                 9           9
                10          10
                11          11
                12          12
                13          13
                14          14
                15          15
                16          16
                17          17
                18          18
                19          19
                20          20
                21          21
                22          22
                23          23
                24          24

----------------------------------------------------------------------------------------



 KPOINTS: auto                                    

Automatic generation of k-mesh.
 Grid dimensions read from file:
 generate k-points for:    1    1    1

 Generating k-lattice:

  Cartesian coordinates                     Fractional coordinates (reciprocal lattice)
     0.040000000  0.000000000  0.000000000     1.000000000  0.000000000  0.000000000
     0.000000000  0.045454545  0.000000000     0.000000000  1.000000000  0.000000000
     0.000000000  0.000000000  0.050000000     0.000000000  0.000000000  1.000000000

  Length of vectors
     0.040000000  0.045454545  0.050000000

  Shift w.r.t. Gamma in fractional coordinates (k-lattice)
     0.000000000  0.000000000  0.000000000

 
 Subroutine IBZKPT returns following result:
 ===========================================
 
 Found      1 irreducible k-points:
 
 Following reciprocal coordinates:
            Coordinates               Weight
  0.000000  0.000000  0.000000      1.000000
 
 Following cartesian coordinates:
            Coordinates               Weight
  0.000000  0.000000  0.000000      1.000000
 


--------------------------------------------------------------------------------------------------------




 Dimension of arrays:
   k-points           NKPTS =      1   k-points in BZ     NKDIM =      1   number of bands    NBANDS=     48
   number of dos      NEDOS =    301   number of ions     NIONS =     24
   non local maximal  LDIM  =      4   non local SUM 2l+1 LMDIM =      8
   total plane-waves  NPLWV = ******
   max r-space proj   IRMAX =      1   max aug-charges    IRDMAX=   8405
   dimension x,y,z NGX =   270 NGY =  240 NGZ =  210
   dimension x,y,z NGXF=   540 NGYF=  480 NGZF=  420
   support grid    NGXF=   540 NGYF=  480 NGZF=  420
   ions per type =              14  10
   NGX,Y,Z   is equivalent  to a cutoff of  17.95, 18.14, 17.46 a.u.
   NGXF,Y,Z  is equivalent  to a cutoff of  35.91, 36.27, 34.91 a.u.

 SYSTEM =  unknown system                          
 POSCAR =   C  H                                   

 Startparameter for this run:
   NWRITE =      2    write-flag & timer
   PREC   = accura    normal or accurate (medium, high low for compatibility)
   ISTART =      0    job   : 0-new  1-cont  2-samecut
   ICHARG =      2    charge: 1-file 2-atom 10-const
   ISPIN  =      1    spin polarized calculation?
   LNONCOLLINEAR =      F non collinear calculations
   LSORBIT =      F    spin-orbit coupling
   INIWAV =      1    electr: 0-lowe 1-rand  2-diag
   LASPH  =      F    aspherical Exc in radial PAW
 Electronic Relaxation 1
   ENCUT  = 1000.0 eV  73.50 Ry    8.57 a.u.  64.46 56.73 51.57*2*pi/ulx,y,z
   ENINI  = 1000.0     initial cutoff
   ENAUG  = 1000.0 eV  augmentation charge cutoff
   NELM   =     60;   NELMIN=  2; NELMDL= -5     # of ELM steps 
   EDIFF  = 0.1E-06   stopping-criterion for ELM
   LREAL  =      F    real-space projection
   NLSPLINE    = F    spline interpolate recip. space projectors
   LCOMPAT=      F    compatible to vasp.4.4
   GGA_COMPAT  = T    GGA compatible to vasp.4.4-vasp.4.6
   LMAXPAW     = -100 max onsite density
   LMAXMIX     =    2 max onsite mixed and CHGCAR
   VOSKOWN=      0    Vosko Wilk Nusair interpolation
   ROPT   =    0.00000   0.00000
 Ionic relaxation
   EDIFFG = 0.1E-05   stopping-criterion for IOM
   NSW    =      0    number of steps for IOM
   NBLOCK =      1;   KBLOCK =      1    inner block; outer block 
   IBRION =     -1    ionic relax: 0-MD 1-quasi-New 2-CG
   NFREE  =      0    steps in history (QN), initial steepest desc. (CG)
   ISIF   =      0    stress and relaxation
   IWAVPR =     10    prediction:  0-non 1-charg 2-wave 3-comb
   ISYM   =      2    0-nonsym 1-usesym 2-fastsym
   LCORR  =      T    Harris-Foulkes like correction to forces

   POTIM  = 0.5000    time-step for ionic-motion
   TEIN   =    0.0    initial temperature
   TEBEG  =    0.0;   TEEND  =   0.0 temperature during run
   SMASS  =  -3.00    Nose mass-parameter (am)
   estimated Nose-frequenzy (Omega)   =  0.10E-29 period in steps = 0.13E+47 mass=  -0.143E-25a.u.
   SCALEE = 1.0000    scale energy and forces
   NPACO  =    256;   APACO  = 10.0  distance and # of slots for P.C.
   PSTRESS=    0.0 pullay stress

  Mass of Ions in am
   POMASS =  12.01  1.00
  Ionic Valenz
   ZVAL   =   4.00  1.00
  Atomic Wigner-Seitz radii
   RWIGS  =  -1.00 -1.00
  virtual crystal weights 
   VCA    =   1.00  1.00
   NELECT =      66.0000    total number of electrons
   NUPDOWN=      -1.0000    fix difference up-down

 DOS related values:
   EMIN   =  10.00;   EMAX   =-10.00  energy-range for DOS
   EFERMI =   0.00;   METHOD = LEGACY      
   ISMEAR =     0;   SIGMA  =   0.01  broadening in eV -4-tet -1-fermi 0-gaus

 Electronic relaxation 2 (details)
   IALGO  =     58    algorithm
   LDIAG  =      T    sub-space diagonalisation (order eigenvalues)
   LSUBROT=      F    optimize rotation matrix (better conditioning)
   TURBO    =      0    0=normal 1=particle mesh
   IRESTART =      0    0=no restart 2=restart with 2 vectors
   NREBOOT  =      0    no. of reboots
   NMIN     =      0    reboot dimension
   EREF     =   0.00    reference energy to select bands
   IMIX   =      4    mixing-type and parameters
     AMIX     =   0.40;   BMIX     =  1.00
     AMIX_MAG =   1.60;   BMIX_MAG =  1.00
     AMIN     =   0.10
     WC   =   100.;   INIMIX=   1;  MIXPRE=   1;  MAXMIX= -45

 Intra band minimization:
   WEIMIN = 0.0000     energy-eigenvalue tresh-hold
   EBREAK =  0.52E-09  absolut break condition
   DEPER  =   0.30     relativ break condition  

   TIME   =   0.40     timestep for ELM

  volume/ion in A,a.u.               =     458.33      3092.99
  Fermi-wavevector in a.u.,A,eV,Ry     =   0.297481  0.562157  1.204043  0.088495
  Thomas-Fermi vector in A             =   1.163009

 Write flags
   LWAVE        =      F    write WAVECAR
   LDOWNSAMPLE  =      F    k-point downsampling of WAVECAR
   LCHARG       =      F    write CHGCAR
   LVTOT        =      F    write LOCPOT, total local potential
   LVHAR        =      F    write LOCPOT, Hartree potential only
   LELF         =      F    write electronic localiz. function (ELF)
   LORBIT       =      0    0 simple, 1 ext, 2 COOP (PROOUT), +10 PAW based schemes


 Dipole corrections
   LMONO  =      F    monopole corrections only (constant potential shift)
   LDIPOL =      F    correct potential (dipole corrections)
   IDIPOL =      0    1-x, 2-y, 3-z, 4-all directions 
   EPSILON=  1.0000000 bulk dielectric constant

 Exchange correlation treatment:
   GGA     =    PE    GGA type
   LEXCH   =     8    internal setting for exchange type
   LIBXC   =     F    Libxc                    
   VOSKOWN =     0    Vosko Wilk Nusair interpolation
   LHFCALC =     F    Hartree Fock is set to
   LHFONE  =     F    Hartree Fock one center treatment
   AEXX    =    0.0000 exact exchange contribution

 Linear response parameters
   LEPSILON=     F    determine dielectric tensor
   LRPA    =     F    only Hartree local field effects (RPA)
   LNABLA  =     F    use nabla operator in PAW spheres
   LVEL    =     F    velocity operator in full k-point grid
   CSHIFT  =0.1000    complex shift for real part using Kramers Kronig
   OMEGAMAX=  -1.0    maximum frequency
   DEG_THRESHOLD= 0.2000000E-02 threshold for treating states as degnerate
   RTIME   =   -0.100 relaxation time in fs
  (WPLASMAI=    0.000 imaginary part of plasma frequency in eV, 0.658/RTIME)
   DFIELD  = 0.0000000 0.0000000 0.0000000 field for delta impulse in time

  Optional k-point grid parameters
   LKPOINTS_OPT  =     F    use optional k-point grid
   KPOINTS_OPT_MODE=     1    mode for optional k-point grid

 Orbital magnetization related:
   ORBITALMAG=     F  switch on orbital magnetization
   LCHIMAG   =     F  perturbation theory with respect to B field
   DQ        =  0.001000  dq finite difference perturbation B field
   LLRAUG    =     F  two centre corrections for induced B field
   LBONE     =     F  B-component reconstruction in AE one-centre
   LVGVCALC  =     T  calculate vGv susceptibility
   LVGVAPPL  =     F  apply vGv susceptibility instead of pGv for G=0

 Random number generation:
   RANDOM_GENERATOR = DEFAULT
   PCG_SEED         = not used


--------------------------------------------------------------------------------------------------------


 Static calculation
 charge density and potential will be updated during run
 non-spin polarized calculation
 Conjugate gradient for all bands (Freysoldt, et al. PRB 79, 241103 (2009))
 preconditioned conjugated gradient                                        
 perform sub-space diagonalisation
    before iterative eigenvector-optimisation
 modified Broyden-mixing scheme, WC =      100.0
 initial mixing is a Kerker type mixing with AMIX =  0.4000 and BMIX =      1.0000
 Hartree-type preconditioning will be used
 using additional bands           15
 reciprocal scheme for non local part
 use partial core corrections
 no Harris-corrections to forces 
 use gradient corrections 
 use of overlap-Matrix (Vanderbilt PP)
 Gauss-broadening in eV      SIGMA  =   0.01


--------------------------------------------------------------------------------------------------------


  energy-cutoff  :     1000.00
  volume of cell :    11000.00
      direct lattice vectors                 reciprocal lattice vectors
    25.000000000  0.000000000  0.000000000     0.040000000  0.000000000  0.000000000
     0.000000000 22.000000000  0.000000000     0.000000000  0.045454545  0.000000000
     0.000000000  0.000000000 20.000000000     0.000000000  0.000000000  0.050000000

  length of vectors
    25.000000000 22.000000000 20.000000000     0.040000000  0.045454545  0.050000000



 k-points in units of 2pi/SCALE and weight: auto                                    
   0.00000000  0.00000000  0.00000000       1.000

 k-points in reciprocal lattice and weights: auto                                    
   0.00000000  0.00000000  0.00000000       1.000

 position of ions in fractional coordinates (direct lattice) 
   0.38832580  0.38790432  0.49984850
   0.44315580  0.38791205  0.50009550
   0.47248460  0.44350614  0.50005850
   0.44318300  0.50015159  0.49975750
   0.38617700  0.49807250  0.49951300
   0.35950500  0.44362977  0.49955200
   0.52845300  0.44498750  0.50029350
   0.47154060  0.55500659  0.49971850
   0.52751380  0.55648795  0.49995200
   0.55681060  0.49984386  0.50024600
   0.61381860  0.50192659  0.50048350
   0.64049860  0.55636750  0.50043850
   0.61167060  0.61208886  0.50015150
   0.55683860  0.61208023  0.49991000
   0.63585460  0.45921659  0.50071150
   0.55055460  0.40225886  0.50051300
   0.36647820  0.34513932  0.49986900
   0.46528340  0.34526432  0.50031500
   0.36414300  0.54078159  0.49928850
   0.31599340  0.44274568  0.49936750
   0.44943500  0.59773705  0.49949850
   0.68400660  0.55725386  0.50063050
   0.63351460  0.65486068  0.50012900
   0.53471060  0.65472659  0.49970200

 position of ions in cartesian coordinates  (Angst):
   9.70814500  8.53389500  9.99697000
  11.07889500  8.53406500 10.00191000
  11.81211500  9.75713500 10.00117000
  11.07957500 11.00333500  9.99515000
   9.65442500 10.95759500  9.99026000
   8.98762500  9.75985500  9.99104000
  13.21132500  9.78972500 10.00587000
  11.78851500 12.21014500  9.99437000
  13.18784500 12.24273500  9.99904000
  13.92026500 10.99656500 10.00492000
  15.34546500 11.04238500 10.00967000
  16.01246500 12.24008500 10.00877000
  15.29176500 13.46595500 10.00303000
  13.92096500 13.46576500  9.99820000
  15.89636500 10.10276500 10.01423000
  13.76386500  8.84969500 10.01026000
   9.16195500  7.59306500  9.99738000
  11.63208500  7.59581500 10.00630000
   9.10357500 11.89719500  9.98577000
   7.89983500  9.74040500  9.98735000
  11.23587500 13.15021500  9.98997000
  17.10016500 12.25958500 10.01261000
  15.83786500 14.40693500 10.00258000
  13.36776500 14.40398500  9.99404000



--------------------------------------------------------------------------------------------------------


 use parallel FFT for orbitals z direction half grid
 k-point   1 :   0.0000 0.0000 0.0000  plane waves:  394958

 maximum and minimum number of plane-waves per node :     12350    12337

 maximum number of plane-waves:    394958
 maximum index in each direction: 
   IXMAX=   64   IYMAX=   56   IZMAX=   51
   IXMIN=  -64   IYMIN=  -56   IZMIN=    0


 parallel 3D FFT for wavefunctions:
    minimum data exchange during FFTs selected (reduces bandwidth)
 parallel 3D FFT for charge:
    minimum data exchange during FFTs selected (reduces bandwidth)


 total amount of memory used by VASP MPI-rank0   160487. kBytes
=======================================================================

   base      :      30000. kBytes
   nonl-proj :       6320. kBytes
   fftplans  :      42238. kBytes
   grid      :      74818. kBytes
   one-center:          1. kBytes
   wavefun   :       7110. kBytes

     INWAV:  cpu time      0.0001: real time      0.0001
 Broyden mixing: mesh for mixing (old mesh)
   NGX =129   NGY =113   NGZ =103
  (NGX  =540   NGY  =480   NGZ  =420)
  gives a total of ****** points

 initial charge density was supplied:
 charge density of overlapping atoms calculated
 number of electron      66.0000000 magnetization 
 keeping initial charge density in first step


--------------------------------------------------------------------------------------------------------


 Maximum index for augmentation-charges          481 (set IRDMAX)


--------------------------------------------------------------------------------------------------------


 First call to EWALD:  gamma=   0.080
 Maximum number of real-space cells 2x 3x 3
 Maximum number of reciprocal cells 3x 3x 3

    FEWALD:  cpu time      0.0032: real time      0.0032


--------------------------------------- Ionic step        1  -------------------------------------------




--------------------------------------- Iteration      1(   1)  ---------------------------------------


    POTLOK:  cpu time      1.5099: real time      1.5115
    SETDIJ:  cpu time      0.0169: real time      0.0173
    TRIAL :  cpu time      2.5545: real time      2.5571
    CORREC:  cpu time      0.0004: real time      0.0004
    --------------------------------------------
      LOOP:  cpu time      4.1012: real time      4.1059

 eigenvalue-minimisations  :   112
 total energy-change (2. order) : 0.7651113E+03  (-0.1852811E+04)
 number of electron      66.0000000 magnetization 
 augmentation part       66.0000000 magnetization 

 Free energy of the ion-electron system (eV)
  ---------------------------------------------------
  alpha Z        PSCENC =         1.29646524
  Ewald energy   TEWEN  =      6284.88547218
  -Hartree energ DENC   =     -7701.40518181
  -exchange      EXHF   =         0.00000000
  -V(xc)+E(xc)   XCENC  =       122.03637444
  PAW double counting   =      1608.72988703    -1535.18366493
  entropy T*S    EENTRO =        -0.00000000
  eigenvalues    EBANDS =      -200.26684075
  atomic energy  EATOM  =      2185.01883462
  ---------------------------------------------------
  free energy    TOTEN  =       765.11134602 eV

  energy without entropy =      765.11134602  energy(sigma->0) =      765.11134602


--------------------------------------------------------------------------------------------------------




--------------------------------------- Iteration      1(   2)  ---------------------------------------


    TRIAL :  cpu time      3.5650: real time      3.5666
    CORREC:  cpu time      0.0004: real time      0.0004
    --------------------------------------------
      LOOP:  cpu time      3.5924: real time      3.5940

 eigenvalue-minimisations  :   184
 total energy-change (2. order) :-0.4386690E+03  (-0.4082841E+03)
 number of electron      66.0000000 magnetization 
 augmentation part       66.0000000 magnetization 

 Free energy of the ion-electron system (eV)
  ---------------------------------------------------
  alpha Z        PSCENC =         1.29646524
  Ewald energy   TEWEN  =      6284.88547218
  -Hartree energ DENC   =     -7701.40518181
  -exchange      EXHF   =         0.00000000
  -V(xc)+E(xc)   XCENC  =       122.03637444
  PAW double counting   =      1608.72988703    -1535.18366493
  entropy T*S    EENTRO =        -0.00061946
  eigenvalues    EBANDS =      -638.93524696
  atomic energy  EATOM  =      2185.01883462
  ---------------------------------------------------
  free energy    TOTEN  =       326.44232035 eV

  energy without entropy =      326.44293981  energy(sigma->0) =      326.44263008


--------------------------------------------------------------------------------------------------------




--------------------------------------- Iteration      1(   3)  ---------------------------------------


    TRIAL :  cpu time      3.0636: real time      3.0654
    CORREC:  cpu time      0.0001: real time      0.0001
    --------------------------------------------
      LOOP:  cpu time      3.0794: real time      3.0932

 eigenvalue-minimisations  :   152
 total energy-change (2. order) :-0.3757216E+03  (-0.3603759E+03)
 number of electron      66.0000000 magnetization 
 augmentation part       66.0000000 magnetization 

 Free energy of the ion-electron system (eV)
  ---------------------------------------------------
  alpha Z        PSCENC =         1.29646524
  Ewald energy   TEWEN  =      6284.88547218
  -Hartree energ DENC   =     -7701.40518181
  -exchange      EXHF   =         0.00000000
  -V(xc)+E(xc)   XCENC  =       122.03637444
  PAW double counting   =      1608.72988703    -1535.18366493
  entropy T*S    EENTRO =        -0.00000000
  eigenvalues    EBANDS =     -1014.65750818
  atomic energy  EATOM  =      2185.01883462
  ---------------------------------------------------
  free energy    TOTEN  =       -49.27932141 eV

  energy without entropy =      -49.27932141  energy(sigma->0) =      -49.27932141


--------------------------------------------------------------------------------------------------------




--------------------------------------- Iteration      1(   4)  ---------------------------------------


    TRIAL :  cpu time      2.5844: real time      2.5865
    CORREC:  cpu time      0.0001: real time      0.0001
    --------------------------------------------
      LOOP:  cpu time      2.6116: real time      2.6140

 eigenvalue-minimisations  :   120
 total energy-change (2. order) :-0.1202564E+03  (-0.1199170E+03)
 number of electron      66.0000000 magnetization 
 augmentation part       66.0000000 magnetization 

 Free energy of the ion-electron system (eV)
  ---------------------------------------------------
  alpha Z        PSCENC =         1.29646524
  Ewald energy   TEWEN  =      6284.88547218
  -Hartree energ DENC   =     -7701.40518181
  -exchange      EXHF   =         0.00000000
  -V(xc)+E(xc)   XCENC  =       122.03637444
  PAW double counting   =      1608.72988703    -1535.18366493
  entropy T*S    EENTRO =        -0.00000000
  eigenvalues    EBANDS =     -1134.91392846
  atomic energy  EATOM  =      2185.01883462
  ---------------------------------------------------
  free energy    TOTEN  =      -169.53574169 eV

  energy without entropy =     -169.53574169  energy(sigma->0) =     -169.53574169


--------------------------------------------------------------------------------------------------------




--------------------------------------- Iteration      1(   5)  ---------------------------------------


    TRIAL :  cpu time      2.4512: real time      2.4526
    CORREC:  cpu time      0.0001: real time      0.0001
    CHARGE:  cpu time      0.4734: real time      0.4749
    --------------------------------------------
      LOOP:  cpu time      2.9376: real time      2.9555

 eigenvalue-minimisations  :   112
 total energy-change (2. order) :-0.9536577E+01  (-0.9483659E+01)
 number of electron      66.0000000 magnetization 
 augmentation part       -0.0533024 magnetization 

 Free energy of the ion-electron system (eV)
  ---------------------------------------------------
  alpha Z        PSCENC =         1.29646524
  Ewald energy   TEWEN  =      6284.88547218
  -Hartree energ DENC   =     -7701.40518181
  -exchange      EXHF   =         0.00000000
  -V(xc)+E(xc)   XCENC  =       122.03637444
  PAW double counting   =      1608.72988703    -1535.18366493
  entropy T*S    EENTRO =        -0.00000000
  eigenvalues    EBANDS =     -1144.45050541
  atomic energy  EATOM  =      2185.01883462
  ---------------------------------------------------
  free energy    TOTEN  =      -179.07231864 eV

  energy without entropy =     -179.07231864  energy(sigma->0) =     -179.07231864


--------------------------------------------------------------------------------------------------------




--------------------------------------- Iteration      1(   6)  ---------------------------------------


    POTLOK:  cpu time      1.5190: real time      1.5196
    SETDIJ:  cpu time      0.0172: real time      0.0172
    TRIAL :  cpu time      1.4882: real time      1.4908
    CORREC:  cpu time      2.3494: real time      2.3509
    CHARGE:  cpu time      0.4283: real time      0.4287
    --------------------------------------------
      LOOP:  cpu time      5.8177: real time      5.8352

 eigenvalue-minimisations  :     0
 total energy-change (2. order) : 0.2735382E+02  (-0.9905239E+01)
 number of electron      66.0000000 magnetization 
 augmentation part       -0.0693501 magnetization 

 Free energy of the ion-electron system (eV)
  ---------------------------------------------------
  alpha Z        PSCENC =         1.29646524
  Ewald energy   TEWEN  =      6284.88547218
  -Hartree energ DENC   =     -8314.52979520
  -exchange      EXHF   =         0.00000000
  -V(xc)+E(xc)   XCENC  =       143.99792271
  PAW double counting   =     21164.39060859   -21093.35711231
  entropy T*S    EENTRO =        -0.00000000
  eigenvalues    EBANDS =      -523.42089322
  atomic energy  EATOM  =      2185.01883462
  ---------------------------------------------------
  free energy    TOTEN  =      -151.71849740 eV

  energy without entropy =     -151.71849740  energy(sigma->0) =     -151.71849740


--------------------------------------------------------------------------------------------------------




--------------------------------------- Iteration      1(   7)  ---------------------------------------


    POTLOK:  cpu time      1.5245: real time      1.5251
    SETDIJ:  cpu time      0.0106: real time      0.0106
    TRIAL :  cpu time      1.4756: real time      1.4766
    CORREC:  cpu time      2.3380: real time      2.3387
    CHARGE:  cpu time      0.4294: real time      0.4294
    --------------------------------------------
      LOOP:  cpu time      5.8074: real time      5.8098

 eigenvalue-minimisations  :     0
 total energy-change (2. order) :-0.9969271E+01  (-0.9609420E+00)
 number of electron      66.0000000 magnetization 
 augmentation part       -0.0860985 magnetization 

 Free energy of the ion-electron system (eV)
  ---------------------------------------------------
  alpha Z        PSCENC =         1.29646524
  Ewald energy   TEWEN  =      6284.88547218
  -Hartree energ DENC   =     -8057.06146997
  -exchange      EXHF   =         0.00000000
  -V(xc)+E(xc)   XCENC  =       135.85208743
  PAW double counting   =     25533.15882239   -25461.07198381
  entropy T*S    EENTRO =        -0.00000000
  eigenvalues    EBANDS =      -783.76599628
  atomic energy  EATOM  =      2185.01883462
  ---------------------------------------------------
  free energy    TOTEN  =      -161.68776820 eV

  energy without entropy =     -161.68776820  energy(sigma->0) =     -161.68776820


--------------------------------------------------------------------------------------------------------




--------------------------------------- Iteration      1(   8)  ---------------------------------------


    POTLOK:  cpu time      1.5251: real time      1.5263
    SETDIJ:  cpu time      0.0046: real time      0.0046
    TRIAL :  cpu time      1.4764: real time      1.4768
    CORREC:  cpu time      2.3396: real time      2.3411
    CHARGE:  cpu time      0.4284: real time      0.4284
    --------------------------------------------
      LOOP:  cpu time      5.7969: real time      5.8073

 eigenvalue-minimisations  :     0
 total energy-change (2. order) :-0.9633416E+00  (-0.3720914E+00)
 number of electron      66.0000000 magnetization 
 augmentation part       -0.0893123 magnetization 

 Free energy of the ion-electron system (eV)
  ---------------------------------------------------
  alpha Z        PSCENC =         1.29646524
  Ewald energy   TEWEN  =      6284.88547218
  -Hartree energ DENC   =     -8054.64285348
  -exchange      EXHF   =         0.00000000
  -V(xc)+E(xc)   XCENC  =       135.88225536
  PAW double counting   =     27295.17344313   -27222.95015780
  entropy T*S    EENTRO =        -0.00000000
  eigenvalues    EBANDS =      -787.31456900
  atomic energy  EATOM  =      2185.01883462
  ---------------------------------------------------
  free energy    TOTEN  =      -162.65110975 eV

  energy without entropy =     -162.65110975  energy(sigma->0) =     -162.65110975


--------------------------------------------------------------------------------------------------------




--------------------------------------- Iteration      1(   9)  ---------------------------------------


    POTLOK:  cpu time      1.5218: real time      1.5227
    SETDIJ:  cpu time      0.0090: real time      0.0090
    TRIAL :  cpu time      1.4795: real time      1.4804
    CORREC:  cpu time      2.3358: real time      2.3375
    CHARGE:  cpu time      0.4297: real time      0.4297
    --------------------------------------------
      LOOP:  cpu time      5.7875: real time      5.8087

 eigenvalue-minimisations  :     0
 total energy-change (2. order) :-0.3666378E+00  (-0.1628898E+00)
 number of electron      66.0000000 magnetization 
 augmentation part       -0.0904179 magnetization 

 Free energy of the ion-electron system (eV)
  ---------------------------------------------------
  alpha Z        PSCENC =         1.29646524
  Ewald energy   TEWEN  =      6284.88547218
  -Hartree energ DENC   =     -8046.77568532
  -exchange      EXHF   =         0.00000000
  -V(xc)+E(xc)   XCENC  =       135.65792964
  PAW double counting   =     27962.97586149   -27890.66461614
  entropy T*S    EENTRO =        -0.00000000
  eigenvalues    EBANDS =      -795.41200923
  atomic energy  EATOM  =      2185.01883462
  ---------------------------------------------------
  free energy    TOTEN  =      -163.01774752 eV

  energy without entropy =     -163.01774752  energy(sigma->0) =     -163.01774752


--------------------------------------------------------------------------------------------------------




--------------------------------------- Iteration      1(  10)  ---------------------------------------


    POTLOK:  cpu time      1.5240: real time      1.5248
    SETDIJ:  cpu time      0.0047: real time      0.0047
    TRIAL :  cpu time      1.4771: real time      1.4776
    CORREC:  cpu time      2.3310: real time      2.3327
    CHARGE:  cpu time      0.4276: real time      0.4281
    --------------------------------------------
      LOOP:  cpu time      5.7930: real time      5.7966

 eigenvalue-minimisations  :     0
 total energy-change (2. order) :-0.1594010E+00  (-0.4958826E-01)
 number of electron      66.0000000 magnetization 
 augmentation part       -0.0902474 magnetization 

 Free energy of the ion-electron system (eV)
  ---------------------------------------------------
  alpha Z        PSCENC =         1.29646524
  Ewald energy   TEWEN  =      6284.88547218
  -Hartree energ DENC   =     -8038.98653979
  -exchange      EXHF   =         0.00000000
  -V(xc)+E(xc)   XCENC  =       135.50322234
  PAW double counting   =     27652.61691145   -27580.29665482
  entropy T*S    EENTRO =        -0.00000000
  eigenvalues    EBANDS =      -803.21485972
  atomic energy  EATOM  =      2185.01883462
  ---------------------------------------------------
  free energy    TOTEN  =      -163.17714851 eV

  energy without entropy =     -163.17714851  energy(sigma->0) =     -163.17714851


--------------------------------------------------------------------------------------------------------




--------------------------------------- Iteration      1(  11)  ---------------------------------------


    POTLOK:  cpu time      1.5267: real time      1.5270
    SETDIJ:  cpu time      0.0008: real time      0.0008
    TRIAL :  cpu time      1.4759: real time      1.4769
    CORREC:  cpu time      2.3110: real time      2.3121
    CHARGE:  cpu time      0.4273: real time      0.4279
    --------------------------------------------
      LOOP:  cpu time      5.7549: real time      5.7747

 eigenvalue-minimisations  :     0
 total energy-change (2. order) :-0.4928416E-01  (-0.1343658E-01)
 number of electron      66.0000000 magnetization 
 augmentation part       -0.0896003 magnetization 

 Free energy of the ion-electron system (eV)
  ---------------------------------------------------
  alpha Z        PSCENC =         1.29646524
  Ewald energy   TEWEN  =      6284.88547218
  -Hartree energ DENC   =     -8038.04539354
  -exchange      EXHF   =         0.00000000
  -V(xc)+E(xc)   XCENC  =       135.51265072
  PAW double counting   =     27230.49308628   -27158.20096021
  entropy T*S    EENTRO =        -0.00000000
  eigenvalues    EBANDS =      -804.18658797
  atomic energy  EATOM  =      2185.01883462
  ---------------------------------------------------
  free energy    TOTEN  =      -163.22643267 eV

  energy without entropy =     -163.22643267  energy(sigma->0) =     -163.22643267


--------------------------------------------------------------------------------------------------------




--------------------------------------- Iteration      1(  12)  ---------------------------------------


    POTLOK:  cpu time      1.5053: real time      1.5061
    SETDIJ:  cpu time      0.0050: real time      0.0050
    TRIAL :  cpu time      1.4793: real time      1.4805
    CORREC:  cpu time      2.3103: real time      2.3116
    CHARGE:  cpu time      0.4277: real time      0.4277
    --------------------------------------------
      LOOP:  cpu time      5.7413: real time      5.7601

 eigenvalue-minimisations  :     0
 total energy-change (2. order) :-0.1342249E-01  (-0.3637491E-02)
 number of electron      66.0000000 magnetization 
 augmentation part       -0.0893604 magnetization 

 Free energy of the ion-electron system (eV)
  ---------------------------------------------------
  alpha Z        PSCENC =         1.29646524
  Ewald energy   TEWEN  =      6284.88547218
  -Hartree energ DENC   =     -8037.94319081
  -exchange      EXHF   =         0.00000000
  -V(xc)+E(xc)   XCENC  =       135.48488165
  PAW double counting   =     27064.48199615   -26992.20459080
  entropy T*S    EENTRO =        -0.00000000
  eigenvalues    EBANDS =      -804.25972339
  atomic energy  EATOM  =      2185.01883462
  ---------------------------------------------------
  free energy    TOTEN  =      -163.23985516 eV

  energy without entropy =     -163.23985516  energy(sigma->0) =     -163.23985516


--------------------------------------------------------------------------------------------------------




--------------------------------------- Iteration      1(  13)  ---------------------------------------


    POTLOK:  cpu time      1.4970: real time      1.4979
    SETDIJ:  cpu time      0.0095: real time      0.0095
    TRIAL :  cpu time      1.4746: real time      1.4751
    CORREC:  cpu time      2.3011: real time      2.3027
    CHARGE:  cpu time      0.4279: real time      0.4279
    --------------------------------------------
      LOOP:  cpu time      5.7231: real time      5.7427

 eigenvalue-minimisations  :     0
 total energy-change (2. order) :-0.3639224E-02  (-0.1170938E-02)
 number of electron      66.0000000 magnetization 
 augmentation part       -0.0892398 magnetization 

 Free energy of the ion-electron system (eV)
  ---------------------------------------------------
  alpha Z        PSCENC =         1.29646524
  Ewald energy   TEWEN  =      6284.88547218
  -Hartree energ DENC   =     -8037.88607727
  -exchange      EXHF   =         0.00000000
  -V(xc)+E(xc)   XCENC  =       135.46579193
  PAW double counting   =     27062.98375285   -26990.71088724
  entropy T*S    EENTRO =        -0.00000000
  eigenvalues    EBANDS =      -804.29684670
  atomic energy  EATOM  =      2185.01883462
  ---------------------------------------------------
  free energy    TOTEN  =      -163.24349438 eV

  energy without entropy =     -163.24349438  energy(sigma->0) =     -163.24349438


--------------------------------------------------------------------------------------------------------




--------------------------------------- Iteration      1(  14)  ---------------------------------------


    POTLOK:  cpu time      1.4938: real time      1.4949
    SETDIJ:  cpu time      0.0009: real time      0.0009
    TRIAL :  cpu time      1.4784: real time      1.4789
    CORREC:  cpu time      2.2918: real time      2.2930
    CHARGE:  cpu time      0.4290: real time      0.4294
    --------------------------------------------
      LOOP:  cpu time      5.7101: real time      5.7252

 eigenvalue-minimisations  :     0
 total energy-change (2. order) :-0.1171862E-02  (-0.4790832E-03)
 number of electron      66.0000000 magnetization 
 augmentation part       -0.0891245 magnetization 

 Free energy of the ion-electron system (eV)
  ---------------------------------------------------
  alpha Z        PSCENC =         1.29646524
  Ewald energy   TEWEN  =      6284.88547218
  -Hartree energ DENC   =     -8038.28142579
  -exchange      EXHF   =         0.00000000
  -V(xc)+E(xc)   XCENC  =       135.47298626
  PAW double counting   =     27102.24339293   -27029.97218163
  entropy T*S    EENTRO =        -0.00000000
  eigenvalues    EBANDS =      -803.90821005
  atomic energy  EATOM  =      2185.01883462
  ---------------------------------------------------
  free energy    TOTEN  =      -163.24466624 eV

  energy without entropy =     -163.24466624  energy(sigma->0) =     -163.24466624


--------------------------------------------------------------------------------------------------------




--------------------------------------- Iteration      1(  15)  ---------------------------------------


    POTLOK:  cpu time      1.4768: real time      1.4771
    SETDIJ:  cpu time      0.0066: real time      0.0066
    TRIAL :  cpu time      1.4750: real time      1.4759
    CORREC:  cpu time      2.2850: real time      2.2864
    CHARGE:  cpu time      0.4285: real time      0.4289
    --------------------------------------------
      LOOP:  cpu time      5.7017: real time      5.7049

 eigenvalue-minimisations  :     0
 total energy-change (2. order) :-0.4806255E-03  (-0.1966320E-03)
 number of electron      66.0000000 magnetization 
 augmentation part       -0.0890279 magnetization 

 Free energy of the ion-electron system (eV)
  ---------------------------------------------------
  alpha Z        PSCENC =         1.29646524
  Ewald energy   TEWEN  =      6284.88547218
  -Hartree energ DENC   =     -8038.57276992
  -exchange      EXHF   =         0.00000000
  -V(xc)+E(xc)   XCENC  =       135.47855574
  PAW double counting   =     27130.81616315   -27058.54458718
  entropy T*S    EENTRO =        -0.00000000
  eigenvalues    EBANDS =      -803.62328069
  atomic energy  EATOM  =      2185.01883462
  ---------------------------------------------------
  free energy    TOTEN  =      -163.24514687 eV

  energy without entropy =     -163.24514687  energy(sigma->0) =     -163.24514687


--------------------------------------------------------------------------------------------------------




--------------------------------------- Iteration      1(  16)  ---------------------------------------


    POTLOK:  cpu time      1.4624: real time      1.4630
    SETDIJ:  cpu time      0.0115: real time      0.0115
    TRIAL :  cpu time      1.4756: real time      1.4765
    CORREC:  cpu time      2.2781: real time      2.2790
    CHARGE:  cpu time      0.4286: real time      0.4287
    --------------------------------------------
      LOOP:  cpu time      5.6689: real time      5.6879

 eigenvalue-minimisations  :     0
 total energy-change (2. order) :-0.1976227E-03  (-0.7229068E-04)
 number of electron      66.0000000 magnetization 
 augmentation part       -0.0889629 magnetization 

 Free energy of the ion-electron system (eV)
  ---------------------------------------------------
  alpha Z        PSCENC =         1.29646524
  Ewald energy   TEWEN  =      6284.88547218
  -Hartree energ DENC   =     -8038.63795405
  -exchange      EXHF   =         0.00000000
  -V(xc)+E(xc)   XCENC  =       135.48030600
  PAW double counting   =     27135.92510833   -27063.65261627
  entropy T*S    EENTRO =        -0.00000000
  eigenvalues    EBANDS =      -803.56096055
  atomic energy  EATOM  =      2185.01883462
  ---------------------------------------------------
  free energy    TOTEN  =      -163.24534449 eV

  energy without entropy =     -163.24534449  energy(sigma->0) =     -163.24534449


--------------------------------------------------------------------------------------------------------




--------------------------------------- Iteration      1(  17)  ---------------------------------------


    POTLOK:  cpu time      1.4577: real time      1.4588
    SETDIJ:  cpu time      0.0099: real time      0.0099
    TRIAL :  cpu time      1.4819: real time      1.4825
    CORREC:  cpu time      2.2755: real time      2.2768
    CHARGE:  cpu time      0.4273: real time      0.4278
    --------------------------------------------
      LOOP:  cpu time      5.6669: real time      5.6858

 eigenvalue-minimisations  :     0
 total energy-change (2. order) :-0.7260200E-04  (-0.2613279E-04)
 number of electron      66.0000000 magnetization 
 augmentation part       -0.0889507 magnetization 

 Free energy of the ion-electron system (eV)
  ---------------------------------------------------
  alpha Z        PSCENC =         1.29646524
  Ewald energy   TEWEN  =      6284.88547218
  -Hartree energ DENC   =     -8038.71778235
  -exchange      EXHF   =         0.00000000
  -V(xc)+E(xc)   XCENC  =       135.48360939
  PAW double counting   =     27130.76560828   -27058.49283407
  entropy T*S    EENTRO =        -0.00000000
  eigenvalues    EBANDS =      -803.48479038
  atomic energy  EATOM  =      2185.01883462
  ---------------------------------------------------
  free energy    TOTEN  =      -163.24541709 eV

  energy without entropy =     -163.24541709  energy(sigma->0) =     -163.24541709


--------------------------------------------------------------------------------------------------------




--------------------------------------- Iteration      1(  18)  ---------------------------------------


    POTLOK:  cpu time      1.4624: real time      1.4628
    SETDIJ:  cpu time      0.0047: real time      0.0047
    TRIAL :  cpu time      1.4765: real time      1.4775
    CORREC:  cpu time      2.2762: real time      2.2775
    CHARGE:  cpu time      0.4285: real time      0.4290
    --------------------------------------------
      LOOP:  cpu time      5.6677: real time      5.6814

 eigenvalue-minimisations  :     0
 total energy-change (2. order) :-0.2619133E-04  (-0.1056321E-04)
 number of electron      66.0000000 magnetization 
 augmentation part       -0.0889670 magnetization 

 Free energy of the ion-electron system (eV)
  ---------------------------------------------------
  alpha Z        PSCENC =         1.29646524
  Ewald energy   TEWEN  =      6284.88547218
  -Hartree energ DENC   =     -8038.70680557
  -exchange      EXHF   =         0.00000000
  -V(xc)+E(xc)   XCENC  =       135.48386026
  PAW double counting   =     27127.12254795   -27054.84962895
  entropy T*S    EENTRO =        -0.00000000
  eigenvalues    EBANDS =      -803.49618902
  atomic energy  EATOM  =      2185.01883462
  ---------------------------------------------------
  free energy    TOTEN  =      -163.24544328 eV

  energy without entropy =     -163.24544328  energy(sigma->0) =     -163.24544328


--------------------------------------------------------------------------------------------------------




--------------------------------------- Iteration      1(  19)  ---------------------------------------


    POTLOK:  cpu time      1.4588: real time      1.4595
    SETDIJ:  cpu time      0.0095: real time      0.0095
    TRIAL :  cpu time      1.4755: real time      1.4766
    CORREC:  cpu time      2.2773: real time      2.2786
    CHARGE:  cpu time      0.4296: real time      0.4296
    --------------------------------------------
      LOOP:  cpu time      5.6666: real time      5.6829

 eigenvalue-minimisations  :     0
 total energy-change (2. order) :-0.1043802E-04  (-0.4386382E-05)
 number of electron      66.0000000 magnetization 
 augmentation part       -0.0889869 magnetization 

 Free energy of the ion-electron system (eV)
  ---------------------------------------------------
  alpha Z        PSCENC =         1.29646524
  Ewald energy   TEWEN  =      6284.88547218
  -Hartree energ DENC   =     -8038.68556743
  -exchange      EXHF   =         0.00000000
  -V(xc)+E(xc)   XCENC  =       135.48368537
  PAW double counting   =     27126.12513074   -27053.85221385
  entropy T*S    EENTRO =        -0.00000000
  eigenvalues    EBANDS =      -803.51726059
  atomic energy  EATOM  =      2185.01883462
  ---------------------------------------------------
  free energy    TOTEN  =      -163.24545372 eV

  energy without entropy =     -163.24545372  energy(sigma->0) =     -163.24545372


--------------------------------------------------------------------------------------------------------




--------------------------------------- Iteration      1(  20)  ---------------------------------------


    POTLOK:  cpu time      1.4601: real time      1.4613
    SETDIJ:  cpu time      0.0032: real time      0.0031
    TRIAL :  cpu time      1.4851: real time      1.4857
    CORREC:  cpu time      2.2762: real time      2.2783
    CHARGE:  cpu time      0.4282: real time      0.4282
    --------------------------------------------
      LOOP:  cpu time      5.6663: real time      5.6859

 eigenvalue-minimisations  :     0
 total energy-change (2. order) :-0.4225196E-05  (-0.1595665E-05)
 number of electron      66.0000000 magnetization 
 augmentation part       -0.0889989 magnetization 

 Free energy of the ion-electron system (eV)
  ---------------------------------------------------
  alpha Z        PSCENC =         1.29646524
  Ewald energy   TEWEN  =      6284.88547218
  -Hartree energ DENC   =     -8038.68215640
  -exchange      EXHF   =         0.00000000
  -V(xc)+E(xc)   XCENC  =       135.48347745
  PAW double counting   =     27125.67787506   -27053.40503076
  entropy T*S    EENTRO =        -0.00000000
  eigenvalues    EBANDS =      -803.52039533
  atomic energy  EATOM  =      2185.01883462
  ---------------------------------------------------
  free energy    TOTEN  =      -163.24545795 eV

  energy without entropy =     -163.24545795  energy(sigma->0) =     -163.24545795


--------------------------------------------------------------------------------------------------------




--------------------------------------- Iteration      1(  21)  ---------------------------------------


    POTLOK:  cpu time      1.4573: real time      1.4579
    SETDIJ:  cpu time      0.0107: real time      0.0107
    TRIAL :  cpu time      1.4744: real time      1.4753
    CORREC:  cpu time      2.2802: real time      2.2814
    CHARGE:  cpu time      0.4279: real time      0.4282
    --------------------------------------------
      LOOP:  cpu time      5.6870: real time      5.6901

 eigenvalue-minimisations  :     0
 total energy-change (2. order) :-0.1529250E-05  (-0.5357841E-06)
 number of electron      66.0000000 magnetization 
 augmentation part       -0.0890013 magnetization 

 Free energy of the ion-electron system (eV)
  ---------------------------------------------------
  alpha Z        PSCENC =         1.29646524
  Ewald energy   TEWEN  =      6284.88547218
  -Hartree energ DENC   =     -8038.66676771
  -exchange      EXHF   =         0.00000000
  -V(xc)+E(xc)   XCENC  =       135.48297668
  PAW double counting   =     27125.00978500   -27052.73697315
  entropy T*S    EENTRO =        -0.00000000
  eigenvalues    EBANDS =      -803.53525233
  atomic energy  EATOM  =      2185.01883462
  ---------------------------------------------------
  free energy    TOTEN  =      -163.24545948 eV

  energy without entropy =     -163.24545948  energy(sigma->0) =     -163.24545948


--------------------------------------------------------------------------------------------------------




--------------------------------------- Iteration      1(  22)  ---------------------------------------


    POTLOK:  cpu time      1.4629: real time      1.4636
    SETDIJ:  cpu time      0.0033: real time      0.0033
    TRIAL :  cpu time      1.4759: real time      1.4775
    CORREC:  cpu time      2.2781: real time      2.2795
    CHARGE:  cpu time      0.4272: real time      0.4272
    --------------------------------------------
      LOOP:  cpu time      5.6619: real time      5.6806

 eigenvalue-minimisations  :     0
 total energy-change (2. order) :-0.5117363E-06  (-0.1786351E-06)
 number of electron      66.0000000 magnetization 
 augmentation part       -0.0890011 magnetization 

 Free energy of the ion-electron system (eV)
  ---------------------------------------------------
  alpha Z        PSCENC =         1.29646524
  Ewald energy   TEWEN  =      6284.88547218
  -Hartree energ DENC   =     -8038.66972119
  -exchange      EXHF   =         0.00000000
  -V(xc)+E(xc)   XCENC  =       135.48293618
  PAW double counting   =     27124.59164413   -27052.31886397
  entropy T*S    EENTRO =        -0.00000000
  eigenvalues    EBANDS =      -803.53222719
  atomic energy  EATOM  =      2185.01883462
  ---------------------------------------------------
  free energy    TOTEN  =      -163.24545999 eV

  energy without entropy =     -163.24545999  energy(sigma->0) =     -163.24545999


--------------------------------------------------------------------------------------------------------




--------------------------------------- Iteration      1(  23)  ---------------------------------------


    POTLOK:  cpu time      1.4591: real time      1.4605
    SETDIJ:  cpu time      0.0063: real time      0.0063
    TRIAL :  cpu time      1.4826: real time      1.4832
    CORREC:  cpu time      2.2777: real time      2.2798
    CHARGE:  cpu time      0.4282: real time      0.4282
    --------------------------------------------
      LOOP:  cpu time      5.6698: real time      5.6871

 eigenvalue-minimisations  :     0
 total energy-change (2. order) :-0.1746557E-06  (-0.7214048E-07)
 number of electron      66.0000000 magnetization 
 augmentation part       -0.0890003 magnetization 

 Free energy of the ion-electron system (eV)
  ---------------------------------------------------
  alpha Z        PSCENC =         1.29646524
  Ewald energy   TEWEN  =      6284.88547218
  -Hartree energ DENC   =     -8038.66953464
  -exchange      EXHF   =         0.00000000
  -V(xc)+E(xc)   XCENC  =       135.48286930
  PAW double counting   =     27124.64487791   -27052.37209659
  entropy T*S    EENTRO =        -0.00000000
  eigenvalues    EBANDS =      -803.53234818
  atomic energy  EATOM  =      2185.01883462
  ---------------------------------------------------
  free energy    TOTEN  =      -163.24546016 eV

  energy without entropy =     -163.24546016  energy(sigma->0) =     -163.24546016


--------------------------------------------------------------------------------------------------------




--------------------------------------- Iteration      1(  24)  ---------------------------------------


    POTLOK:  cpu time      1.4615: real time      1.4625
    SETDIJ:  cpu time      0.0069: real time      0.0069
    TRIAL :  cpu time      1.4761: real time      1.4766
    CORREC:  cpu time      2.2797: real time      2.2812
    EDDIAG:  cpu time      0.6123: real time      0.6132
    CHARGE:  cpu time      0.4279: real time      0.4279
    --------------------------------------------
      LOOP:  cpu time      6.2777: real time      6.2983

 eigenvalue-minimisations  :     0
 total energy-change (2. order) :-0.6844493E-07  (-0.3464756E-07)
 number of electron      66.0000000 magnetization 
 augmentation part       -0.0889993 magnetization 

 Free energy of the ion-electron system (eV)
  ---------------------------------------------------
  alpha Z        PSCENC =         1.29646524
  Ewald energy   TEWEN  =      6284.88547218
  -Hartree energ DENC   =     -8038.66950520
  -exchange      EXHF   =         0.00000000
  -V(xc)+E(xc)   XCENC  =       135.48286795
  PAW double counting   =     27124.92471040   -27052.65192171
  entropy T*S    EENTRO =        -0.00000000
  eigenvalues    EBANDS =      -803.53238370
  atomic energy  EATOM  =      2185.01883462
  ---------------------------------------------------
  free energy    TOTEN  =      -163.24546023 eV

  energy without entropy =     -163.24546023  energy(sigma->0) =     -163.24546023


--------------------------------------------------------------------------------------------------------


  average scaling for gradient   0.9476


 average (electrostatic) potential at core
  the test charge radii are     0.5770  0.4325
  (the norm of the test charge is              1.0000)
       1 -86.0664       2 -86.0781       3 -86.3274       4 -86.3272       5 -86.0779
       6 -86.0664       7 -86.0904       8 -86.0906       9 -86.3273      10 -86.3274
      11 -86.0781      12 -86.0664      13 -86.0665      14 -86.0779      15 -44.9711
      16 -45.0070      17 -44.9440      18 -44.9716      19 -44.9718      20 -44.9428
      21 -45.0063      22 -44.9439      23 -44.9431      24 -44.9718



 E-fermi :  -4.7642     XC(G=0):  -0.2893     alpha+bet : -0.1589

 Fermi energy:        -4.7642354494

 k-point     1 :       0.0000    0.0000    0.0000
  band No.  band energies     occupation 
      1     -21.8786      2.00000
      2     -21.0759      2.00000
      3     -19.8130      2.00000
      4     -19.3536      2.00000
      5     -18.5224      2.00000
      6     -18.2004      2.00000
      7     -17.2685      2.00000
      8     -15.8556      2.00000
      9     -15.1055      2.00000
     10     -14.7325      2.00000
     11     -14.4529      2.00000
     12     -13.1345      2.00000
     13     -12.7872      2.00000
     14     -12.3209      2.00000
     15     -11.2242      2.00000
     16     -11.1902      2.00000
     17     -10.8867      2.00000
     18     -10.8233      2.00000
     19     -10.2178      2.00000
     20      -9.9507      2.00000
     21      -9.8620      2.00000
     22      -9.7806      2.00000
     23      -9.3206      2.00000
     24      -9.0162      2.00000
     25      -8.9209      2.00000
     26      -8.2336      2.00000
     27      -7.9498      2.00000
     28      -7.7244      2.00000
     29      -7.5024      2.00000
     30      -7.3694      2.00000
     31      -6.3644      2.00000
     32      -6.0559      2.00000
     33      -4.8711      2.00000
     34      -2.5420      0.00000
     35      -1.2993      0.00000
     36      -0.9534      0.00000
     37      -0.4042      0.00000
     38      -0.3942      0.00000
     39      -0.2193      0.00000
     40      -0.1524      0.00000
     41       0.1593      0.00000
     42       0.2015      0.00000
     43       0.2370      0.00000
     44       0.3751      0.00000
     45       0.3932      0.00000
     46       0.4515      0.00000
     47       0.4803      0.00000
     48       0.6095      0.00000


--------------------------------------------------------------------------------------------------------


 soft charge-density along one line, spin component           1
         0         1         2         3         4         5         6         7         8         9
 total charge-density along one line

 pseudopotential strength for first ion, spin component:           1
 12.719  21.404   0.001  -0.000  -0.001   0.001  -0.000  -0.002
 21.404  36.018   0.001  -0.000  -0.002   0.002  -0.000  -0.004
  0.001   0.001  -3.176  -0.000  -0.000  -5.693  -0.000  -0.000
 -0.000  -0.000  -0.000  -3.177   0.000  -0.000  -5.695   0.000
 -0.001  -0.002  -0.000   0.000  -3.176  -0.000   0.000  -5.692
  0.001   0.002  -5.693  -0.000  -0.000 -10.182  -0.000  -0.000
 -0.000  -0.000  -0.000  -5.695   0.000  -0.000 -10.186   0.000
 -0.002  -0.004  -0.000   0.000  -5.692  -0.000   0.000 -10.182
 total augmentation occupancy for first ion, spin component:           1
  7.675  -2.640   0.501   0.001   0.619  -0.233  -0.000  -0.270
 -2.640   0.936  -0.249  -0.000  -0.279   0.112   0.000   0.119
  0.501  -0.249   6.683  -0.011  -0.271  -2.207   0.004   0.121
  0.001  -0.000  -0.011   3.045   0.017   0.004  -0.792  -0.007
  0.619  -0.279  -0.271   0.017   7.461   0.121  -0.007  -2.521
 -0.233   0.112  -2.207   0.004   0.121   0.738  -0.002  -0.053
 -0.000   0.000   0.004  -0.792  -0.007  -0.002   0.209   0.003
 -0.270   0.119   0.121  -0.007  -2.521  -0.053   0.003   0.863


------------------------ aborting loop because EDIFF is reached ----------------------------------------


    FORLOC:  cpu time      0.1300: real time      0.1300
    FORNL :  cpu time      0.1876: real time      0.1879
    FORCOR:  cpu time      1.3508: real time      1.3516
    OFIELD:  cpu time      0.0079: real time      0.0079

  Hirshfeld charges:
            ion         q(e)     
   ------------------------------
      1     C       -0.04739222
      2     C       -0.04485267
      3     C       -0.00091270
      4     C       -0.00092546
      5     C       -0.04486296
      6     C       -0.04738570
      7     C       -0.04404774
      8     C       -0.04404066
      9     C       -0.00092023
     10     C       -0.00092213
     11     C       -0.04485248
     12     C       -0.04739117
     13     C       -0.04738666
     14     C       -0.04486691
     15     H        0.04599985
     16     H        0.04502511
     17     H        0.04668083
     18     H        0.04600616
     19     H        0.04601827
     20     H        0.04665593
     21     H        0.04502160
     22     H        0.04667660
     23     H        0.04666597
     24     H        0.04600936

  Atomic reference data used in the T-S method for vdW correction:
            C6at              R0at           ALPHAat      REFSTATE
            (au)              (au)            (au)                
   ---------------------------------------------------------------
   C          46.600          3.590         12.000         0
   H           6.500          3.099          4.500         0
 
 Nth order contribution to Edisp (eV)
 Edisp(N=2): -0.65254659867105302     
 Edisp(N=3):   6.5474013266493625E-003
 Edisp(N=4):  -1.1822292006926888E-002
 Edisp(N=5):   1.8353739106983998E-004
 Edisp(N=6):  -4.6401721912185651E-004
 Edisp(N=inf): -0.65811680539721651     

  Tkatchenko/Scheffler method for vdW energy calculation
  ---------------------------------------------------------------------------------------------

  Parameters of vdW forcefield:
            C6ts              R0ts          ALPHAts         R0scs        ALPHAscs        RELVOL 
            (au)              (au)           (au)            (au)          (au)                 
   ---------------------------------------------------------------------------------------------
   C          30.244          3.341          9.667          3.343          9.684          0.806
   C          30.674          3.349          9.736          3.285          9.193          0.811
   C          32.885          3.388         10.081          3.176          8.305          0.840
   C          32.885          3.388         10.081          3.176          8.304          0.840
   C          30.675          3.349          9.736          3.285          9.193          0.811
   C          30.246          3.341          9.668          3.343          9.684          0.806
   C          30.968          3.354          9.782          3.365          9.880          0.815
   C          30.969          3.354          9.783          3.365          9.880          0.815
   C          32.885          3.388         10.081          3.176          8.305          0.840
   C          32.885          3.388         10.081          3.176          8.305          0.840
   C          30.676          3.349          9.736          3.285          9.193          0.811
   C          30.245          3.341          9.668          3.343          9.684          0.806
   C          30.245          3.341          9.667          3.343          9.684          0.806
   C          30.674          3.349          9.736          3.285          9.193          0.811
   H           2.538          2.650          2.812          2.388          2.059          0.625
   H           2.664          2.671          2.881          2.371          2.015          0.640
   H           2.390          2.623          2.728          2.404          2.100          0.606
   H           2.538          2.649          2.812          2.388          2.059          0.625
   H           2.538          2.649          2.812          2.388          2.059          0.625
   H           2.390          2.623          2.729          2.404          2.101          0.606
   H           2.664          2.671          2.881          2.371          2.015          0.640
   H           2.390          2.623          2.729          2.404          2.101          0.606
   H           2.390          2.623          2.729          2.404          2.101          0.606
   H           2.538          2.649          2.812          2.388          2.059          0.625

  vdW correction parametrized for the method pbe       

  IVDW = 202
  VDW_RADIUS =    50.000 A
  VDW_SR =     0.830
  VDW_D =     6.000
  SCSRAD =   120.000 A
  LVDWSCS = T
  LSCSGRAD = T
  LSCALER0 = T
  ITIM = -1
  Edisp (eV):   -0.65812
    FORVDW:  cpu time      6.5117: real time      6.5154

 VOLUME and BASIS-vectors are now :
 -----------------------------------------------------------------------------
  energy-cutoff  :     1000.00
  volume of cell :    11000.00
      direct lattice vectors                 reciprocal lattice vectors
    25.000000000  0.000000000  0.000000000     0.040000000  0.000000000  0.000000000
     0.000000000 22.000000000  0.000000000     0.000000000  0.045454545  0.000000000
     0.000000000  0.000000000 20.000000000     0.000000000  0.000000000  0.050000000

  length of vectors
    25.000000000 22.000000000 20.000000000     0.040000000  0.045454545  0.050000000


 FORCES acting on ions:
    Electron-Ion                     Ewald-Force                    Non-Local-Force
 -----------------------------------------------------------------------------------------------
   0.146E+03 0.187E+03 -.238E-02   -.145E+03 -.187E+03 0.660E-02   -.117E+01 0.231E+00 -.524E-02
   -.219E+02 0.216E+03 -.696E+00   0.208E+02 -.217E+03 0.693E+00   0.124E+01 0.429E+00 0.351E-02
   -.435E+01 0.996E+02 -.323E+00   0.512E+01 -.100E+03 0.326E+00   -.819E+00 0.498E+00 -.403E-02
   0.855E+02 -.526E+02 0.431E+00   -.856E+02 0.535E+02 -.434E+00   0.401E-01 -.954E+00 0.378E-02
   0.179E+03 -.125E+03 0.948E+00   -.180E+03 0.124E+03 -.948E+00   0.972E+00 0.868E+00 0.502E-05
   0.236E+03 0.355E+02 0.751E+00   -.236E+03 -.344E+02 -.753E+00   -.372E+00 -.113E+01 0.302E-02
   -.106E+03 0.179E+03 -.866E+00   0.106E+03 -.179E+03 0.865E+00   0.560E-01 -.919E-01 0.216E-03
   0.106E+03 -.179E+03 0.831E+00   -.106E+03 0.179E+03 -.831E+00   -.535E-01 0.955E-01 -.513E-03
   0.438E+01 -.996E+02 0.291E+00   -.514E+01 0.100E+03 -.294E+00   0.811E+00 -.498E+00 0.300E-02
   -.855E+02 0.526E+02 -.417E+00   0.856E+02 -.536E+02 0.420E+00   -.356E-01 0.953E+00 -.265E-02
   -.179E+03 0.125E+03 -.926E+00   0.180E+03 -.124E+03 0.928E+00   -.970E+00 -.869E+00 -.143E-02
   -.236E+03 -.354E+02 -.697E+00   0.236E+03 0.344E+02 0.699E+00   0.365E+00 0.113E+01 -.212E-02
   -.146E+03 -.187E+03 0.372E-02   0.145E+03 0.187E+03 -.667E-02   0.117E+01 -.227E+00 0.305E-02
   0.219E+02 -.216E+03 0.698E+00   -.208E+02 0.217E+03 -.695E+00   -.123E+01 -.429E+00 -.224E-02
   -.629E+02 0.669E+02 -.401E+00   0.659E+02 -.719E+02 0.425E+00   -.293E+01 0.494E+01 -.242E-01
   -.481E+02 0.814E+02 -.383E+00   0.510E+02 -.864E+02 0.406E+00   -.289E+01 0.492E+01 -.230E-01
   0.489E+02 0.762E+02 -.231E-01   -.518E+02 -.813E+02 0.257E-01   0.289E+01 0.501E+01 -.217E-02
   -.279E+02 0.869E+02 -.331E+00   0.308E+02 -.920E+02 0.354E+00   -.289E+01 0.497E+01 -.231E-01
   0.629E+02 -.669E+02 0.399E+00   -.659E+02 0.719E+02 -.423E+00   0.293E+01 -.494E+01 0.238E-01
   0.906E+02 0.521E+01 0.299E+00   -.965E+02 -.529E+01 -.319E+00   0.578E+01 0.854E-01 0.196E-01
   0.481E+02 -.814E+02 0.379E+00   -.510E+02 0.864E+02 -.403E+00   0.289E+01 -.492E+01 0.230E-01
   -.906E+02 -.521E+01 -.304E+00   0.965E+02 0.530E+01 0.325E+00   -.578E+01 -.858E-01 -.205E-01
   -.489E+02 -.762E+02 0.260E-01   0.518E+02 0.813E+02 -.287E-01   -.289E+01 -.501E+01 0.241E-02
   0.279E+02 -.869E+02 0.316E+00   -.308E+02 0.920E+02 -.338E+00   0.289E+01 -.497E+01 0.218E-01
 -----------------------------------------------------------------------------------------------
   0.249E-02 -.499E-02 0.401E-02   0.234E-12 0.995E-13 -.389E-15   -.248E-02 0.500E-02 -.399E-02


 POSITION                                       TOTAL-FORCE (eV/Angst)
 -----------------------------------------------------------------------------------
      9.70814      8.53389      9.99697        -0.018204      0.037178     -0.000773
     11.07889      8.53407     10.00191         0.023523      0.041960     -0.000539
     11.81212      9.75714     10.00117        -0.004653     -0.003553     -0.000466
     11.07957     11.00334      9.99515        -0.002189      0.000280      0.000663
      9.65443     10.95759      9.99026         0.043581     -0.005885     -0.000246
      8.98762      9.75985      9.99104         0.019163     -0.030316      0.001252
     13.21132      9.78973     10.00587        -0.022796      0.039843     -0.000467
     11.78851     12.21014      9.99437         0.024831     -0.037492     -0.000053
     13.18785     12.24273      9.99904        -0.002714      0.003253     -0.000447
     13.92026     10.99657     10.00492         0.006666     -0.000364      0.000169
     15.34547     11.04239     10.00967        -0.041452      0.004154      0.000197
     16.01247     12.24009     10.00877        -0.027584      0.029597      0.000145
     15.29176     13.46596     10.00303         0.019316     -0.033588     -0.000110
     13.92096     13.46577      9.99820        -0.019671     -0.041566      0.001557
     15.89637     10.10277     10.01423         0.031280     -0.068361      0.000047
     13.76386      8.84969     10.01026         0.038110     -0.063635      0.000499
      9.16196      7.59306      9.99738        -0.037223     -0.070142      0.000420
     11.63208      7.59582     10.00630         0.044229     -0.061544      0.000547
      9.10357     11.89720      9.98577        -0.032274      0.069151     -0.000234
      7.89984      9.74040      9.98735        -0.076614      0.001065     -0.000661
     11.23588     13.15021      9.98997        -0.036210      0.061491     -0.000437
     17.10017     12.25958     10.01261         0.079206     -0.001413      0.000085
     15.83786     14.40694     10.00258         0.036052      0.067755     -0.000297
     13.36776     14.40399      9.99404        -0.044375      0.062134     -0.000849
 -----------------------------------------------------------------------------------
    total drift:                                0.000014      0.000005      0.000019


--------------------------------------------------------------------------------------------------------



  FREE ENERGIE OF THE ION-ELECTRON SYSTEM (eV)
  ---------------------------------------------------
  free  energy   TOTEN  =      -163.90357704 eV

  energy  without entropy=     -163.90357704  energy(sigma->0) =     -163.90357704



--------------------------------------------------------------------------------------------------------


    POTLOK:  cpu time      1.4814: real time      1.4823


--------------------------------------------------------------------------------------------------------


 stress matrix after NEB project (eV)
     -0.56164     -0.13464     -0.00150
     -0.13464     -0.40134      0.00058
     -0.00150      0.00058      0.01635
  FORCES: max atom, RMS     0.079408    0.056443
  FORCE total and by dimension    0.276515    0.079206
  Stress total and by dimension    0.716272    0.561641
     LOOP+:  cpu time    135.2875: real time    135.6304
    4ORBIT:  cpu time      0.0000: real time      0.0000

 total amount of memory used by VASP MPI-rank0   160487. kBytes
=======================================================================

   base      :      30000. kBytes
   nonl-proj :       6320. kBytes
   fftplans  :      42238. kBytes
   grid      :      74818. kBytes
   one-center:          1. kBytes
   wavefun   :       7110. kBytes

  
  
 General timing and accounting informations for this job:
 ========================================================
  
                  Total CPU time used (sec):      156.250
                            User time (sec):      153.031
                          System time (sec):        3.219
                         Elapsed time (sec):      159.475
  
                   Maximum memory used (kb):      375168.
                   Average memory used (kb):          N/A
  
                          Minor page faults:       190851
                          Major page faults:         1155
                 Voluntary context switches:         3737
