 vasp.6.4.1 05Apr23 (build Jun  6 2023 14:46:38) gamma-only                      
 executed on        HPECrayEX_GCC date 2024.08.21  01:28:09
 running  256 mpi-ranks, with    1 threads/rank, on    2 nodes
 distrk:  each k-point on  256 cores,    1 groups
 distr:  one band on NCORE=  64 cores,    4 groups


--------------------------------------------------------------------------------------------------------


 INCAR:
   ALGO = Conjugate
   NPAR = 4
   ISMEAR = 0
   SIGMA = 0.01
   PREC = Accurate
   EDIFF = 1E-7
   ENCUT = 1000
   ISIF = 0
   IVDW = 2
   SYMPREC = 1E-7
   LWAVE = .FALSE.
   LCHARG = .FALSE.

 POTCAR:    PAW_PBE C_h 06Feb2004                 
 POTCAR:    PAW_PBE H_h 06Feb2004                 
 POTCAR:    PAW_PBE C_h 06Feb2004                 
   VRHFIN =C: s2p2                                                                                  
   LEXCH  = PE                                                                                      
   EATOM  =   147.1560 eV,   10.8157 Ry                                                             
                                                                                                    
   TITEL  = PAW_PBE C_h 06Feb2004                                                                   
   LULTRA =        F    use ultrasoft PP ?                                                          
   IUNSCR =        1    unscreen: 0-lin 1-nonlin 2-no                                               
   RPACOR =    0.800    partial core radius                                                         
   POMASS =   12.011; ZVAL   =    4.000    mass and valenz                                          
   RCORE  =    1.100    outmost cutoff radius                                                       
   RWIGS  =    1.630; RWIGS  =    0.863    wigner-seitz radius (au A)                               
   ENMAX  =  700.000; ENMIN  =  500.000 eV                                                          
   ICORE  =        2    local potential                                                             
   LCOR   =        T    correct aug charges                                                         
   LPAW   =        T    paw PP                                                                      
   EAUG   =  946.768                                                                                
   DEXC   =    0.000                                                                                
   RMAX   =    1.128    core radius for proj-oper                                                   
   RAUG   =    1.300    factor for augmentation sphere                                              
   RDEP   =    1.162    radius for radial grids                                                     
   RDEPT  =    1.088    core radius for aug-charge                                                  
                                                                                                    
   Atomic configuration                                                                             
    4 entries                                                                                       
     n  l   j            E        occ.                                                              
     1  0  0.50      -273.3789   2.0000                                                             
     2  0  0.50       -13.7508   2.0000                                                             
     2  1  0.50        -5.2854   2.0000                                                             
     3  2  1.50        -5.4423   0.0000                                                             
   Description                                                                                      
     l       E           TYP  RCUT    TYP  RCUT                                                     
     0    -13.7508458     23  1.100                                                                 
     0     -8.2022199     23  1.100                                                                 
     1     -5.2854383     23  1.100                                                                 
     1      1.1560700     23  1.100                                                                 
     2     -5.4423304      7  1.100                                                                 
  local pseudopotential read in
  partial core-charges read in
  partial kinetic energy density read in
  atomic valenz-charges read in
  non local Contribution for L=           0  read in
    real space projection operators read in
  non local Contribution for L=           0  read in
    real space projection operators read in
  non local Contribution for L=           1  read in
    real space projection operators read in
  non local Contribution for L=           1  read in
    real space projection operators read in
    PAW grid and wavefunctions read in

   number of l-projection  operators is LMAX  =           4
   number of lm-projection operators is LMMAX =           8

 POTCAR:    PAW_PBE H_h 06Feb2004                 
   VRHFIN =H: ultrasoft test                                                                        
   LEXCH  = PE                                                                                      
   EATOM  =    12.4884 eV,    0.9179 Ry                                                             
                                                                                                    
   TITEL  = PAW_PBE H_h 06Feb2004                                                                   
   LULTRA =        F    use ultrasoft PP ?                                                          
   IUNSCR =        0    unscreen: 0-lin 1-nonlin 2-no                                               
   RPACOR =    0.000    partial core radius                                                         
   POMASS =    1.000; ZVAL   =    1.000    mass and valenz                                          
   RCORE  =    0.800    outmost cutoff radius                                                       
   RWIGS  =    0.700; RWIGS  =    0.370    wigner-seitz radius (au A)                               
   ENMAX  =  700.000; ENMIN  =  350.000 eV                                                          
   RCLOC  =    0.701    cutoff for local pot                                                        
   LCOR   =        T    correct aug charges                                                         
   LPAW   =        T    paw PP                                                                      
   EAUG   = 1000.000                                                                                
   RMAX   =    0.819    core radius for proj-oper                                                   
   RAUG   =    1.000    factor for augmentation sphere                                              
   RDEP   =    0.817    radius for radial grids                                                     
   RDEPT  =    0.817    core radius for aug-charge                                                  
                                                                                                    
   Atomic configuration                                                                             
    2 entries                                                                                       
     n  l   j            E        occ.                                                              
     1  0  0.50        -6.4927   1.0000                                                             
     2  1  0.50        -3.4015   0.0000                                                             
   Description                                                                                      
     l       E           TYP  RCUT    TYP  RCUT                                                     
     0     -6.4927493     23  0.800                                                                 
     0      6.8029130     23  0.800                                                                 
     1     -6.8029130     23  0.800                                                                 
  local pseudopotential read in
  atomic valenz-charges read in
  non local Contribution for L=           0  read in
    real space projection operators read in
  non local Contribution for L=           0  read in
    real space projection operators read in
  non local Contribution for L=           1  read in
    real space projection operators read in
    PAW grid and wavefunctions read in

   number of l-projection  operators is LMAX  =           3
   number of lm-projection operators is LMMAX =           5

 -----------------------------------------------------------------------------
|                                                                             |
|               ----> ADVICE to this user running VASP <----                  |
|                                                                             |
|     You have a (more or less) 'large supercell' and for larger cells it     |
|     might be more efficient to use real-space projection operators.         |
|     Therefore, try LREAL= Auto in the INCAR file.                           |
|     Mind: For very accurate calculation, you might also keep the            |
|     reciprocal projection scheme (i.e. LREAL=.FALSE.).                      |
|                                                                             |
 -----------------------------------------------------------------------------

  PAW_PBE C_h 06Feb2004                 :
 energy of atom  1       EATOM= -147.1560
 kinetic energy error for atom=    0.0031 (will be added to EATOM!!)
  PAW_PBE H_h 06Feb2004                 :
 energy of atom  2       EATOM=  -12.4884
 kinetic energy error for atom=    0.0006 (will be added to EATOM!!)


 POSCAR:  C  H
  positions in cartesian coordinates
  No initial velocities read in
 exchange correlation table for  LEXCH =        8
   RHO(1)=    0.500       N(1)  =     2000
   RHO(2)=  100.500       N(2)  =     4000

 VTST: version 4.1, (05/19/21)

 CHAIN: initializing optimizer
 
 OPT: Using VASP Dynamics algorithm
 CHAIN: Read ICHAIN            0

 POSCAR:  C  H
  positions in cartesian coordinates
  No initial velocities read in



--------------------------------------------------------------------------------------------------------


 ion  position               nearest neighbor table
   1  0.388  0.388  0.500-  17 1.09   2 1.37   6 1.42
   2  0.443  0.388  0.500-  18 1.09   1 1.37   3 1.43
   3  0.472  0.444  0.500-   7 1.40   2 1.43   4 1.45
   4  0.443  0.500  0.500-   8 1.40   5 1.43   3 1.45
   5  0.386  0.498  0.500-  19 1.09   6 1.37   4 1.43
   6  0.360  0.444  0.500-  20 1.09   5 1.37   1 1.42
   7  0.528  0.445  0.500-  16 1.09   3 1.40  10 1.40
   8  0.472  0.555  0.500-  21 1.09   4 1.40   9 1.40
   9  0.528  0.556  0.500-   8 1.40  14 1.43  10 1.45
  10  0.557  0.500  0.500-   7 1.40  11 1.43   9 1.45
  11  0.614  0.502  0.500-  15 1.09  12 1.37  10 1.43
  12  0.640  0.556  0.500-  22 1.09  11 1.37  13 1.42
  13  0.612  0.612  0.500-  23 1.09  14 1.37  12 1.42
  14  0.557  0.612  0.500-  24 1.09  13 1.37   9 1.43
  15  0.636  0.459  0.501-  11 1.09
  16  0.551  0.402  0.501-   7 1.09
  17  0.366  0.345  0.500-   1 1.09
  18  0.465  0.345  0.500-   2 1.09
  19  0.364  0.541  0.499-   5 1.09
  20  0.316  0.443  0.499-   6 1.09
  21  0.449  0.598  0.499-   8 1.09
  22  0.684  0.557  0.501-  12 1.09
  23  0.634  0.655  0.500-  13 1.09
  24  0.535  0.655  0.500-  14 1.09

  LATTYP: Found a simple orthorhombic cell.
 ALAT       =    20.0000000000
 B/A-ratio  =     1.1000000000
 C/A-ratio  =     1.2500000000
  
  Lattice vectors:
  
 A1 = (   0.0000000000,   0.0000000000, -20.0000000000)
 A2 = (   0.0000000000,  22.0000000000,   0.0000000000)
 A3 = (  25.0000000000,   0.0000000000,   0.0000000000)


Analysis of symmetry for initial positions (statically):
=====================================================================
 Subroutine PRICEL returns:
 Original cell was already a primitive cell.
 

 Routine SETGRP: Setting up the symmetry group for a 
 simple orthorhombic supercell.


 Subroutine GETGRP returns: Found  1 space group operations
 (whereof  1 operations were pure point group operations)
 out of a pool of  8 trial point group operations.


The static configuration has the point symmetry C_1 .


Analysis of symmetry for dynamics (positions and initial velocities):
=====================================================================
 Subroutine PRICEL returns:
 Original cell was already a primitive cell.
 

 Routine SETGRP: Setting up the symmetry group for a 
 simple orthorhombic supercell.


 Subroutine GETGRP returns: Found  1 space group operations
 (whereof  1 operations were pure point group operations)
 out of a pool of  8 trial point group operations.


The dynamic configuration has the point symmetry C_1 .


 Subroutine INISYM returns: Found  1 space group operations
 (whereof  1 operations are pure point group operations),
 and found     1 'primitive' translations


----------------------------------------------------------------------------------------

                                     Primitive cell                                     

  volume of cell :   11000.0000

  direct lattice vectors                    reciprocal lattice vectors
    25.000000000  0.000000000  0.000000000     0.040000000  0.000000000  0.000000000
     0.000000000 22.000000000  0.000000000     0.000000000  0.045454545  0.000000000
     0.000000000  0.000000000 20.000000000     0.000000000  0.000000000  0.050000000

  length of vectors
    25.000000000 22.000000000 20.000000000     0.040000000  0.045454545  0.050000000

  position of ions in fractional coordinates (direct lattice)
     0.388325800  0.387904318  0.499848500
     0.443155800  0.387912045  0.500095500
     0.472484600  0.443506136  0.500058500
     0.443183000  0.500151591  0.499757500
     0.386177000  0.498072500  0.499513000
     0.359505000  0.443629773  0.499552000
     0.528453000  0.444987500  0.500293500
     0.471540600  0.555006591  0.499718500
     0.527513800  0.556487955  0.499952000
     0.556810600  0.499843864  0.500246000
     0.613818600  0.501926591  0.500483500
     0.640498600  0.556367500  0.500438500
     0.611670600  0.612088864  0.500151500
     0.556838600  0.612080227  0.499910000
     0.635854600  0.459216591  0.500711500
     0.550554600  0.402258864  0.500513000
     0.366478200  0.345139318  0.499869000
     0.465283400  0.345264318  0.500315000
     0.364143000  0.540781591  0.499288500
     0.315993400  0.442745682  0.499367500
     0.449435000  0.597737045  0.499498500
     0.684006600  0.557253864  0.500630500
     0.633514600  0.654860682  0.500129000
     0.534710600  0.654726591  0.499702000

  ion indices of the primitive-cell ions
   primitive index   ion index
                 1           1
                 2           2
                 3           3
                 4           4
                 5           5
                 6           6
                 7           7
                 8           8
                 9           9
                10          10
                11          11
                12          12
                13          13
                14          14
                15          15
                16          16
                17          17
                18          18
                19          19
                20          20
                21          21
                22          22
                23          23
                24          24

----------------------------------------------------------------------------------------



 KPOINTS: auto                                    

Automatic generation of k-mesh.
 Grid dimensions read from file:
 generate k-points for:    1    1    1

 Generating k-lattice:

  Cartesian coordinates                     Fractional coordinates (reciprocal lattice)
     0.040000000  0.000000000  0.000000000     1.000000000  0.000000000  0.000000000
     0.000000000  0.045454545  0.000000000     0.000000000  1.000000000  0.000000000
     0.000000000  0.000000000  0.050000000     0.000000000  0.000000000  1.000000000

  Length of vectors
     0.040000000  0.045454545  0.050000000

  Shift w.r.t. Gamma in fractional coordinates (k-lattice)
     0.000000000  0.000000000  0.000000000

 
 Subroutine IBZKPT returns following result:
 ===========================================
 
 Found      1 irreducible k-points:
 
 Following reciprocal coordinates:
            Coordinates               Weight
  0.000000  0.000000  0.000000      1.000000
 
 Following cartesian coordinates:
            Coordinates               Weight
  0.000000  0.000000  0.000000      1.000000
 


--------------------------------------------------------------------------------------------------------




 Dimension of arrays:
   k-points           NKPTS =      1   k-points in BZ     NKDIM =      1   number of bands    NBANDS=     48
   number of dos      NEDOS =    301   number of ions     NIONS =     24
   non local maximal  LDIM  =      4   non local SUM 2l+1 LMDIM =      8
   total plane-waves  NPLWV = ******
   max r-space proj   IRMAX =      1   max aug-charges    IRDMAX=   8405
   dimension x,y,z NGX =   270 NGY =  240 NGZ =  210
   dimension x,y,z NGXF=   540 NGYF=  480 NGZF=  420
   support grid    NGXF=   540 NGYF=  480 NGZF=  420
   ions per type =              14  10
   NGX,Y,Z   is equivalent  to a cutoff of  17.95, 18.14, 17.46 a.u.
   NGXF,Y,Z  is equivalent  to a cutoff of  35.91, 36.27, 34.91 a.u.

 SYSTEM =  unknown system                          
 POSCAR =   C  H                                   

 Startparameter for this run:
   NWRITE =      2    write-flag & timer
   PREC   = accura    normal or accurate (medium, high low for compatibility)
   ISTART =      0    job   : 0-new  1-cont  2-samecut
   ICHARG =      2    charge: 1-file 2-atom 10-const
   ISPIN  =      1    spin polarized calculation?
   LNONCOLLINEAR =      F non collinear calculations
   LSORBIT =      F    spin-orbit coupling
   INIWAV =      1    electr: 0-lowe 1-rand  2-diag
   LASPH  =      F    aspherical Exc in radial PAW
 Electronic Relaxation 1
   ENCUT  = 1000.0 eV  73.50 Ry    8.57 a.u.  64.46 56.73 51.57*2*pi/ulx,y,z
   ENINI  = 1000.0     initial cutoff
   ENAUG  = 1000.0 eV  augmentation charge cutoff
   NELM   =     60;   NELMIN=  2; NELMDL= -5     # of ELM steps 
   EDIFF  = 0.1E-06   stopping-criterion for ELM
   LREAL  =      F    real-space projection
   NLSPLINE    = F    spline interpolate recip. space projectors
   LCOMPAT=      F    compatible to vasp.4.4
   GGA_COMPAT  = T    GGA compatible to vasp.4.4-vasp.4.6
   LMAXPAW     = -100 max onsite density
   LMAXMIX     =    2 max onsite mixed and CHGCAR
   VOSKOWN=      0    Vosko Wilk Nusair interpolation
   ROPT   =    0.00000   0.00000
 Ionic relaxation
   EDIFFG = 0.1E-05   stopping-criterion for IOM
   NSW    =      0    number of steps for IOM
   NBLOCK =      1;   KBLOCK =      1    inner block; outer block 
   IBRION =     -1    ionic relax: 0-MD 1-quasi-New 2-CG
   NFREE  =      0    steps in history (QN), initial steepest desc. (CG)
   ISIF   =      0    stress and relaxation
   IWAVPR =     10    prediction:  0-non 1-charg 2-wave 3-comb
   ISYM   =      2    0-nonsym 1-usesym 2-fastsym
   LCORR  =      T    Harris-Foulkes like correction to forces

   POTIM  = 0.5000    time-step for ionic-motion
   TEIN   =    0.0    initial temperature
   TEBEG  =    0.0;   TEEND  =   0.0 temperature during run
   SMASS  =  -3.00    Nose mass-parameter (am)
   estimated Nose-frequenzy (Omega)   =  0.10E-29 period in steps = 0.13E+47 mass=  -0.143E-25a.u.
   SCALEE = 1.0000    scale energy and forces
   NPACO  =    256;   APACO  = 10.0  distance and # of slots for P.C.
   PSTRESS=    0.0 pullay stress

  Mass of Ions in am
   POMASS =  12.01  1.00
  Ionic Valenz
   ZVAL   =   4.00  1.00
  Atomic Wigner-Seitz radii
   RWIGS  =  -1.00 -1.00
  virtual crystal weights 
   VCA    =   1.00  1.00
   NELECT =      66.0000    total number of electrons
   NUPDOWN=      -1.0000    fix difference up-down

 DOS related values:
   EMIN   =  10.00;   EMAX   =-10.00  energy-range for DOS
   EFERMI =   0.00;   METHOD = LEGACY      
   ISMEAR =     0;   SIGMA  =   0.01  broadening in eV -4-tet -1-fermi 0-gaus

 Electronic relaxation 2 (details)
   IALGO  =     58    algorithm
   LDIAG  =      T    sub-space diagonalisation (order eigenvalues)
   LSUBROT=      F    optimize rotation matrix (better conditioning)
   TURBO    =      0    0=normal 1=particle mesh
   IRESTART =      0    0=no restart 2=restart with 2 vectors
   NREBOOT  =      0    no. of reboots
   NMIN     =      0    reboot dimension
   EREF     =   0.00    reference energy to select bands
   IMIX   =      4    mixing-type and parameters
     AMIX     =   0.40;   BMIX     =  1.00
     AMIX_MAG =   1.60;   BMIX_MAG =  1.00
     AMIN     =   0.10
     WC   =   100.;   INIMIX=   1;  MIXPRE=   1;  MAXMIX= -45

 Intra band minimization:
   WEIMIN = 0.0000     energy-eigenvalue tresh-hold
   EBREAK =  0.52E-09  absolut break condition
   DEPER  =   0.30     relativ break condition  

   TIME   =   0.40     timestep for ELM

  volume/ion in A,a.u.               =     458.33      3092.99
  Fermi-wavevector in a.u.,A,eV,Ry     =   0.297481  0.562157  1.204043  0.088495
  Thomas-Fermi vector in A             =   1.163009

 Write flags
   LWAVE        =      F    write WAVECAR
   LDOWNSAMPLE  =      F    k-point downsampling of WAVECAR
   LCHARG       =      F    write CHGCAR
   LVTOT        =      F    write LOCPOT, total local potential
   LVHAR        =      F    write LOCPOT, Hartree potential only
   LELF         =      F    write electronic localiz. function (ELF)
   LORBIT       =      0    0 simple, 1 ext, 2 COOP (PROOUT), +10 PAW based schemes


 Dipole corrections
   LMONO  =      F    monopole corrections only (constant potential shift)
   LDIPOL =      F    correct potential (dipole corrections)
   IDIPOL =      0    1-x, 2-y, 3-z, 4-all directions 
   EPSILON=  1.0000000 bulk dielectric constant

 Exchange correlation treatment:
   GGA     =    --    GGA type
   LEXCH   =     8    internal setting for exchange type
   LIBXC   =     F    Libxc                    
   VOSKOWN =     0    Vosko Wilk Nusair interpolation
   LHFCALC =     F    Hartree Fock is set to
   LHFONE  =     F    Hartree Fock one center treatment
   AEXX    =    0.0000 exact exchange contribution

 Linear response parameters
   LEPSILON=     F    determine dielectric tensor
   LRPA    =     F    only Hartree local field effects (RPA)
   LNABLA  =     F    use nabla operator in PAW spheres
   LVEL    =     F    velocity operator in full k-point grid
   CSHIFT  =0.1000    complex shift for real part using Kramers Kronig
   OMEGAMAX=  -1.0    maximum frequency
   DEG_THRESHOLD= 0.2000000E-02 threshold for treating states as degnerate
   RTIME   =   -0.100 relaxation time in fs
  (WPLASMAI=    0.000 imaginary part of plasma frequency in eV, 0.658/RTIME)
   DFIELD  = 0.0000000 0.0000000 0.0000000 field for delta impulse in time

  Optional k-point grid parameters
   LKPOINTS_OPT  =     F    use optional k-point grid
   KPOINTS_OPT_MODE=     1    mode for optional k-point grid

 Orbital magnetization related:
   ORBITALMAG=     F  switch on orbital magnetization
   LCHIMAG   =     F  perturbation theory with respect to B field
   DQ        =  0.001000  dq finite difference perturbation B field
   LLRAUG    =     F  two centre corrections for induced B field
   LBONE     =     F  B-component reconstruction in AE one-centre
   LVGVCALC  =     T  calculate vGv susceptibility
   LVGVAPPL  =     F  apply vGv susceptibility instead of pGv for G=0

 Random number generation:
   RANDOM_GENERATOR = DEFAULT
   PCG_SEED         = not used


--------------------------------------------------------------------------------------------------------


 Static calculation
 charge density and potential will be updated during run
 non-spin polarized calculation
 Conjugate gradient for all bands (Freysoldt, et al. PRB 79, 241103 (2009))
 preconditioned conjugated gradient                                        
 perform sub-space diagonalisation
    before iterative eigenvector-optimisation
 modified Broyden-mixing scheme, WC =      100.0
 initial mixing is a Kerker type mixing with AMIX =  0.4000 and BMIX =      1.0000
 Hartree-type preconditioning will be used
 using additional bands           15
 reciprocal scheme for non local part
 use partial core corrections
 no Harris-corrections to forces 
 use gradient corrections 
 use of overlap-Matrix (Vanderbilt PP)
 Gauss-broadening in eV      SIGMA  =   0.01


--------------------------------------------------------------------------------------------------------


  energy-cutoff  :     1000.00
  volume of cell :    11000.00
      direct lattice vectors                 reciprocal lattice vectors
    25.000000000  0.000000000  0.000000000     0.040000000  0.000000000  0.000000000
     0.000000000 22.000000000  0.000000000     0.000000000  0.045454545  0.000000000
     0.000000000  0.000000000 20.000000000     0.000000000  0.000000000  0.050000000

  length of vectors
    25.000000000 22.000000000 20.000000000     0.040000000  0.045454545  0.050000000



 k-points in units of 2pi/SCALE and weight: auto                                    
   0.00000000  0.00000000  0.00000000       1.000

 k-points in reciprocal lattice and weights: auto                                    
   0.00000000  0.00000000  0.00000000       1.000

 position of ions in fractional coordinates (direct lattice) 
   0.38832580  0.38790432  0.49984850
   0.44315580  0.38791205  0.50009550
   0.47248460  0.44350614  0.50005850
   0.44318300  0.50015159  0.49975750
   0.38617700  0.49807250  0.49951300
   0.35950500  0.44362977  0.49955200
   0.52845300  0.44498750  0.50029350
   0.47154060  0.55500659  0.49971850
   0.52751380  0.55648795  0.49995200
   0.55681060  0.49984386  0.50024600
   0.61381860  0.50192659  0.50048350
   0.64049860  0.55636750  0.50043850
   0.61167060  0.61208886  0.50015150
   0.55683860  0.61208023  0.49991000
   0.63585460  0.45921659  0.50071150
   0.55055460  0.40225886  0.50051300
   0.36647820  0.34513932  0.49986900
   0.46528340  0.34526432  0.50031500
   0.36414300  0.54078159  0.49928850
   0.31599340  0.44274568  0.49936750
   0.44943500  0.59773705  0.49949850
   0.68400660  0.55725386  0.50063050
   0.63351460  0.65486068  0.50012900
   0.53471060  0.65472659  0.49970200

 position of ions in cartesian coordinates  (Angst):
   9.70814500  8.53389500  9.99697000
  11.07889500  8.53406500 10.00191000
  11.81211500  9.75713500 10.00117000
  11.07957500 11.00333500  9.99515000
   9.65442500 10.95759500  9.99026000
   8.98762500  9.75985500  9.99104000
  13.21132500  9.78972500 10.00587000
  11.78851500 12.21014500  9.99437000
  13.18784500 12.24273500  9.99904000
  13.92026500 10.99656500 10.00492000
  15.34546500 11.04238500 10.00967000
  16.01246500 12.24008500 10.00877000
  15.29176500 13.46595500 10.00303000
  13.92096500 13.46576500  9.99820000
  15.89636500 10.10276500 10.01423000
  13.76386500  8.84969500 10.01026000
   9.16195500  7.59306500  9.99738000
  11.63208500  7.59581500 10.00630000
   9.10357500 11.89719500  9.98577000
   7.89983500  9.74040500  9.98735000
  11.23587500 13.15021500  9.98997000
  17.10016500 12.25958500 10.01261000
  15.83786500 14.40693500 10.00258000
  13.36776500 14.40398500  9.99404000



--------------------------------------------------------------------------------------------------------


 use parallel FFT for orbitals z direction half grid
 k-point   1 :   0.0000 0.0000 0.0000  plane waves:  394958

 maximum and minimum number of plane-waves per node :      6186     6153

 maximum number of plane-waves:    394958
 maximum index in each direction: 
   IXMAX=   64   IYMAX=   56   IZMAX=   51
   IXMIN=  -64   IYMIN=  -56   IZMIN=    0


 parallel 3D FFT for wavefunctions:
    minimum data exchange during FFTs selected (reduces bandwidth)
 parallel 3D FFT for charge:
    minimum data exchange during FFTs selected (reduces bandwidth)


 total amount of memory used by VASP MPI-rank0   105104. kBytes
=======================================================================

   base      :      30000. kBytes
   nonl-proj :       3155. kBytes
   fftplans  :      24313. kBytes
   grid      :      44083. kBytes
   one-center:          1. kBytes
   wavefun   :       3552. kBytes

     INWAV:  cpu time      0.0001: real time      0.0003
 Broyden mixing: mesh for mixing (old mesh)
   NGX =129   NGY =113   NGZ =103
  (NGX  =540   NGY  =480   NGZ  =420)
  gives a total of ****** points

 initial charge density was supplied:
 charge density of overlapping atoms calculated
 number of electron      66.0000000 magnetization 
 keeping initial charge density in first step


--------------------------------------------------------------------------------------------------------


 Maximum index for augmentation-charges          481 (set IRDMAX)


--------------------------------------------------------------------------------------------------------


 First call to EWALD:  gamma=   0.080
 Maximum number of real-space cells 2x 3x 3
 Maximum number of reciprocal cells 3x 3x 3

    FEWALD:  cpu time      0.0056: real time      0.0057


--------------------------------------- Ionic step        1  -------------------------------------------




--------------------------------------- Iteration      1(   1)  ---------------------------------------


    POTLOK:  cpu time      0.7342: real time      0.7343
    SETDIJ:  cpu time      0.0104: real time      0.0107
    TRIAL :  cpu time      1.1401: real time      1.1429
    CORREC:  cpu time      0.0015: real time      0.0015
    --------------------------------------------
      LOOP:  cpu time      1.8955: real time      1.8989

 eigenvalue-minimisations  :   112
 total energy-change (2. order) : 0.7651113E+03  (-0.1852811E+04)
 number of electron      66.0000000 magnetization 
 augmentation part       66.0000000 magnetization 

 Free energy of the ion-electron system (eV)
  ---------------------------------------------------
  alpha Z        PSCENC =         1.29646524
  Ewald energy   TEWEN  =      6284.88547218
  -Hartree energ DENC   =     -7701.40518181
  -exchange      EXHF   =         0.00000000
  -V(xc)+E(xc)   XCENC  =       122.03637444
  PAW double counting   =      1608.72988703    -1535.18366493
  entropy T*S    EENTRO =        -0.00000000
  eigenvalues    EBANDS =      -200.26684075
  atomic energy  EATOM  =      2185.01883462
  ---------------------------------------------------
  free energy    TOTEN  =       765.11134602 eV

  energy without entropy =      765.11134602  energy(sigma->0) =      765.11134602


--------------------------------------------------------------------------------------------------------




--------------------------------------- Iteration      1(   2)  ---------------------------------------


    TRIAL :  cpu time      1.6149: real time      1.6154
    CORREC:  cpu time      0.0004: real time      0.0004
    --------------------------------------------
      LOOP:  cpu time      1.6316: real time      1.6418

 eigenvalue-minimisations  :   184
 total energy-change (2. order) :-0.4386690E+03  (-0.4082841E+03)
 number of electron      66.0000000 magnetization 
 augmentation part       66.0000000 magnetization 

 Free energy of the ion-electron system (eV)
  ---------------------------------------------------
  alpha Z        PSCENC =         1.29646524
  Ewald energy   TEWEN  =      6284.88547218
  -Hartree energ DENC   =     -7701.40518181
  -exchange      EXHF   =         0.00000000
  -V(xc)+E(xc)   XCENC  =       122.03637444
  PAW double counting   =      1608.72988703    -1535.18366493
  entropy T*S    EENTRO =        -0.00061946
  eigenvalues    EBANDS =      -638.93524696
  atomic energy  EATOM  =      2185.01883462
  ---------------------------------------------------
  free energy    TOTEN  =       326.44232035 eV

  energy without entropy =      326.44293981  energy(sigma->0) =      326.44263008


--------------------------------------------------------------------------------------------------------




--------------------------------------- Iteration      1(   3)  ---------------------------------------


    TRIAL :  cpu time      1.3921: real time      1.3932
    CORREC:  cpu time      0.0001: real time      0.0001
    --------------------------------------------
      LOOP:  cpu time      1.4057: real time      1.4213

 eigenvalue-minimisations  :   152
 total energy-change (2. order) :-0.3757216E+03  (-0.3603759E+03)
 number of electron      66.0000000 magnetization 
 augmentation part       66.0000000 magnetization 

 Free energy of the ion-electron system (eV)
  ---------------------------------------------------
  alpha Z        PSCENC =         1.29646524
  Ewald energy   TEWEN  =      6284.88547218
  -Hartree energ DENC   =     -7701.40518181
  -exchange      EXHF   =         0.00000000
  -V(xc)+E(xc)   XCENC  =       122.03637444
  PAW double counting   =      1608.72988703    -1535.18366493
  entropy T*S    EENTRO =        -0.00000000
  eigenvalues    EBANDS =     -1014.65750818
  atomic energy  EATOM  =      2185.01883462
  ---------------------------------------------------
  free energy    TOTEN  =       -49.27932141 eV

  energy without entropy =      -49.27932141  energy(sigma->0) =      -49.27932141


--------------------------------------------------------------------------------------------------------




--------------------------------------- Iteration      1(   4)  ---------------------------------------


    TRIAL :  cpu time      1.1695: real time      1.1699
    CORREC:  cpu time      0.0001: real time      0.0001
    --------------------------------------------
      LOOP:  cpu time      1.1974: real time      1.1980

 eigenvalue-minimisations  :   120
 total energy-change (2. order) :-0.1202564E+03  (-0.1199170E+03)
 number of electron      66.0000000 magnetization 
 augmentation part       66.0000000 magnetization 

 Free energy of the ion-electron system (eV)
  ---------------------------------------------------
  alpha Z        PSCENC =         1.29646524
  Ewald energy   TEWEN  =      6284.88547218
  -Hartree energ DENC   =     -7701.40518181
  -exchange      EXHF   =         0.00000000
  -V(xc)+E(xc)   XCENC  =       122.03637444
  PAW double counting   =      1608.72988703    -1535.18366493
  entropy T*S    EENTRO =        -0.00000000
  eigenvalues    EBANDS =     -1134.91392846
  atomic energy  EATOM  =      2185.01883462
  ---------------------------------------------------
  free energy    TOTEN  =      -169.53574169 eV

  energy without entropy =     -169.53574169  energy(sigma->0) =     -169.53574169


--------------------------------------------------------------------------------------------------------




--------------------------------------- Iteration      1(   5)  ---------------------------------------


    TRIAL :  cpu time      1.1087: real time      1.1093
    CORREC:  cpu time      0.0001: real time      0.0001
    CHARGE:  cpu time      0.1707: real time      0.1711
    --------------------------------------------
      LOOP:  cpu time      1.2911: real time      1.3087

 eigenvalue-minimisations  :   112
 total energy-change (2. order) :-0.9536577E+01  (-0.9483659E+01)
 number of electron      66.0000000 magnetization 
 augmentation part       -0.0533024 magnetization 

 Free energy of the ion-electron system (eV)
  ---------------------------------------------------
  alpha Z        PSCENC =         1.29646524
  Ewald energy   TEWEN  =      6284.88547218
  -Hartree energ DENC   =     -7701.40518181
  -exchange      EXHF   =         0.00000000
  -V(xc)+E(xc)   XCENC  =       122.03637444
  PAW double counting   =      1608.72988703    -1535.18366493
  entropy T*S    EENTRO =        -0.00000000
  eigenvalues    EBANDS =     -1144.45050541
  atomic energy  EATOM  =      2185.01883462
  ---------------------------------------------------
  free energy    TOTEN  =      -179.07231864 eV

  energy without entropy =     -179.07231864  energy(sigma->0) =     -179.07231864


--------------------------------------------------------------------------------------------------------




--------------------------------------- Iteration      1(   6)  ---------------------------------------


    POTLOK:  cpu time      0.7359: real time      0.7365
    SETDIJ:  cpu time      0.0022: real time      0.0022
    TRIAL :  cpu time      0.6901: real time      0.6910
    CORREC:  cpu time      1.0367: real time      1.0375
    CHARGE:  cpu time      0.1596: real time      0.1596
    --------------------------------------------
      LOOP:  cpu time      2.6398: real time      2.6555

 eigenvalue-minimisations  :     0
 total energy-change (2. order) : 0.2735382E+02  (-0.9905239E+01)
 number of electron      66.0000000 magnetization 
 augmentation part       -0.0693501 magnetization 

 Free energy of the ion-electron system (eV)
  ---------------------------------------------------
  alpha Z        PSCENC =         1.29646524
  Ewald energy   TEWEN  =      6284.88547218
  -Hartree energ DENC   =     -8314.52979521
  -exchange      EXHF   =         0.00000000
  -V(xc)+E(xc)   XCENC  =       143.99792271
  PAW double counting   =     21164.39060859   -21093.35711231
  entropy T*S    EENTRO =        -0.00000000
  eigenvalues    EBANDS =      -523.42089322
  atomic energy  EATOM  =      2185.01883462
  ---------------------------------------------------
  free energy    TOTEN  =      -151.71849740 eV

  energy without entropy =     -151.71849740  energy(sigma->0) =     -151.71849740


--------------------------------------------------------------------------------------------------------




--------------------------------------- Iteration      1(   7)  ---------------------------------------


    POTLOK:  cpu time      0.7408: real time      0.7409
    SETDIJ:  cpu time      0.0025: real time      0.0025
    TRIAL :  cpu time      0.6804: real time      0.6808
    CORREC:  cpu time      1.0303: real time      1.0306
    CHARGE:  cpu time      0.1594: real time      0.1594
    --------------------------------------------
      LOOP:  cpu time      2.6418: real time      2.6428

 eigenvalue-minimisations  :     0
 total energy-change (2. order) :-0.9969271E+01  (-0.9609420E+00)
 number of electron      66.0000000 magnetization 
 augmentation part       -0.0860985 magnetization 

 Free energy of the ion-electron system (eV)
  ---------------------------------------------------
  alpha Z        PSCENC =         1.29646524
  Ewald energy   TEWEN  =      6284.88547218
  -Hartree energ DENC   =     -8057.06146997
  -exchange      EXHF   =         0.00000000
  -V(xc)+E(xc)   XCENC  =       135.85208743
  PAW double counting   =     25533.15882245   -25461.07198387
  entropy T*S    EENTRO =        -0.00000000
  eigenvalues    EBANDS =      -783.76599628
  atomic energy  EATOM  =      2185.01883462
  ---------------------------------------------------
  free energy    TOTEN  =      -161.68776820 eV

  energy without entropy =     -161.68776820  energy(sigma->0) =     -161.68776820


--------------------------------------------------------------------------------------------------------




--------------------------------------- Iteration      1(   8)  ---------------------------------------


    POTLOK:  cpu time      0.7394: real time      0.7398
    SETDIJ:  cpu time      0.0026: real time      0.0026
    TRIAL :  cpu time      0.6805: real time      0.6809
    CORREC:  cpu time      1.0358: real time      1.0364
    CHARGE:  cpu time      0.1600: real time      0.1600
    --------------------------------------------
      LOOP:  cpu time      2.6315: real time      2.6482

 eigenvalue-minimisations  :     0
 total energy-change (2. order) :-0.9633416E+00  (-0.3720914E+00)
 number of electron      66.0000000 magnetization 
 augmentation part       -0.0893123 magnetization 

 Free energy of the ion-electron system (eV)
  ---------------------------------------------------
  alpha Z        PSCENC =         1.29646524
  Ewald energy   TEWEN  =      6284.88547218
  -Hartree energ DENC   =     -8054.64285348
  -exchange      EXHF   =         0.00000000
  -V(xc)+E(xc)   XCENC  =       135.88225536
  PAW double counting   =     27295.17344332   -27222.95015799
  entropy T*S    EENTRO =        -0.00000000
  eigenvalues    EBANDS =      -787.31456900
  atomic energy  EATOM  =      2185.01883462
  ---------------------------------------------------
  free energy    TOTEN  =      -162.65110975 eV

  energy without entropy =     -162.65110975  energy(sigma->0) =     -162.65110975


--------------------------------------------------------------------------------------------------------




--------------------------------------- Iteration      1(   9)  ---------------------------------------


    POTLOK:  cpu time      0.7377: real time      0.7381
    SETDIJ:  cpu time      0.0022: real time      0.0022
    TRIAL :  cpu time      0.6756: real time      0.6756
    CORREC:  cpu time      1.0296: real time      1.0300
    CHARGE:  cpu time      0.1589: real time      0.1591
    --------------------------------------------
      LOOP:  cpu time      2.6165: real time      2.6336

 eigenvalue-minimisations  :     0
 total energy-change (2. order) :-0.3666378E+00  (-0.1628898E+00)
 number of electron      66.0000000 magnetization 
 augmentation part       -0.0904179 magnetization 

 Free energy of the ion-electron system (eV)
  ---------------------------------------------------
  alpha Z        PSCENC =         1.29646524
  Ewald energy   TEWEN  =      6284.88547218
  -Hartree energ DENC   =     -8046.77568533
  -exchange      EXHF   =         0.00000000
  -V(xc)+E(xc)   XCENC  =       135.65792964
  PAW double counting   =     27962.97586120   -27890.66461584
  entropy T*S    EENTRO =        -0.00000000
  eigenvalues    EBANDS =      -795.41200922
  atomic energy  EATOM  =      2185.01883462
  ---------------------------------------------------
  free energy    TOTEN  =      -163.01774752 eV

  energy without entropy =     -163.01774752  energy(sigma->0) =     -163.01774752


--------------------------------------------------------------------------------------------------------




--------------------------------------- Iteration      1(  10)  ---------------------------------------


    POTLOK:  cpu time      0.7394: real time      0.7394
    SETDIJ:  cpu time      0.0024: real time      0.0024
    TRIAL :  cpu time      0.6764: real time      0.6768
    CORREC:  cpu time      1.0241: real time      1.0244
    CHARGE:  cpu time      0.1594: real time      0.1594
    --------------------------------------------
      LOOP:  cpu time      2.6145: real time      2.6302

 eigenvalue-minimisations  :     0
 total energy-change (2. order) :-0.1594010E+00  (-0.4958826E-01)
 number of electron      66.0000000 magnetization 
 augmentation part       -0.0902474 magnetization 

 Free energy of the ion-electron system (eV)
  ---------------------------------------------------
  alpha Z        PSCENC =         1.29646524
  Ewald energy   TEWEN  =      6284.88547218
  -Hartree energ DENC   =     -8038.98653984
  -exchange      EXHF   =         0.00000000
  -V(xc)+E(xc)   XCENC  =       135.50322234
  PAW double counting   =     27652.61691254   -27580.29665592
  entropy T*S    EENTRO =        -0.00000000
  eigenvalues    EBANDS =      -803.21485967
  atomic energy  EATOM  =      2185.01883462
  ---------------------------------------------------
  free energy    TOTEN  =      -163.17714851 eV

  energy without entropy =     -163.17714851  energy(sigma->0) =     -163.17714851


--------------------------------------------------------------------------------------------------------




--------------------------------------- Iteration      1(  11)  ---------------------------------------


    POTLOK:  cpu time      0.7293: real time      0.7297
    SETDIJ:  cpu time      0.0021: real time      0.0021
    TRIAL :  cpu time      0.6799: real time      0.6802
    CORREC:  cpu time      1.0047: real time      1.0053
    CHARGE:  cpu time      0.1601: real time      0.1601
    --------------------------------------------
      LOOP:  cpu time      2.5884: real time      2.6059

 eigenvalue-minimisations  :     0
 total energy-change (2. order) :-0.4928416E-01  (-0.1343658E-01)
 number of electron      66.0000000 magnetization 
 augmentation part       -0.0896003 magnetization 

 Free energy of the ion-electron system (eV)
  ---------------------------------------------------
  alpha Z        PSCENC =         1.29646524
  Ewald energy   TEWEN  =      6284.88547218
  -Hartree energ DENC   =     -8038.04539364
  -exchange      EXHF   =         0.00000000
  -V(xc)+E(xc)   XCENC  =       135.51265072
  PAW double counting   =     27230.49310209   -27158.20097601
  entropy T*S    EENTRO =        -0.00000000
  eigenvalues    EBANDS =      -804.18658787
  atomic energy  EATOM  =      2185.01883462
  ---------------------------------------------------
  free energy    TOTEN  =      -163.22643267 eV

  energy without entropy =     -163.22643267  energy(sigma->0) =     -163.22643267


--------------------------------------------------------------------------------------------------------




--------------------------------------- Iteration      1(  12)  ---------------------------------------


    POTLOK:  cpu time      0.7225: real time      0.7229
    SETDIJ:  cpu time      0.0022: real time      0.0022
    TRIAL :  cpu time      0.6766: real time      0.6767
    CORREC:  cpu time      1.0083: real time      1.0088
    CHARGE:  cpu time      0.1598: real time      0.1599
    --------------------------------------------
      LOOP:  cpu time      2.5840: real time      2.5995

 eigenvalue-minimisations  :     0
 total energy-change (2. order) :-0.1342249E-01  (-0.3637489E-02)
 number of electron      66.0000000 magnetization 
 augmentation part       -0.0893604 magnetization 

 Free energy of the ion-electron system (eV)
  ---------------------------------------------------
  alpha Z        PSCENC =         1.29646524
  Ewald energy   TEWEN  =      6284.88547218
  -Hartree energ DENC   =     -8037.94319099
  -exchange      EXHF   =         0.00000000
  -V(xc)+E(xc)   XCENC  =       135.48488166
  PAW double counting   =     27064.48204362   -26992.20463826
  entropy T*S    EENTRO =        -0.00000000
  eigenvalues    EBANDS =      -804.25972322
  atomic energy  EATOM  =      2185.01883462
  ---------------------------------------------------
  free energy    TOTEN  =      -163.23985516 eV

  energy without entropy =     -163.23985516  energy(sigma->0) =     -163.23985516


--------------------------------------------------------------------------------------------------------




--------------------------------------- Iteration      1(  13)  ---------------------------------------


    POTLOK:  cpu time      0.7180: real time      0.7185
    SETDIJ:  cpu time      0.0023: real time      0.0023
    TRIAL :  cpu time      0.6768: real time      0.6773
    CORREC:  cpu time      1.0006: real time      1.0011
    CHARGE:  cpu time      0.1588: real time      0.1588
    --------------------------------------------
      LOOP:  cpu time      2.5691: real time      2.5858

 eigenvalue-minimisations  :     0
 total energy-change (2. order) :-0.3639224E-02  (-0.1170931E-02)
 number of electron      66.0000000 magnetization 
 augmentation part       -0.0892398 magnetization 

 Free energy of the ion-electron system (eV)
  ---------------------------------------------------
  alpha Z        PSCENC =         1.29646524
  Ewald energy   TEWEN  =      6284.88547218
  -Hartree energ DENC   =     -8037.88607749
  -exchange      EXHF   =         0.00000000
  -V(xc)+E(xc)   XCENC  =       135.46579195
  PAW double counting   =     27062.98378243   -26990.71091680
  entropy T*S    EENTRO =        -0.00000000
  eigenvalues    EBANDS =      -804.29684650
  atomic energy  EATOM  =      2185.01883462
  ---------------------------------------------------
  free energy    TOTEN  =      -163.24349438 eV

  energy without entropy =     -163.24349438  energy(sigma->0) =     -163.24349438


--------------------------------------------------------------------------------------------------------




--------------------------------------- Iteration      1(  14)  ---------------------------------------


    POTLOK:  cpu time      0.7120: real time      0.7125
    SETDIJ:  cpu time      0.0021: real time      0.0021
    TRIAL :  cpu time      0.6782: real time      0.6782
    CORREC:  cpu time      0.9981: real time      0.9986
    CHARGE:  cpu time      0.1603: real time      0.1607
    --------------------------------------------
      LOOP:  cpu time      2.5641: real time      2.5808

 eigenvalue-minimisations  :     0
 total energy-change (2. order) :-0.1171861E-02  (-0.4790762E-03)
 number of electron      66.0000000 magnetization 
 augmentation part       -0.0891245 magnetization 

 Free energy of the ion-electron system (eV)
  ---------------------------------------------------
  alpha Z        PSCENC =         1.29646524
  Ewald energy   TEWEN  =      6284.88547218
  -Hartree energ DENC   =     -8038.28142375
  -exchange      EXHF   =         0.00000000
  -V(xc)+E(xc)   XCENC  =       135.47298623
  PAW double counting   =     27102.24320417   -27029.97199285
  entropy T*S    EENTRO =        -0.00000000
  eigenvalues    EBANDS =      -803.90821208
  atomic energy  EATOM  =      2185.01883462
  ---------------------------------------------------
  free energy    TOTEN  =      -163.24466624 eV

  energy without entropy =     -163.24466624  energy(sigma->0) =     -163.24466624


--------------------------------------------------------------------------------------------------------




--------------------------------------- Iteration      1(  15)  ---------------------------------------


    POTLOK:  cpu time      0.7047: real time      0.7047
    SETDIJ:  cpu time      0.0060: real time      0.0060
    TRIAL :  cpu time      0.6789: real time      0.6795
    CORREC:  cpu time      0.9905: real time      0.9909
    CHARGE:  cpu time      0.1580: real time      0.1580
    --------------------------------------------
      LOOP:  cpu time      2.5664: real time      2.5675

 eigenvalue-minimisations  :     0
 total energy-change (2. order) :-0.4806253E-03  (-0.1966262E-03)
 number of electron      66.0000000 magnetization 
 augmentation part       -0.0890279 magnetization 

 Free energy of the ion-electron system (eV)
  ---------------------------------------------------
  alpha Z        PSCENC =         1.29646524
  Ewald energy   TEWEN  =      6284.88547218
  -Hartree energ DENC   =     -8038.57276504
  -exchange      EXHF   =         0.00000000
  -V(xc)+E(xc)   XCENC  =       135.47855568
  PAW double counting   =     27130.81565427   -27058.54407830
  entropy T*S    EENTRO =        -0.00000000
  eigenvalues    EBANDS =      -803.62328552
  atomic energy  EATOM  =      2185.01883462
  ---------------------------------------------------
  free energy    TOTEN  =      -163.24514687 eV

  energy without entropy =     -163.24514687  energy(sigma->0) =     -163.24514687


--------------------------------------------------------------------------------------------------------




--------------------------------------- Iteration      1(  16)  ---------------------------------------


    POTLOK:  cpu time      0.6996: real time      0.7000
    SETDIJ:  cpu time      0.0021: real time      0.0021
    TRIAL :  cpu time      0.6784: real time      0.6789
    CORREC:  cpu time      0.9903: real time      0.9907
    CHARGE:  cpu time      0.1589: real time      0.1589
    --------------------------------------------
      LOOP:  cpu time      2.5436: real time      2.5583

 eigenvalue-minimisations  :     0
 total energy-change (2. order) :-0.1976230E-03  (-0.7228589E-04)
 number of electron      66.0000000 magnetization 
 augmentation part       -0.0889629 magnetization 

 Free energy of the ion-electron system (eV)
  ---------------------------------------------------
  alpha Z        PSCENC =         1.29646524
  Ewald energy   TEWEN  =      6284.88547218
  -Hartree energ DENC   =     -8038.63794905
  -exchange      EXHF   =         0.00000000
  -V(xc)+E(xc)   XCENC  =       135.48030589
  PAW double counting   =     27135.92468189   -27063.65218984
  entropy T*S    EENTRO =        -0.00000000
  eigenvalues    EBANDS =      -803.56096542
  atomic energy  EATOM  =      2185.01883462
  ---------------------------------------------------
  free energy    TOTEN  =      -163.24534449 eV

  energy without entropy =     -163.24534449  energy(sigma->0) =     -163.24534449


--------------------------------------------------------------------------------------------------------




--------------------------------------- Iteration      1(  17)  ---------------------------------------


    POTLOK:  cpu time      0.6982: real time      0.6983
    SETDIJ:  cpu time      0.0024: real time      0.0024
    TRIAL :  cpu time      0.6777: real time      0.6782
    CORREC:  cpu time      0.9877: real time      0.9880
    CHARGE:  cpu time      0.1600: real time      0.1600
    --------------------------------------------
      LOOP:  cpu time      2.5387: real time      2.5555

 eigenvalue-minimisations  :     0
 total energy-change (2. order) :-0.7260254E-04  (-0.2612691E-04)
 number of electron      66.0000000 magnetization 
 augmentation part       -0.0889507 magnetization 

 Free energy of the ion-electron system (eV)
  ---------------------------------------------------
  alpha Z        PSCENC =         1.29646524
  Ewald energy   TEWEN  =      6284.88547218
  -Hartree energ DENC   =     -8038.71777123
  -exchange      EXHF   =         0.00000000
  -V(xc)+E(xc)   XCENC  =       135.48360904
  PAW double counting   =     27130.76570063   -27058.49292645
  entropy T*S    EENTRO =        -0.00000000
  eigenvalues    EBANDS =      -803.48480112
  atomic energy  EATOM  =      2185.01883462
  ---------------------------------------------------
  free energy    TOTEN  =      -163.24541709 eV

  energy without entropy =     -163.24541709  energy(sigma->0) =     -163.24541709


--------------------------------------------------------------------------------------------------------




--------------------------------------- Iteration      1(  18)  ---------------------------------------


    POTLOK:  cpu time      0.6987: real time      0.6991
    SETDIJ:  cpu time      0.0022: real time      0.0022
    TRIAL :  cpu time      0.6785: real time      0.6790
    CORREC:  cpu time      0.9876: real time      0.9881
    CHARGE:  cpu time      0.1596: real time      0.1596
    --------------------------------------------
      LOOP:  cpu time      2.5550: real time      2.5564

 eigenvalue-minimisations  :     0
 total energy-change (2. order) :-0.2619148E-04  (-0.1055672E-04)
 number of electron      66.0000000 magnetization 
 augmentation part       -0.0889670 magnetization 

 Free energy of the ion-electron system (eV)
  ---------------------------------------------------
  alpha Z        PSCENC =         1.29646524
  Ewald energy   TEWEN  =      6284.88547218
  -Hartree energ DENC   =     -8038.70680609
  -exchange      EXHF   =         0.00000000
  -V(xc)+E(xc)   XCENC  =       135.48386013
  PAW double counting   =     27127.12331480   -27054.85039585
  entropy T*S    EENTRO =        -0.00000000
  eigenvalues    EBANDS =      -803.49618831
  atomic energy  EATOM  =      2185.01883462
  ---------------------------------------------------
  free energy    TOTEN  =      -163.24544328 eV

  energy without entropy =     -163.24544328  energy(sigma->0) =     -163.24544328


--------------------------------------------------------------------------------------------------------




--------------------------------------- Iteration      1(  19)  ---------------------------------------


    POTLOK:  cpu time      0.6975: real time      0.6979
    SETDIJ:  cpu time      0.0023: real time      0.0023
    TRIAL :  cpu time      0.6784: real time      0.6784
    CORREC:  cpu time      0.9869: real time      0.9872
    CHARGE:  cpu time      0.1597: real time      0.1597
    --------------------------------------------
      LOOP:  cpu time      2.5378: real time      2.5537

 eigenvalue-minimisations  :     0
 total energy-change (2. order) :-0.1043857E-04  (-0.4379804E-05)
 number of electron      66.0000000 magnetization 
 augmentation part       -0.0889868 magnetization 

 Free energy of the ion-electron system (eV)
  ---------------------------------------------------
  alpha Z        PSCENC =         1.29646524
  Ewald energy   TEWEN  =      6284.88547218
  -Hartree energ DENC   =     -8038.68557426
  -exchange      EXHF   =         0.00000000
  -V(xc)+E(xc)   XCENC  =       135.48368514
  PAW double counting   =     27126.12619173   -27053.85327487
  entropy T*S    EENTRO =        -0.00000000
  eigenvalues    EBANDS =      -803.51725351
  atomic energy  EATOM  =      2185.01883462
  ---------------------------------------------------
  free energy    TOTEN  =      -163.24545372 eV

  energy without entropy =     -163.24545372  energy(sigma->0) =     -163.24545372


--------------------------------------------------------------------------------------------------------




--------------------------------------- Iteration      1(  20)  ---------------------------------------


    POTLOK:  cpu time      0.6977: real time      0.6982
    SETDIJ:  cpu time      0.0022: real time      0.0022
    TRIAL :  cpu time      0.6779: real time      0.6784
    CORREC:  cpu time      0.9887: real time      0.9891
    CHARGE:  cpu time      0.1607: real time      0.1607
    --------------------------------------------
      LOOP:  cpu time      2.5402: real time      2.5568

 eigenvalue-minimisations  :     0
 total energy-change (2. order) :-0.4226298E-05  (-0.1589999E-05)
 number of electron      66.0000000 magnetization 
 augmentation part       -0.0889988 magnetization 

 Free energy of the ion-electron system (eV)
  ---------------------------------------------------
  alpha Z        PSCENC =         1.29646524
  Ewald energy   TEWEN  =      6284.88547218
  -Hartree energ DENC   =     -8038.68216793
  -exchange      EXHF   =         0.00000000
  -V(xc)+E(xc)   XCENC  =       135.48347783
  PAW double counting   =     27125.67973094   -27053.40688656
  entropy T*S    EENTRO =        -0.00000000
  eigenvalues    EBANDS =      -803.52038426
  atomic energy  EATOM  =      2185.01883462
  ---------------------------------------------------
  free energy    TOTEN  =      -163.24545795 eV

  energy without entropy =     -163.24545795  energy(sigma->0) =     -163.24545795


--------------------------------------------------------------------------------------------------------




--------------------------------------- Iteration      1(  21)  ---------------------------------------


    POTLOK:  cpu time      0.6971: real time      0.6976
    SETDIJ:  cpu time      0.0020: real time      0.0020
    TRIAL :  cpu time      0.6775: real time      0.6775
    CORREC:  cpu time      0.9852: real time      0.9856
    CHARGE:  cpu time      0.1615: real time      0.1618
    --------------------------------------------
      LOOP:  cpu time      2.5506: real time      2.5532

 eigenvalue-minimisations  :     0
 total energy-change (2. order) :-0.1530083E-05  (-0.5305166E-06)
 number of electron      66.0000000 magnetization 
 augmentation part       -0.0890012 magnetization 

 Free energy of the ion-electron system (eV)
  ---------------------------------------------------
  alpha Z        PSCENC =         1.29646524
  Ewald energy   TEWEN  =      6284.88547218
  -Hartree energ DENC   =     -8038.66684306
  -exchange      EXHF   =         0.00000000
  -V(xc)+E(xc)   XCENC  =       135.48297873
  PAW double counting   =     27125.01421901   -27052.74140701
  entropy T*S    EENTRO =        -0.00000000
  eigenvalues    EBANDS =      -803.53517919
  atomic energy  EATOM  =      2185.01883462
  ---------------------------------------------------
  free energy    TOTEN  =      -163.24545948 eV

  energy without entropy =     -163.24545948  energy(sigma->0) =     -163.24545948


--------------------------------------------------------------------------------------------------------




--------------------------------------- Iteration      1(  22)  ---------------------------------------


    POTLOK:  cpu time      0.7084: real time      0.7084
    SETDIJ:  cpu time      0.0039: real time      0.0039
    TRIAL :  cpu time      0.6779: real time      0.6785
    CORREC:  cpu time      0.9882: real time      0.9886
    CHARGE:  cpu time      0.1597: real time      0.1597
    --------------------------------------------
      LOOP:  cpu time      2.5507: real time      2.5678

 eigenvalue-minimisations  :     0
 total energy-change (2. order) :-0.5119982E-06  (-0.1740598E-06)
 number of electron      66.0000000 magnetization 
 augmentation part       -0.0890011 magnetization 

 Free energy of the ion-electron system (eV)
  ---------------------------------------------------
  alpha Z        PSCENC =         1.29646524
  Ewald energy   TEWEN  =      6284.88547218
  -Hartree energ DENC   =     -8038.66971424
  -exchange      EXHF   =         0.00000000
  -V(xc)+E(xc)   XCENC  =       135.48293750
  PAW double counting   =     27124.59903612   -27052.32625550
  entropy T*S    EENTRO =        -0.00000000
  eigenvalues    EBANDS =      -803.53223592
  atomic energy  EATOM  =      2185.01883462
  ---------------------------------------------------
  free energy    TOTEN  =      -163.24545999 eV

  energy without entropy =     -163.24545999  energy(sigma->0) =     -163.24545999


--------------------------------------------------------------------------------------------------------




--------------------------------------- Iteration      1(  23)  ---------------------------------------


    POTLOK:  cpu time      0.6973: real time      0.6976
    SETDIJ:  cpu time      0.0024: real time      0.0024
    TRIAL :  cpu time      0.6768: real time      0.6771
    CORREC:  cpu time      0.9900: real time      0.9901
    CHARGE:  cpu time      0.1596: real time      0.1601
    --------------------------------------------
      LOOP:  cpu time      2.5387: real time      2.5562

 eigenvalue-minimisations  :     0
 total energy-change (2. order) :-0.1739027E-06  (-0.6760219E-07)
 number of electron      66.0000000 magnetization 
 augmentation part       -0.0890003 magnetization 

 Free energy of the ion-electron system (eV)
  ---------------------------------------------------
  alpha Z        PSCENC =         1.29646524
  Ewald energy   TEWEN  =      6284.88547218
  -Hartree energ DENC   =     -8038.66959061
  -exchange      EXHF   =         0.00000000
  -V(xc)+E(xc)   XCENC  =       135.48287311
  PAW double counting   =     27124.64859199   -27052.37581047
  entropy T*S    EENTRO =        -0.00000000
  eigenvalues    EBANDS =      -803.53229623
  atomic energy  EATOM  =      2185.01883462
  ---------------------------------------------------
  free energy    TOTEN  =      -163.24546017 eV

  energy without entropy =     -163.24546017  energy(sigma->0) =     -163.24546017


--------------------------------------------------------------------------------------------------------




--------------------------------------- Iteration      1(  24)  ---------------------------------------


    POTLOK:  cpu time      0.6974: real time      0.6975
    SETDIJ:  cpu time      0.0021: real time      0.0021
    TRIAL :  cpu time      0.6781: real time      0.6785
    CORREC:  cpu time      0.9890: real time      0.9893
    EDDIAG:  cpu time      0.2798: real time      0.2804
    CHARGE:  cpu time      0.1580: real time      0.1580
    --------------------------------------------
      LOOP:  cpu time      2.8190: real time      2.8342

 eigenvalue-minimisations  :     0
 total energy-change (2. order) :-0.6725531E-07  (-0.3085183E-07)
 number of electron      66.0000000 magnetization 
 augmentation part       -0.0889994 magnetization 

 Free energy of the ion-electron system (eV)
  ---------------------------------------------------
  alpha Z        PSCENC =         1.29646524
  Ewald energy   TEWEN  =      6284.88547218
  -Hartree energ DENC   =     -8038.66951173
  -exchange      EXHF   =         0.00000000
  -V(xc)+E(xc)   XCENC  =       135.48286956
  PAW double counting   =     27124.90935060   -27052.63656210
  entropy T*S    EENTRO =        -0.00000000
  eigenvalues    EBANDS =      -803.53237859
  atomic energy  EATOM  =      2185.01883462
  ---------------------------------------------------
  free energy    TOTEN  =      -163.24546023 eV

  energy without entropy =     -163.24546023  energy(sigma->0) =     -163.24546023


--------------------------------------------------------------------------------------------------------


  average scaling for gradient   0.9535


 average (electrostatic) potential at core
  the test charge radii are     0.5770  0.4325
  (the norm of the test charge is              1.0000)
       1 -86.0664       2 -86.0781       3 -86.3274       4 -86.3272       5 -86.0779
       6 -86.0664       7 -86.0905       8 -86.0906       9 -86.3273      10 -86.3274
      11 -86.0781      12 -86.0664      13 -86.0665      14 -86.0779      15 -44.9711
      16 -45.0070      17 -44.9440      18 -44.9716      19 -44.9718      20 -44.9428
      21 -45.0063      22 -44.9439      23 -44.9431      24 -44.9718



 E-fermi :  -4.7955     XC(G=0):  -0.2893     alpha+bet : -0.1589

 Fermi energy:        -4.7954701109

 k-point     1 :       0.0000    0.0000    0.0000
  band No.  band energies     occupation 
      1     -21.8786      2.00000
      2     -21.0759      2.00000
      3     -19.8130      2.00000
      4     -19.3536      2.00000
      5     -18.5224      2.00000
      6     -18.2004      2.00000
      7     -17.2685      2.00000
      8     -15.8556      2.00000
      9     -15.1055      2.00000
     10     -14.7325      2.00000
     11     -14.4529      2.00000
     12     -13.1345      2.00000
     13     -12.7872      2.00000
     14     -12.3209      2.00000
     15     -11.2242      2.00000
     16     -11.1902      2.00000
     17     -10.8867      2.00000
     18     -10.8233      2.00000
     19     -10.2178      2.00000
     20      -9.9507      2.00000
     21      -9.8620      2.00000
     22      -9.7806      2.00000
     23      -9.3206      2.00000
     24      -9.0162      2.00000
     25      -8.9209      2.00000
     26      -8.2336      2.00000
     27      -7.9498      2.00000
     28      -7.7244      2.00000
     29      -7.5024      2.00000
     30      -7.3694      2.00000
     31      -6.3644      2.00000
     32      -6.0559      2.00000
     33      -4.8711      2.00000
     34      -2.5420      0.00000
     35      -1.2992      0.00000
     36      -0.9533      0.00000
     37      -0.4042      0.00000
     38      -0.3942      0.00000
     39      -0.2193      0.00000
     40      -0.1524      0.00000
     41       0.1593      0.00000
     42       0.2016      0.00000
     43       0.2370      0.00000
     44       0.3751      0.00000
     45       0.3949      0.00000
     46       0.4464      0.00000
     47       0.4778      0.00000
     48       0.6070      0.00000


--------------------------------------------------------------------------------------------------------


 soft charge-density along one line, spin component           1
         0         1         2         3         4         5         6         7         8         9
 total charge-density along one line

 pseudopotential strength for first ion, spin component:           1
 12.719  21.404   0.001  -0.000  -0.001   0.001  -0.000  -0.002
 21.404  36.018   0.001  -0.000  -0.002   0.002  -0.000  -0.004
  0.001   0.001  -3.176  -0.000  -0.000  -5.693  -0.000  -0.000
 -0.000  -0.000  -0.000  -3.177   0.000  -0.000  -5.695   0.000
 -0.001  -0.002  -0.000   0.000  -3.176  -0.000   0.000  -5.692
  0.001   0.002  -5.693  -0.000  -0.000 -10.182  -0.000  -0.000
 -0.000  -0.000  -0.000  -5.695   0.000  -0.000 -10.186   0.000
 -0.002  -0.004  -0.000   0.000  -5.692  -0.000   0.000 -10.182
 total augmentation occupancy for first ion, spin component:           1
  7.675  -2.640   0.501   0.001   0.619  -0.233  -0.000  -0.270
 -2.640   0.936  -0.249  -0.000  -0.279   0.112   0.000   0.119
  0.501  -0.249   6.683  -0.011  -0.271  -2.207   0.004   0.121
  0.001  -0.000  -0.011   3.045   0.017   0.004  -0.792  -0.007
  0.619  -0.279  -0.271   0.017   7.461   0.121  -0.007  -2.521
 -0.233   0.112  -2.207   0.004   0.121   0.738  -0.002  -0.053
 -0.000   0.000   0.004  -0.792  -0.007  -0.002   0.209   0.003
 -0.270   0.119   0.121  -0.007  -2.521  -0.053   0.003   0.863


------------------------ aborting loop because EDIFF is reached ----------------------------------------


    FORLOC:  cpu time      0.0543: real time      0.0543
    FORNL :  cpu time      0.0966: real time      0.0968
    FORCOR:  cpu time      0.6441: real time      0.6442
    OFIELD:  cpu time      0.0054: real time      0.0064

  Hirshfeld charges:
            ion         q(e)     
   ------------------------------
      1     C       -0.04739215
      2     C       -0.04485265
      3     C       -0.00091263
      4     C       -0.00092536
      5     C       -0.04486291
      6     C       -0.04738562
      7     C       -0.04404761
      8     C       -0.04404053
      9     C       -0.00092011
     10     C       -0.00092204
     11     C       -0.04485244
     12     C       -0.04739107
     13     C       -0.04738658
     14     C       -0.04486689
     15     H        0.04599969
     16     H        0.04502488
     17     H        0.04668084
     18     H        0.04600598
     19     H        0.04601812
     20     H        0.04665592
     21     H        0.04502137
     22     H        0.04667662
     23     H        0.04666598
     24     H        0.04600918

  Atomic reference data used in the T-S method for vdW correction:
            C6at              R0at           ALPHAat      REFSTATE
            (au)              (au)            (au)                
   ---------------------------------------------------------------
   C          46.600          3.590         12.000         0
   H           6.500          3.099          4.500         0

  Tkatchenko/Scheffler method for vdW energy calculation
  ---------------------------------------------------------------------------------------------

  Parameters of vdW forcefield:
            C6ts              R0ts           ALPHAts        RELVOL
            (au)              (au)            (au)                
   ---------------------------------------------------------------
   C          30.244          3.341          9.667          0.80560435
   C          30.674          3.349          9.736          0.81132051
   C          32.885          3.388         10.081          0.84004441
   C          32.885          3.388         10.081          0.84004785
   C          30.675          3.349          9.736          0.81133273
   C          30.246          3.341          9.668          0.80563902
   C          30.968          3.354          9.782          0.81519825
   C          30.969          3.354          9.783          0.81520981
   C          32.885          3.388         10.081          0.84004805
   C          32.885          3.388         10.081          0.84004652
   C          30.676          3.349          9.736          0.81134467
   C          30.245          3.341          9.668          0.80563003
   C          30.245          3.341          9.667          0.80562142
   C          30.674          3.349          9.736          0.81132377
   H           2.538          2.650          2.812          0.62483399
   H           2.664          2.671          2.881          0.64014727
   H           2.390          2.623          2.728          0.60631461
   H           2.538          2.649          2.812          0.62480626
   H           2.538          2.649          2.812          0.62482578
   H           2.390          2.623          2.729          0.60641427
   H           2.664          2.671          2.881          0.64015333
   H           2.390          2.623          2.729          0.60638530
   H           2.390          2.623          2.729          0.60633603
   H           2.538          2.649          2.812          0.62480838

  vdW correction parametrized for the method pbe       

  IVDW =   2
  VDW_RADIUS =    50.000 A
  VDW_IDAMPF =  0
  VDW_S6 =     1.000
  VDW_SR =     0.940
  VDW_D =    20.000
  LVDW_ONECELL = F F F
  LVDW_SAMETYPE T T
  LVDW_EWALD = F

  Number of pair interactions contributing to vdW energy:   13888
  Edisp (eV):   -0.27654
    FORVDW:  cpu time      4.6161: real time      4.6180

 VOLUME and BASIS-vectors are now :
 -----------------------------------------------------------------------------
  energy-cutoff  :     1000.00
  volume of cell :    11000.00
      direct lattice vectors                 reciprocal lattice vectors
    25.000000000  0.000000000  0.000000000     0.040000000  0.000000000  0.000000000
     0.000000000 22.000000000  0.000000000     0.000000000  0.045454545  0.000000000
     0.000000000  0.000000000 20.000000000     0.000000000  0.000000000  0.050000000

  length of vectors
    25.000000000 22.000000000 20.000000000     0.040000000  0.045454545  0.050000000


 FORCES acting on ions:
    Electron-Ion                     Ewald-Force                    Non-Local-Force
 -----------------------------------------------------------------------------------------------
   0.146E+03 0.187E+03 -.238E-02   -.145E+03 -.187E+03 0.660E-02   -.117E+01 0.231E+00 -.524E-02
   -.219E+02 0.216E+03 -.696E+00   0.208E+02 -.217E+03 0.693E+00   0.124E+01 0.429E+00 0.351E-02
   -.435E+01 0.996E+02 -.323E+00   0.512E+01 -.100E+03 0.326E+00   -.819E+00 0.498E+00 -.403E-02
   0.855E+02 -.526E+02 0.431E+00   -.856E+02 0.535E+02 -.434E+00   0.401E-01 -.954E+00 0.378E-02
   0.179E+03 -.125E+03 0.948E+00   -.180E+03 0.124E+03 -.948E+00   0.972E+00 0.868E+00 0.716E-06
   0.236E+03 0.355E+02 0.751E+00   -.236E+03 -.344E+02 -.753E+00   -.372E+00 -.113E+01 0.302E-02
   -.106E+03 0.179E+03 -.866E+00   0.106E+03 -.179E+03 0.865E+00   0.560E-01 -.919E-01 0.221E-03
   0.106E+03 -.179E+03 0.831E+00   -.106E+03 0.179E+03 -.831E+00   -.535E-01 0.955E-01 -.510E-03
   0.438E+01 -.996E+02 0.291E+00   -.514E+01 0.100E+03 -.294E+00   0.811E+00 -.498E+00 0.300E-02
   -.855E+02 0.526E+02 -.417E+00   0.856E+02 -.536E+02 0.420E+00   -.356E-01 0.953E+00 -.265E-02
   -.179E+03 0.125E+03 -.926E+00   0.180E+03 -.124E+03 0.928E+00   -.970E+00 -.869E+00 -.143E-02
   -.236E+03 -.354E+02 -.697E+00   0.236E+03 0.344E+02 0.699E+00   0.365E+00 0.113E+01 -.212E-02
   -.146E+03 -.187E+03 0.373E-02   0.145E+03 0.187E+03 -.667E-02   0.117E+01 -.227E+00 0.304E-02
   0.219E+02 -.216E+03 0.698E+00   -.208E+02 0.217E+03 -.695E+00   -.123E+01 -.429E+00 -.224E-02
   -.629E+02 0.669E+02 -.401E+00   0.659E+02 -.719E+02 0.425E+00   -.293E+01 0.494E+01 -.242E-01
   -.481E+02 0.814E+02 -.383E+00   0.510E+02 -.864E+02 0.406E+00   -.289E+01 0.492E+01 -.230E-01
   0.489E+02 0.762E+02 -.231E-01   -.518E+02 -.813E+02 0.257E-01   0.289E+01 0.501E+01 -.217E-02
   -.279E+02 0.869E+02 -.331E+00   0.308E+02 -.920E+02 0.354E+00   -.289E+01 0.497E+01 -.231E-01
   0.629E+02 -.669E+02 0.399E+00   -.659E+02 0.719E+02 -.423E+00   0.293E+01 -.494E+01 0.238E-01
   0.906E+02 0.521E+01 0.299E+00   -.965E+02 -.529E+01 -.319E+00   0.578E+01 0.854E-01 0.196E-01
   0.481E+02 -.814E+02 0.379E+00   -.510E+02 0.864E+02 -.403E+00   0.289E+01 -.492E+01 0.230E-01
   -.906E+02 -.521E+01 -.304E+00   0.965E+02 0.530E+01 0.325E+00   -.578E+01 -.858E-01 -.205E-01
   -.489E+02 -.762E+02 0.260E-01   0.518E+02 0.813E+02 -.287E-01   -.289E+01 -.501E+01 0.241E-02
   0.279E+02 -.869E+02 0.316E+00   -.308E+02 0.920E+02 -.338E+00   0.289E+01 -.497E+01 0.218E-01
 -----------------------------------------------------------------------------------------------
   0.249E-02 -.500E-02 0.401E-02   0.234E-12 0.995E-13 -.389E-15   -.248E-02 0.500E-02 -.400E-02


 POSITION                                       TOTAL-FORCE (eV/Angst)
 -----------------------------------------------------------------------------------
      9.70814      8.53389      9.99697        -0.021844      0.028109     -0.000759
     11.07889      8.53407     10.00191         0.025152      0.033564     -0.000509
     11.81212      9.75714     10.00117        -0.002954     -0.007143     -0.000451
     11.07957     11.00334      9.99515        -0.004640      0.003443      0.000645
      9.65443     10.95759      9.99026         0.037086     -0.000326     -0.000282
      8.98762      9.75985      9.99104         0.009322     -0.029072      0.001211
     13.21132      9.78973     10.00587        -0.019056      0.033342     -0.000435
     11.78851     12.21014      9.99437         0.021096     -0.030993     -0.000082
     13.18785     12.24273      9.99904        -0.004423      0.006844     -0.000464
     13.92026     10.99657     10.00492         0.009121     -0.003531      0.000187
     15.34547     11.04239     10.00967        -0.034958     -0.001397      0.000237
     16.01247     12.24009     10.00877        -0.017742      0.028354      0.000179
     15.29176     13.46596     10.00303         0.022957     -0.024525     -0.000120
     13.92096     13.46577      9.99820        -0.021292     -0.033169      0.001525
     15.89637     10.10277     10.01423         0.038950     -0.064374      0.000062
     13.76386      8.84969     10.01026         0.035875     -0.059811      0.000481
      9.16196      7.59306      9.99738        -0.038690     -0.073443      0.000423
     11.63208      7.59582     10.00630         0.037039     -0.066246      0.000534
      9.10357     11.89720      9.98577        -0.039941      0.065165     -0.000250
      7.89984      9.74040      9.98735        -0.080241      0.001424     -0.000672
     11.23588     13.15021      9.98997        -0.033984      0.057668     -0.000417
     17.10017     12.25958     10.01261         0.082832     -0.001772      0.000096
     15.83786     14.40694     10.00258         0.037519      0.071057     -0.000301
     13.36776     14.40399      9.99404        -0.037185      0.066832     -0.000837
 -----------------------------------------------------------------------------------
    total drift:                                0.000017      0.000004      0.000017


--------------------------------------------------------------------------------------------------------



  FREE ENERGIE OF THE ION-ELECTRON SYSTEM (eV)
  ---------------------------------------------------
  free  energy   TOTEN  =      -163.52200021 eV

  energy  without entropy=     -163.52200021  energy(sigma->0) =     -163.52200021



--------------------------------------------------------------------------------------------------------


    POTLOK:  cpu time      0.7017: real time      0.7027


--------------------------------------------------------------------------------------------------------


 stress matrix after NEB project (eV)
     -0.32078     -0.05324     -0.00097
     -0.05324     -0.26158      0.00052
     -0.00097      0.00052     -0.00053
  FORCES: max atom, RMS     0.083012    0.055005
  FORCE total and by dimension    0.269467    0.082832
  Stress total and by dimension    0.420712    0.320781
     LOOP+:  cpu time     62.7596: real time     63.0819
    4ORBIT:  cpu time      0.0000: real time      0.0000

 total amount of memory used by VASP MPI-rank0   105104. kBytes
=======================================================================

   base      :      30000. kBytes
   nonl-proj :       3155. kBytes
   fftplans  :      24313. kBytes
   grid      :      44083. kBytes
   one-center:          1. kBytes
   wavefun   :       3552. kBytes

  
  
 General timing and accounting informations for this job:
 ========================================================
  
                  Total CPU time used (sec):       91.179
                            User time (sec):       86.921
                          System time (sec):        4.258
                         Elapsed time (sec):       96.475
  
                   Maximum memory used (kb):      316356.
                   Average memory used (kb):          N/A
  
                          Minor page faults:       152650
                          Major page faults:          358
                 Voluntary context switches:         6433
