 vasp.6.4.1 05Apr23 (build May 30 2023 08:45:49) gamma-only                      
 executed on        HPECrayEX_GCC date 2024.03.23  14:29:29
 running  512 mpi-ranks, with    1 threads/rank, on    4 nodes
 distrk:  each k-point on  512 cores,    1 groups
 distr:  one band on NCORE=   4 cores,  128 groups


--------------------------------------------------------------------------------------------------------


 INCAR:
   NPAR = 128
   ISMEAR = 0
   SIGMA = 0.01
   ALGO = C
   PREC = Accurate
   EDIFF = 1E-8
   ENCUT = 1000
   ISIF = 1
   IBRION = 1
   GGA = ML
   LUSE_VDW = .TRUE.
   ZAB_VDW = -1.8867
   AGGAC = 0.0000
   LASPH = .TRUE.

 POTCAR:    PAW_PBE C_h 06Feb2004                 
 POTCAR:    PAW_PBE H_h 06Feb2004                 
 POTCAR:    PAW_PBE N_h 06Feb2004                 
 -----------------------------------------------------------------------------
|                                                                             |
|               ----> ADVICE to this user running VASP <----                  |
|                                                                             |
|     You have switched on vdW-DFT.                                           |
|     This routine was written and supplied by Jiri Klimes. We recommend      |
|     that you carefully read and cite the following publications:            |
|       J. Klimes, D.R. Bowler, A. Michelides                                 |
|          J. Phys.: Cond Matt. 22 022201 (2010)                              |
|       J. Klimes, D.R. Bowler, A. Michelides                                 |
|          Phys. Rev. B. 83, 195131 (2011)                                    |
|     and references therein.                                                 |
|                                                                             |
 -----------------------------------------------------------------------------

 POTCAR:    PAW_PBE C_h 06Feb2004                 
   VRHFIN =C: s2p2                                                                                  
   LEXCH  = PE                                                                                      
   EATOM  =   147.1560 eV,   10.8157 Ry                                                             
                                                                                                    
   TITEL  = PAW_PBE C_h 06Feb2004                                                                   
   LULTRA =        F    use ultrasoft PP ?                                                          
   IUNSCR =        1    unscreen: 0-lin 1-nonlin 2-no                                               
   RPACOR =    0.800    partial core radius                                                         
   POMASS =   12.011; ZVAL   =    4.000    mass and valenz                                          
   RCORE  =    1.100    outmost cutoff radius                                                       
   RWIGS  =    1.630; RWIGS  =    0.863    wigner-seitz radius (au A)                               
   ENMAX  =  700.000; ENMIN  =  500.000 eV                                                          
   ICORE  =        2    local potential                                                             
   LCOR   =        T    correct aug charges                                                         
   LPAW   =        T    paw PP                                                                      
   EAUG   =  946.768                                                                                
   DEXC   =    0.000                                                                                
   RMAX   =    1.128    core radius for proj-oper                                                   
   RAUG   =    1.300    factor for augmentation sphere                                              
   RDEP   =    1.162    radius for radial grids                                                     
   RDEPT  =    1.088    core radius for aug-charge                                                  
                                                                                                    
   Atomic configuration                                                                             
    4 entries                                                                                       
     n  l   j            E        occ.                                                              
     1  0  0.50      -273.3789   2.0000                                                             
     2  0  0.50       -13.7508   2.0000                                                             
     2  1  0.50        -5.2854   2.0000                                                             
     3  2  1.50        -5.4423   0.0000                                                             
   Description                                                                                      
     l       E           TYP  RCUT    TYP  RCUT                                                     
     0    -13.7508458     23  1.100                                                                 
     0     -8.2022199     23  1.100                                                                 
     1     -5.2854383     23  1.100                                                                 
     1      1.1560700     23  1.100                                                                 
     2     -5.4423304      7  1.100                                                                 
  local pseudopotential read in
  partial core-charges read in
  partial kinetic energy density read in
  atomic valenz-charges read in
  non local Contribution for L=           0  read in
    real space projection operators read in
  non local Contribution for L=           0  read in
    real space projection operators read in
  non local Contribution for L=           1  read in
    real space projection operators read in
  non local Contribution for L=           1  read in
    real space projection operators read in
    PAW grid and wavefunctions read in

   number of l-projection  operators is LMAX  =           4
   number of lm-projection operators is LMMAX =           8

 POTCAR:    PAW_PBE H_h 06Feb2004                 
   VRHFIN =H: ultrasoft test                                                                        
   LEXCH  = PE                                                                                      
   EATOM  =    12.4884 eV,    0.9179 Ry                                                             
                                                                                                    
   TITEL  = PAW_PBE H_h 06Feb2004                                                                   
   LULTRA =        F    use ultrasoft PP ?                                                          
   IUNSCR =        0    unscreen: 0-lin 1-nonlin 2-no                                               
   RPACOR =    0.000    partial core radius                                                         
   POMASS =    1.000; ZVAL   =    1.000    mass and valenz                                          
   RCORE  =    0.800    outmost cutoff radius                                                       
   RWIGS  =    0.700; RWIGS  =    0.370    wigner-seitz radius (au A)                               
   ENMAX  =  700.000; ENMIN  =  350.000 eV                                                          
   RCLOC  =    0.701    cutoff for local pot                                                        
   LCOR   =        T    correct aug charges                                                         
   LPAW   =        T    paw PP                                                                      
   EAUG   = 1000.000                                                                                
   RMAX   =    0.819    core radius for proj-oper                                                   
   RAUG   =    1.000    factor for augmentation sphere                                              
   RDEP   =    0.817    radius for radial grids                                                     
   RDEPT  =    0.817    core radius for aug-charge                                                  
                                                                                                    
   Atomic configuration                                                                             
    2 entries                                                                                       
     n  l   j            E        occ.                                                              
     1  0  0.50        -6.4927   1.0000                                                             
     2  1  0.50        -3.4015   0.0000                                                             
   Description                                                                                      
     l       E           TYP  RCUT    TYP  RCUT                                                     
     0     -6.4927493     23  0.800                                                                 
     0      6.8029130     23  0.800                                                                 
     1     -6.8029130     23  0.800                                                                 
  local pseudopotential read in
  atomic valenz-charges read in
  non local Contribution for L=           0  read in
    real space projection operators read in
  non local Contribution for L=           0  read in
    real space projection operators read in
  non local Contribution for L=           1  read in
    real space projection operators read in
    PAW grid and wavefunctions read in

   number of l-projection  operators is LMAX  =           3
   number of lm-projection operators is LMMAX =           5

 POTCAR:    PAW_PBE N_h 06Feb2004                 
   VRHFIN =N: s2p3                                                                                  
   LEXCH  = PE                                                                                      
   EATOM  =   264.5486 eV,   19.4438 Ry                                                             
                                                                                                    
   TITEL  = PAW_PBE N_h 06Feb2004                                                                   
   LULTRA =        F    use ultrasoft PP ?                                                          
   IUNSCR =        1    unscreen: 0-lin 1-nonlin 2-no                                               
   RPACOR =    0.800    partial core radius                                                         
   POMASS =   14.001; ZVAL   =    5.000    mass and valenz                                          
   RCORE  =    1.100    outmost cutoff radius                                                       
   RWIGS  =    1.480; RWIGS  =    0.783    wigner-seitz radius (au A)                               
   ENMAX  =  700.000; ENMIN  =  500.000 eV                                                          
   ICORE  =        2    local potential                                                             
   LCOR   =        T    correct aug charges                                                         
   LPAW   =        T    paw PP                                                                      
   EAUG   =  904.640                                                                                
   DEXC   =    0.000                                                                                
   RMAX   =    1.127    core radius for proj-oper                                                   
   RAUG   =    1.300    factor for augmentation sphere                                              
   RDEP   =    1.115    radius for radial grids                                                     
   RDEPT  =    1.106    core radius for aug-charge                                                  
                                                                                                    
   Atomic configuration                                                                             
    4 entries                                                                                       
     n  l   j            E        occ.                                                              
     1  0  0.50      -384.7179   2.0000                                                             
     2  0  0.50       -18.5828   2.0000                                                             
     2  1  0.50        -7.0898   3.0000                                                             
     3  2  1.50        -6.8029   0.0000                                                             
   Description                                                                                      
     l       E           TYP  RCUT    TYP  RCUT                                                     
     0    -18.5828117     23  1.100                                                                 
     0    -15.0750597     23  1.100                                                                 
     1     -7.0897851     23  1.100                                                                 
     1     -1.9663412     23  1.100                                                                 
     2     -6.8029130      7  1.100                                                                 
  local pseudopotential read in
  partial core-charges read in
  partial kinetic energy density read in
  kinetic energy density of atom read in
  atomic valenz-charges read in
  non local Contribution for L=           0  read in
    real space projection operators read in
  non local Contribution for L=           0  read in
    real space projection operators read in
  non local Contribution for L=           1  read in
    real space projection operators read in
  non local Contribution for L=           1  read in
    real space projection operators read in
    PAW grid and wavefunctions read in

   number of l-projection  operators is LMAX  =           4
   number of lm-projection operators is LMMAX =           8

 -----------------------------------------------------------------------------
|                                                                             |
|               ----> ADVICE to this user running VASP <----                  |
|                                                                             |
|     You have a (more or less) 'large supercell' and for larger cells it     |
|     might be more efficient to use real-space projection operators.         |
|     Therefore, try LREAL= Auto in the INCAR file.                           |
|     Mind: For very accurate calculation, you might also keep the            |
|     reciprocal projection scheme (i.e. LREAL=.FALSE.).                      |
|                                                                             |
 -----------------------------------------------------------------------------

 -----------------------------------------------------------------------------
|                                                                             |
|               ----> ADVICE to this user running VASP <----                  |
|                                                                             |
|     You enforced a specific xc type in the INCAR file but a different       |
|     type was found in the POTCAR file.                                      |
|     I HOPE YOU KNOW WHAT YOU ARE DOING!                                     |
|                                                                             |
 -----------------------------------------------------------------------------

  PAW_PBE C_h 06Feb2004                 :
 energy of atom  1       EATOM= -147.1560
 kinetic energy error for atom=    0.0031 (will be added to EATOM!!)
  PAW_PBE H_h 06Feb2004                 :
 energy of atom  2       EATOM=  -12.4884
 kinetic energy error for atom=    0.0006 (will be added to EATOM!!)
  PAW_PBE N_h 06Feb2004                 :
 energy of atom  3       EATOM= -264.5486
 kinetic energy error for atom=    0.0081 (will be added to EATOM!!)


 POSCAR: super cell
  positions in direct lattice
  No initial velocities read in
 exchange correlation table for  LEXCH =       44
   RHO(1)=    0.500       N(1)  =     2000
   RHO(2)=  100.500       N(2)  =     4000



--------------------------------------------------------------------------------------------------------


 ion  position               nearest neighbor table
   1  0.000  0.135  0.125-  37 1.08  81 1.35  73 1.35
   2  0.000  0.135  0.625-  38 1.08  82 1.35  74 1.35
   3  1.000  0.865  0.375-  39 1.08  83 1.35  75 1.35
   4  1.000  0.865  0.875-  40 1.08  84 1.35  76 1.35
   5  0.865  0.865  0.125-  41 1.08  77 1.35  73 1.35
   6  0.865  0.865  0.625-  42 1.08  78 1.35  74 1.35
   7  0.135  0.135  0.375-  43 1.08  79 1.35  75 1.35
   8  0.135  0.135  0.875-  44 1.08  80 1.35  76 1.35
   9  0.135  0.000  0.125-  45 1.08  81 1.35  77 1.35
  10  0.135  0.000  0.625-  46 1.08  82 1.35  78 1.35
  11  0.865  1.000  0.375-  47 1.08  83 1.35  79 1.35
  12  0.865  1.000  0.875-  48 1.08  84 1.35  80 1.35
  13  0.667  0.469  0.292-  49 1.08  93 1.35  85 1.35
  14  0.667  0.469  0.792-  50 1.08  86 1.35  94 1.35
  15  0.667  0.198  0.042-  51 1.08  95 1.35  87 1.35
  16  0.667  0.198  0.542-  52 1.08  96 1.35  88 1.35
  17  0.531  0.198  0.292-  53 1.08  89 1.35  85 1.35
  18  0.531  0.198  0.792-  54 1.08  90 1.35  86 1.35
  19  0.802  0.469  0.042-  55 1.08  87 1.35  91 1.35
  20  0.802  0.469  0.542-  56 1.08  88 1.35  92 1.35
  21  0.802  0.333  0.292-  57 1.08  93 1.35  89 1.35
  22  0.802  0.333  0.792-  58 1.08  94 1.35  90 1.35
  23  0.531  0.333  0.042-  59 1.08  91 1.35  95 1.35
  24  0.531  0.333  0.542-  60 1.08  92 1.35  96 1.35
  25  0.333  0.802  0.458-  61 1.08 105 1.35  97 1.35
  26  0.333  0.802  0.958-  62 1.08 106 1.35  98 1.35
  27  0.333  0.531  0.208-  63 1.08  99 1.35 107 1.35
  28  0.333  0.531  0.708-  64 1.08 100 1.35 108 1.35
  29  0.198  0.531  0.458-  65 1.08  97 1.35 101 1.35
  30  0.198  0.531  0.958-  66 1.08  98 1.35 102 1.35
  31  0.469  0.802  0.208-  67 1.08 103 1.35  99 1.35
  32  0.469  0.802  0.708-  68 1.08 104 1.35 100 1.35
  33  0.469  0.667  0.458-  69 1.08 101 1.35 105 1.35
  34  0.469  0.667  0.958-  70 1.08 102 1.35 106 1.35
  35  0.198  0.667  0.208-  71 1.08 107 1.35 103 1.35
  36  0.198  0.667  0.708-  72 1.08 108 1.35 104 1.35
  37  1.000  0.247  0.125-   1 1.08
  38  1.000  0.247  0.625-   2 1.08
  39  0.000  0.753  0.375-   3 1.08
  40  0.000  0.753  0.875-   4 1.08
  41  0.753  0.753  0.125-   5 1.08
  42  0.753  0.753  0.625-   6 1.08
  43  0.247  0.247  0.375-   7 1.08
  44  0.247  0.247  0.875-   8 1.08
  45  0.247  1.000  0.125-   9 1.08
  46  0.247  1.000  0.625-  10 1.08
  47  0.753  0.000  0.375-  11 1.08
  48  0.753  0.000  0.875-  12 1.08
  49  0.667  0.581  0.292-  13 1.08
  50  0.667  0.581  0.792-  14 1.08
  51  0.667  0.086  0.042-  15 1.08
  52  0.667  0.086  0.542-  16 1.08
  53  0.419  0.086  0.292-  17 1.08
  54  0.419  0.086  0.792-  18 1.08
  55  0.914  0.581  0.042-  19 1.08
  56  0.914  0.581  0.542-  20 1.08
  57  0.914  0.333  0.292-  21 1.08
  58  0.914  0.333  0.792-  22 1.08
  59  0.419  0.333  0.042-  23 1.08
  60  0.419  0.333  0.542-  24 1.08
  61  0.333  0.914  0.458-  25 1.08
  62  0.333  0.914  0.958-  26 1.08
  63  0.333  0.419  0.208-  27 1.08
  64  0.333  0.419  0.708-  28 1.08
  65  0.086  0.419  0.458-  29 1.08
  66  0.086  0.419  0.958-  30 1.08
  67  0.581  0.914  0.208-  31 1.08
  68  0.581  0.914  0.708-  32 1.08
  69  0.581  0.667  0.458-  33 1.08
  70  0.581  0.667  0.958-  34 1.08
  71  0.086  0.667  0.208-  35 1.08
  72  0.086  0.667  0.708-  36 1.08
  73  0.857  1.000  0.125-   1 1.35   5 1.35
  74  0.857  1.000  0.625-   2 1.35   6 1.35
  75  0.143  0.000  0.375-   7 1.35   3 1.35
  76  0.143  0.000  0.875-   8 1.35   4 1.35
  77  0.000  0.857  0.125-   9 1.35   5 1.35
  78  0.000  0.857  0.625-  10 1.35   6 1.35
  79  0.000  0.143  0.375-   7 1.35  11 1.35
  80  0.000  0.143  0.875-   8 1.35  12 1.35
  81  0.143  0.143  0.125-   9 1.35   1 1.35
  82  0.143  0.143  0.625-  10 1.35   2 1.35
  83  0.857  0.857  0.375-  11 1.35   3 1.35
  84  0.857  0.857  0.875-  12 1.35   4 1.35
  85  0.524  0.333  0.291-  13 1.35  17 1.35
  86  0.524  0.333  0.792-  14 1.35  18 1.35
  87  0.809  0.333  0.042-  19 1.35  15 1.35
  88  0.809  0.333  0.542-  20 1.35  16 1.35
  89  0.667  0.191  0.292-  17 1.35  21 1.35
  90  0.667  0.191  0.792-  18 1.35  22 1.35
  91  0.667  0.476  0.042-  23 1.35  19 1.35
  92  0.667  0.476  0.542-  24 1.35  20 1.35
  93  0.809  0.476  0.292-  21 1.35  13 1.35
  94  0.809  0.476  0.792-  22 1.35  14 1.35
  95  0.524  0.191  0.042-  15 1.35  23 1.35
  96  0.524  0.191  0.542-  16 1.35  24 1.35
  97  0.191  0.667  0.458-  29 1.35  25 1.35
  98  0.191  0.667  0.958-  30 1.35  26 1.35
  99  0.476  0.667  0.208-  27 1.35  31 1.35
 100  0.476  0.667  0.708-  28 1.35  32 1.35
 101  0.333  0.524  0.458-  33 1.35  29 1.35
 102  0.333  0.524  0.958-  34 1.35  30 1.35
 103  0.333  0.809  0.208-  31 1.35  35 1.35
 104  0.333  0.809  0.708-  32 1.35  36 1.35
 105  0.476  0.809  0.458-  25 1.35  33 1.35
 106  0.476  0.809  0.958-  26 1.35  34 1.35
 107  0.191  0.524  0.208-  35 1.35  27 1.35
 108  0.191  0.524  0.708-  36 1.35  28 1.35

  LATTYP: Found a hexagonal cell.
 ALAT       =     9.6748296546
 C/A-ratio  =     1.4620094220
  
  Lattice vectors:
  
 A1 = (   9.6748296546,   0.0000000000,   0.0000000000)
 A2 = (  -4.8374148273,   8.3786512132,   0.0000000000)
 A3 = (   0.0000000000,   0.0000000000,  14.1446921112)


Analysis of symmetry for initial positions (statically):
=====================================================================
 Subroutine PRICEL returns:
 Original cell was already a primitive cell.
 

 Routine SETGRP: Setting up the symmetry group for a 
 hexagonal supercell.


 Subroutine GETGRP returns: Found  1 space group operations
 (whereof  1 operations were pure point group operations)
 out of a pool of 24 trial point group operations.


The static configuration has the point symmetry C_1 .


Analysis of symmetry for dynamics (positions and initial velocities):
=====================================================================
 Subroutine PRICEL returns:
 Original cell was already a primitive cell.
 

 Routine SETGRP: Setting up the symmetry group for a 
 hexagonal supercell.


 Subroutine GETGRP returns: Found  1 space group operations
 (whereof  1 operations were pure point group operations)
 out of a pool of 24 trial point group operations.


The dynamic configuration has the point symmetry C_1 .


 Subroutine INISYM returns: Found  1 space group operations
 (whereof  1 operations are pure point group operations),
 and found     1 'primitive' translations


----------------------------------------------------------------------------------------

                                     Primitive cell                                     

  volume of cell :    1146.5974

  direct lattice vectors                    reciprocal lattice vectors
     9.674829655  0.000000000  0.000000000     0.103360993  0.059675476 -0.000000000
    -4.837414827  8.378651213  0.000000000     0.000000000  0.119350952  0.000000000
     0.000000000  0.000000000 14.144692111     0.000000000 -0.000000000  0.070697898

  length of vectors
     9.674829655  9.674832214 14.144692111     0.119350984  0.119350952  0.070697898

  position of ions in fractional coordinates (direct lattice)
     0.000000044  0.135354402  0.124999998
     0.000000044  0.135354402  0.624999998
     0.999999970  0.864645600  0.374999990
     0.999999970  0.864645600  0.874999990
     0.864645446  0.864645424  0.124999963
     0.864645446  0.864645424  0.624999963
     0.135354652  0.135354621  0.375000046
     0.135354652  0.135354621  0.875000046
     0.135354485  0.000000022  0.125000004
     0.135354485  0.000000022  0.625000004
     0.864645577  0.999999982  0.374999969
     0.864645577  0.999999982  0.874999969
     0.666656661  0.468680692  0.291669670
     0.666656661  0.468680692  0.791669670
     0.666656646  0.197975980  0.041669647
     0.666656646  0.197975980  0.541669647
     0.531319159  0.197975837  0.291669634
     0.531319159  0.197975837  0.791669634
     0.802024230  0.468680863  0.041669680
     0.802024230  0.468680863  0.541669680
     0.802024118  0.333343396  0.291669647
     0.802024118  0.333343396  0.791669647
     0.531319267  0.333343338  0.041669658
     0.531319267  0.333343338  0.541669658
     0.333343423  0.802024065  0.458330353
     0.333343423  0.802024065  0.958330353
     0.333343369  0.531319269  0.208330322
     0.333343369  0.531319269  0.708330322
     0.197975731  0.531319135  0.458330353
     0.197975731  0.531319135  0.958330353
     0.468680928  0.802024212  0.208330325
     0.468680928  0.802024212  0.708330325
     0.468680775  0.666656633  0.458330350
     0.468680775  0.666656633  0.958330350
     0.197975912  0.666656602  0.208330342
     0.197975912  0.666656602  0.708330342
     0.999999978  0.247478000  0.125000018
     0.999999978  0.247478000  0.625000018
     0.000000065  0.752522002  0.374999983
     0.000000065  0.752522002  0.874999983
     0.752521843  0.752521853  0.124999986
     0.752521843  0.752521853  0.624999986
     0.247478214  0.247478158  0.375000022
     0.247478214  0.247478158  0.875000022
     0.247478188  0.999999987  0.124999995
     0.247478188  0.999999987  0.624999995
     0.752521866  0.000000013  0.374999995
     0.752521866  0.000000013  0.874999995
     0.666649171  0.580804039  0.291669060
     0.666649171  0.580804039  0.791669060
     0.666649281  0.085845215  0.041669028
     0.666649281  0.085845215  0.541669028
     0.419195867  0.085845090  0.291669027
     0.419195867  0.085845090  0.791669027
     0.914154959  0.580804151  0.041669066
     0.914154959  0.580804151  0.541669066
     0.914154937  0.333350791  0.291669034
     0.914154937  0.333350791  0.791669034
     0.419195868  0.333350799  0.041669064
     0.419195868  0.333350799  0.541669064
     0.333350772  0.914154798  0.458330977
     0.333350772  0.914154798  0.958330977
     0.333350865  0.419195963  0.208330928
     0.333350865  0.419195963  0.708330928
     0.085845043  0.419195840  0.458330951
     0.085845043  0.419195840  0.958330951
     0.580804196  0.914154918  0.208330946
     0.580804196  0.914154918  0.708330946
     0.580804158  0.666649169  0.458330945
     0.580804158  0.666649169  0.958330945
     0.085845096  0.666649231  0.208330957
     0.085845096  0.666649231  0.708330957
     0.857457724  0.999999962  0.125000013
     0.857457724  0.999999962  0.625000013
     0.142542348  0.000000059  0.374999995
     0.142542348  0.000000059  0.874999995
     0.000000022  0.857457796  0.124999971
     0.000000022  0.857457796  0.624999971
     0.000000063  0.142542230  0.375000024
     0.000000063  0.142542230  0.875000024
     0.142542343  0.142542258  0.125000006
     0.142542343  0.142542258  0.625000006
     0.857457719  0.857457766  0.374999971
     0.857457719  0.857457766  0.874999971
     0.524118435  0.333323703  0.290962764
     0.524118435  0.333323703  0.791669744
     0.809205299  0.333323797  0.041669729
     0.809205299  0.333323797  0.541669729
     0.666676257  0.190794770  0.291669699
     0.666676257  0.190794770  0.791669699
     0.666676298  0.475881527  0.041669770
     0.666676298  0.475881527  0.541669770
     0.809205297  0.475881543  0.291669738
     0.809205297  0.475881543  0.791669738
     0.524118416  0.190794754  0.041669728
     0.524118416  0.190794754  0.541669728
     0.190794740  0.666676226  0.458330288
     0.190794740  0.666676226  0.958330288
     0.475881624  0.666676319  0.208330234
     0.475881624  0.666676319  0.708330234
     0.333323678  0.524118431  0.458330243
     0.333323678  0.524118431  0.958330243
     0.333323782  0.809205231  0.208330281
     0.333323782  0.809205231  0.708330281
     0.475881611  0.809205190  0.458330283
     0.475881611  0.809205190  0.958330283
     0.190794766  0.524118479  0.208330252
     0.190794766  0.524118479  0.708330252

  ion indices of the primitive-cell ions
   primitive index   ion index
                 1           1
                 2           2
                 3           3
                 4           4
                 5           5
                 6           6
                 7           7
                 8           8
                 9           9
                10          10
                11          11
                12          12
                13          13
                14          14
                15          15
                16          16
                17          17
                18          18
                19          19
                20          20
                21          21
                22          22
                23          23
                24          24
                25          25
                26          26
                27          27
                28          28
                29          29
                30          30
                31          31
                32          32
                33          33
                34          34
                35          35
                36          36
                37          37
                38          38
                39          39
                40          40
                41          41
                42          42
                43          43
                44          44
                45          45
                46          46
                47          47
                48          48
                49          49
                50          50
                51          51
                52          52
                53          53
                54          54
                55          55
                56          56
                57          57
                58          58
                59          59
                60          60
                61          61
                62          62
                63          63
                64          64
                65          65
                66          66
                67          67
                68          68
                69          69
                70          70
                71          71
                72          72
                73          73
                74          74
                75          75
                76          76
                77          77
                78          78
                79          79
                80          80
                81          81
                82          82
                83          83
                84          84
                85          85
                86          86
                87          87
                88          88
                89          89
                90          90
                91          91
                92          92
                93          93
                94          94
                95          95
                96          96
                97          97
                98          98
                99          99
               100         100
               101         101
               102         102
               103         103
               104         104
               105         105
               106         106
               107         107
               108         108

----------------------------------------------------------------------------------------



 KPOINTS: auto                                    

Automatic generation of k-mesh.
 Grid dimensions read from file:
 generate k-points for:    1    1    1

 Generating k-lattice:

  Cartesian coordinates                     Fractional coordinates (reciprocal lattice)
     0.103360993  0.059675476 -0.000000000     1.000000000 -0.000000000  0.000000000
     0.000000000  0.119350952  0.000000000     0.000000000  1.000000000  0.000000000
     0.000000000 -0.000000000  0.070697898     0.000000000  0.000000000  1.000000000

  Length of vectors
     0.119350984  0.119350952  0.070697898

  Shift w.r.t. Gamma in fractional coordinates (k-lattice)
     0.000000000  0.000000000  0.000000000

 
 Subroutine IBZKPT returns following result:
 ===========================================
 
 Found      1 irreducible k-points:
 
 Following reciprocal coordinates:
            Coordinates               Weight
  0.000000  0.000000  0.000000      1.000000
 
 Following cartesian coordinates:
            Coordinates               Weight
  0.000000  0.000000  0.000000      1.000000
 


--------------------------------------------------------------------------------------------------------




 Dimension of arrays:
   k-points           NKPTS =      1   k-points in BZ     NKDIM =      1   number of bands    NBANDS=    256
   number of dos      NEDOS =    301   number of ions     NIONS =    108
   non local maximal  LDIM  =      4   non local SUM 2l+1 LMDIM =      8
   total plane-waves  NPLWV = ******
   max r-space proj   IRMAX =      1   max aug-charges    IRDMAX=   9490
   dimension x,y,z NGX =   100 NGY =  100 NGZ =  150
   dimension x,y,z NGXF=   200 NGYF=  200 NGZF=  300
   support grid    NGXF=   200 NGYF=  200 NGZF=  300
   ions per type =              36  36  36
   NGX,Y,Z   is equivalent  to a cutoff of  17.18, 17.18, 17.63 a.u.
   NGXF,Y,Z  is equivalent  to a cutoff of  34.37, 34.37, 35.26 a.u.

 SYSTEM =  unknown system                          
 POSCAR =  super cell                              

 Startparameter for this run:
   NWRITE =      2    write-flag & timer
   PREC   = accura    normal or accurate (medium, high low for compatibility)
   ISTART =      1    job   : 0-new  1-cont  2-samecut
   ICHARG =      0    charge: 1-file 2-atom 10-const
   ISPIN  =      1    spin polarized calculation?
   LNONCOLLINEAR =      F non collinear calculations
   LSORBIT =      F    spin-orbit coupling
   INIWAV =      1    electr: 0-lowe 1-rand  2-diag
   LASPH  =      T    aspherical Exc in radial PAW
 Electronic Relaxation 1
   ENCUT  = 1000.0 eV  73.50 Ry    8.57 a.u.  24.95 24.95 36.47*2*pi/ulx,y,z
   ENINI  = 1000.0     initial cutoff
   ENAUG  = 1000.0 eV  augmentation charge cutoff
   NELM   =     60;   NELMIN=  2; NELMDL=  0     # of ELM steps 
   EDIFF  = 0.1E-07   stopping-criterion for ELM
   LREAL  =      F    real-space projection
   NLSPLINE    = F    spline interpolate recip. space projectors
   LCOMPAT=      F    compatible to vasp.4.4
   GGA_COMPAT  = T    GGA compatible to vasp.4.4-vasp.4.6
   LMAXPAW     = -100 max onsite density
   LMAXMIX     =    2 max onsite mixed and CHGCAR
   VOSKOWN=      0    Vosko Wilk Nusair interpolation
   ROPT   =    0.00000   0.00000   0.00000
 Ionic relaxation
   EDIFFG = 0.1E-06   stopping-criterion for IOM
   NSW    =      0    number of steps for IOM
   NBLOCK =      1;   KBLOCK =      1    inner block; outer block 
   IBRION =     -1    ionic relax: 0-MD 1-quasi-New 2-CG
   NFREE  =      0    steps in history (QN), initial steepest desc. (CG)
   ISIF   =      1    stress and relaxation
   IWAVPR =     10    prediction:  0-non 1-charg 2-wave 3-comb
   ISYM   =      2    0-nonsym 1-usesym 2-fastsym
   LCORR  =      T    Harris-Foulkes like correction to forces

   POTIM  = 0.5000    time-step for ionic-motion
   TEIN   =    0.0    initial temperature
   TEBEG  =    0.0;   TEEND  =   0.0 temperature during run
   SMASS  =  -3.00    Nose mass-parameter (am)
   estimated Nose-frequenzy (Omega)   =  0.10E-29 period in steps = 0.13E+47 mass=  -0.214E-26a.u.
   SCALEE = 1.0000    scale energy and forces
   NPACO  =    256;   APACO  = 10.0  distance and # of slots for P.C.
   PSTRESS=    0.0 pullay stress

  Mass of Ions in am
   POMASS =  12.01  1.00 14.00
  Ionic Valenz
   ZVAL   =   4.00  1.00  5.00
  Atomic Wigner-Seitz radii
   RWIGS  =  -1.00 -1.00 -1.00
  virtual crystal weights 
   VCA    =   1.00  1.00  1.00
   NELECT =     360.0000    total number of electrons
   NUPDOWN=      -1.0000    fix difference up-down

 DOS related values:
   EMIN   =  10.00;   EMAX   =-10.00  energy-range for DOS
   EFERMI =   0.00;   METHOD = LEGACY      
   ISMEAR =     0;   SIGMA  =   0.01  broadening in eV -4-tet -1-fermi 0-gaus

 Electronic relaxation 2 (details)
   IALGO  =     58    algorithm
   LDIAG  =      T    sub-space diagonalisation (order eigenvalues)
   LSUBROT=      F    optimize rotation matrix (better conditioning)
   TURBO    =      0    0=normal 1=particle mesh
   IRESTART =      0    0=no restart 2=restart with 2 vectors
   NREBOOT  =      0    no. of reboots
   NMIN     =      0    reboot dimension
   EREF     =   0.00    reference energy to select bands
   IMIX   =      4    mixing-type and parameters
     AMIX     =   0.40;   BMIX     =  1.00
     AMIX_MAG =   1.60;   BMIX_MAG =  1.00
     AMIN     =   0.10
     WC   =   100.;   INIMIX=   1;  MIXPRE=   1;  MAXMIX= -45

 Intra band minimization:
   WEIMIN = 0.0000     energy-eigenvalue tresh-hold
   EBREAK =  0.98E-11  absolut break condition
   DEPER  =   0.30     relativ break condition  

   TIME   =   0.40     timestep for ELM

  volume/ion in A,a.u.               =      10.62        71.64
  Fermi-wavevector in a.u.,A,eV,Ry     =   1.112684  2.102669 16.844920  1.238067
  Thomas-Fermi vector in A             =   2.249261

 Write flags
   LWAVE        =      T    write WAVECAR
   LDOWNSAMPLE  =      F    k-point downsampling of WAVECAR
   LCHARG       =      T    write CHGCAR
   LVTOT        =      F    write LOCPOT, total local potential
   LVHAR        =      F    write LOCPOT, Hartree potential only
   LELF         =      F    write electronic localiz. function (ELF)
   LORBIT       =      0    0 simple, 1 ext, 2 COOP (PROOUT), +10 PAW based schemes


 Dipole corrections
   LMONO  =      F    monopole corrections only (constant potential shift)
   LDIPOL =      F    correct potential (dipole corrections)
   IDIPOL =      0    1-x, 2-y, 3-z, 4-all directions 
   EPSILON=  1.0000000 bulk dielectric constant

 Exchange correlation treatment:
   GGA     =    ML    GGA type
   LEXCH   =    44    internal setting for exchange type
   LIBXC   =     F    Libxc                    
   VOSKOWN =     0    Vosko Wilk Nusair interpolation
   LHFCALC =     F    Hartree Fock is set to
   LHFONE  =     F    Hartree Fock one center treatment
   AEXX    =    0.0000 exact exchange contribution

 vdW DFT:
   LUSE_VDW   =     T    switch on vdW DFT
   IVDW_NL    =     1    kernel type
   LSPIN_VDW  =     F    use spin-polarized vdW DFT
   Zab_VDW    =******    correlation parameter
   PARAM1     =0.1234
   PARAM2     =1.0000
   PARAM3     =0.0000
   -- rVV10 --
   BPARAM     = 6.3000
   CPARAM     = 0.0093

 Linear response parameters
   LEPSILON=     F    determine dielectric tensor
   LRPA    =     F    only Hartree local field effects (RPA)
   LNABLA  =     F    use nabla operator in PAW spheres
   LVEL    =     F    velocity operator in full k-point grid
   CSHIFT  =0.1000    complex shift for real part using Kramers Kronig
   OMEGAMAX=  -1.0    maximum frequency
   DEG_THRESHOLD= 0.2000000E-02 threshold for treating states as degnerate
   RTIME   =   -0.100 relaxation time in fs
  (WPLASMAI=    0.000 imaginary part of plasma frequency in eV, 0.658/RTIME)
   DFIELD  = 0.0000000 0.0000000 0.0000000 field for delta impulse in time

  Optional k-point grid parameters
   LKPOINTS_OPT  =     F    use optional k-point grid
   KPOINTS_OPT_MODE=     1    mode for optional k-point grid

 Orbital magnetization related:
   ORBITALMAG=     F  switch on orbital magnetization
   LCHIMAG   =     F  perturbation theory with respect to B field
   DQ        =  0.001000  dq finite difference perturbation B field
   LLRAUG    =     F  two centre corrections for induced B field
   LBONE     =     F  B-component reconstruction in AE one-centre
   LVGVCALC  =     T  calculate vGv susceptibility
   LVGVAPPL  =     F  apply vGv susceptibility instead of pGv for G=0

 Random number generation:
   RANDOM_GENERATOR = DEFAULT
   PCG_SEED         = not used


--------------------------------------------------------------------------------------------------------


 Static calculation
 charge density and potential will be updated during run
 non-spin polarized calculation
 Conjugate gradient for all bands (Freysoldt, et al. PRB 79, 241103 (2009))
 preconditioned conjugated gradient                                        
 perform sub-space diagonalisation
    before iterative eigenvector-optimisation
 modified Broyden-mixing scheme, WC =      100.0
 initial mixing is a Kerker type mixing with AMIX =  0.4000 and BMIX =      1.0000
 Hartree-type preconditioning will be used
 using additional bands           76
 reciprocal scheme for non local part
 use partial core corrections
 no Harris-corrections to forces 
 use gradient corrections 
 use of overlap-Matrix (Vanderbilt PP)
 Gauss-broadening in eV      SIGMA  =   0.01


--------------------------------------------------------------------------------------------------------


  energy-cutoff  :     1000.00
  volume of cell :     1146.60
      direct lattice vectors                 reciprocal lattice vectors
     9.674829655  0.000000000  0.000000000     0.103360993  0.059675476 -0.000000000
    -4.837414827  8.378651213  0.000000000     0.000000000  0.119350952  0.000000000
     0.000000000  0.000000000 14.144692111     0.000000000 -0.000000000  0.070697898

  length of vectors
     9.674829655  9.674832214 14.144692111     0.119350984  0.119350952  0.070697898



 old parameters found on file WAVECAR:
  energy-cutoff  :     1000.00
  volume of cell :     1146.60
      direct lattice vectors                 reciprocal lattice vectors
     9.674829655  0.000000000  0.000000000     0.103360993  0.059675476 -0.000000000
    -4.837414827  8.378651213  0.000000000     0.000000000  0.119350952  0.000000000
     0.000000000  0.000000000 14.144692111     0.000000000 -0.000000000  0.070697898

  length of vectors


 k-points in units of 2pi/SCALE and weight: auto                                    
   0.00000000  0.00000000  0.00000000       1.000

 k-points in reciprocal lattice and weights: auto                                    
   0.00000000  0.00000000  0.00000000       1.000

 position of ions in fractional coordinates (direct lattice) 
   0.00000004  0.13535440  0.12500000
   0.00000004  0.13535440  0.62500000
   0.99999997  0.86464560  0.37499999
   0.99999997  0.86464560  0.87499999
   0.86464545  0.86464542  0.12499996
   0.86464545  0.86464542  0.62499996
   0.13535465  0.13535462  0.37500005
   0.13535465  0.13535462  0.87500005
   0.13535449  0.00000002  0.12500000
   0.13535449  0.00000002  0.62500000
   0.86464558  0.99999998  0.37499997
   0.86464558  0.99999998  0.87499997
   0.66665666  0.46868069  0.29166967
   0.66665666  0.46868069  0.79166967
   0.66665665  0.19797598  0.04166965
   0.66665665  0.19797598  0.54166965
   0.53131916  0.19797584  0.29166963
   0.53131916  0.19797584  0.79166963
   0.80202423  0.46868086  0.04166968
   0.80202423  0.46868086  0.54166968
   0.80202412  0.33334340  0.29166965
   0.80202412  0.33334340  0.79166965
   0.53131927  0.33334334  0.04166966
   0.53131927  0.33334334  0.54166966
   0.33334342  0.80202406  0.45833035
   0.33334342  0.80202406  0.95833035
   0.33334337  0.53131927  0.20833032
   0.33334337  0.53131927  0.70833032
   0.19797573  0.53131913  0.45833035
   0.19797573  0.53131913  0.95833035
   0.46868093  0.80202421  0.20833032
   0.46868093  0.80202421  0.70833032
   0.46868078  0.66665663  0.45833035
   0.46868078  0.66665663  0.95833035
   0.19797591  0.66665660  0.20833034
   0.19797591  0.66665660  0.70833034
   0.99999998  0.24747800  0.12500002
   0.99999998  0.24747800  0.62500002
   0.00000007  0.75252200  0.37499998
   0.00000007  0.75252200  0.87499998
   0.75252184  0.75252185  0.12499999
   0.75252184  0.75252185  0.62499999
   0.24747821  0.24747816  0.37500002
   0.24747821  0.24747816  0.87500002
   0.24747819  0.99999999  0.12500000
   0.24747819  0.99999999  0.62500000
   0.75252187  0.00000001  0.37500000
   0.75252187  0.00000001  0.87500000
   0.66664917  0.58080404  0.29166906
   0.66664917  0.58080404  0.79166906
   0.66664928  0.08584521  0.04166903
   0.66664928  0.08584521  0.54166903
   0.41919587  0.08584509  0.29166903
   0.41919587  0.08584509  0.79166903
   0.91415496  0.58080415  0.04166907
   0.91415496  0.58080415  0.54166907
   0.91415494  0.33335079  0.29166903
   0.91415494  0.33335079  0.79166903
   0.41919587  0.33335080  0.04166906
   0.41919587  0.33335080  0.54166906
   0.33335077  0.91415480  0.45833098
   0.33335077  0.91415480  0.95833098
   0.33335086  0.41919596  0.20833093
   0.33335086  0.41919596  0.70833093
   0.08584504  0.41919584  0.45833095
   0.08584504  0.41919584  0.95833095
   0.58080420  0.91415492  0.20833095
   0.58080420  0.91415492  0.70833095
   0.58080416  0.66664917  0.45833095
   0.58080416  0.66664917  0.95833095
   0.08584510  0.66664923  0.20833096
   0.08584510  0.66664923  0.70833096
   0.85745772  0.99999996  0.12500001
   0.85745772  0.99999996  0.62500001
   0.14254235  0.00000006  0.37500000
   0.14254235  0.00000006  0.87500000
   0.00000002  0.85745780  0.12499997
   0.00000002  0.85745780  0.62499997
   0.00000006  0.14254223  0.37500002
   0.00000006  0.14254223  0.87500002
   0.14254234  0.14254226  0.12500001
   0.14254234  0.14254226  0.62500001
   0.85745772  0.85745777  0.37499997
   0.85745772  0.85745777  0.87499997
   0.52411843  0.33332370  0.29096276
   0.52411843  0.33332370  0.79166974
   0.80920530  0.33332380  0.04166973
   0.80920530  0.33332380  0.54166973
   0.66667626  0.19079477  0.29166970
   0.66667626  0.19079477  0.79166970
   0.66667630  0.47588153  0.04166977
   0.66667630  0.47588153  0.54166977
   0.80920530  0.47588154  0.29166974
   0.80920530  0.47588154  0.79166974
   0.52411842  0.19079475  0.04166973
   0.52411842  0.19079475  0.54166973
   0.19079474  0.66667623  0.45833029
   0.19079474  0.66667623  0.95833029
   0.47588162  0.66667632  0.20833023
   0.47588162  0.66667632  0.70833023
   0.33332368  0.52411843  0.45833024
   0.33332368  0.52411843  0.95833024
   0.33332378  0.80920523  0.20833028
   0.33332378  0.80920523  0.70833028
   0.47588161  0.80920519  0.45833028
   0.47588161  0.80920519  0.95833028
   0.19079477  0.52411848  0.20833025
   0.19079477  0.52411848  0.70833025

 position of ions in cartesian coordinates  (Angst):
  -0.65476497  1.13408732  1.76808649
  -0.65476497  1.13408732  8.84043254
   5.49217992  7.24456391  5.30425940
   5.49217992  7.24456391 12.37660546
   4.18264881  7.24456243  1.76808599
   4.18264881  7.24456243  8.84043205
   0.65476675  1.13408916  5.30426019
   0.65476675  1.13408916 12.37660625
   1.30953148  0.00000018  1.76808657
   1.30953148  0.00000018  8.84043263
   3.52788393  8.37865106  5.30425910
   3.52788393  8.37865106 12.37660516
   4.18258670  3.92691205  4.12557768
   4.18258670  3.92691205 11.19792374
   5.49209755  1.65877169  0.58940433
   5.49209755  1.65877169  7.66175038
   4.18273111  1.65877049  4.12557717
   4.18273111  1.65877049 11.19792323
   5.49224405  3.92691348  0.58940479
   5.49224405  3.92691348  7.66175085
   6.14692643  2.79296805  4.12557736
   6.14692643  2.79296805 11.19792341
   3.52790339  2.79296756  0.58940448
   3.52790339  2.79296756  7.66175054
  -0.65468227  6.71987991  6.48294173
  -0.65468227  6.71987991 13.55528778
   0.65482860  4.45173884  2.94676826
   0.65482860  4.45173884 10.01911432
  -0.65482959  4.45173772  6.48294173
  -0.65482959  4.45173772 13.55528778
   0.65468433  6.71988114  2.94676830
   0.65468433  6.71988114 10.01911436
   1.30951198  5.58568341  6.48294169
   1.30951198  5.58568341 13.55528774
  -1.30951131  5.58568315  2.94676855
  -1.30951131  5.58568315 10.01911460
   8.47767570  2.07353184  1.76808677
   8.47767570  2.07353184  8.84043282
  -3.64026046  6.30511938  5.30425930
  -3.64026046  6.30511938 12.37660536
   3.64026027  6.30511814  1.76808632
   3.64026027  6.30511814  8.84043237
   1.19715505  2.07353317  5.30425985
   1.19715505  2.07353317 12.37660591
  -2.44310545  8.37865110  1.76808644
  -2.44310545  8.37865110  8.84043250
   7.28052080  0.00000011  5.30425947
   7.28052080  0.00000011 12.37660553
   3.64012710  4.86635447  4.12556905
   3.64012710  4.86635447 11.19791511
   6.03444932  0.71926711  0.58939557
   6.03444932  0.71926711  7.66174163
   3.64038029  0.71926607  4.12556859
   3.64038029  0.71926607 11.19791464
   6.03470289  4.86635540  0.58939611
   6.03470289  4.86635540  7.66174216
   7.23173723  2.79303001  4.12556868
   7.23173723  2.79303001 11.19791474
   2.44309252  2.79303008  0.58939608
   2.44309252  2.79303008  7.66174214
  -1.19703404  7.65938421  6.48295055
  -1.19703404  7.65938421 13.55529661
   1.19728807  3.51229676  2.94677683
   1.19728807  3.51229676 10.01912289
  -1.19728800  3.51229573  6.48295019
  -1.19728800  3.51229573 13.55529624
   1.19703510  7.65938521  2.94677709
   1.19703510  7.65938521 10.01912314
   2.39432272  5.58562087  6.48295010
   2.39432272  5.58562087 13.55529616
  -2.39432219  5.58562139  2.94677724
  -2.39432219  5.58562139 10.01912330
   3.45834277  8.37865089  1.76808670
   3.45834277  8.37865089  8.84043275
   1.37907265  0.00000049  5.30425947
   1.37907265  0.00000049 12.37660553
  -4.14787884  7.18433980  1.76808610
  -4.14787884  7.18433980  8.84043216
  -0.68953529  1.19431163  5.30425988
  -0.68953529  1.19431163 12.37660594
   0.68953685  1.19431186  1.76808660
   0.68953685  1.19431186  8.84043265
   4.14787846  7.18433955  5.30425913
   4.14787846  7.18433955 12.37660519
   3.45833155  2.79280305  4.11557871
   3.45833155  2.79280305 11.19792478
   6.21649795  2.79280384  0.58940549
   6.21649795  2.79280384  7.66175154
   5.52702577  1.59860283  4.12557809
   5.52702577  1.59860283 11.19792415
   4.14794326  3.98724533  0.58940607
   4.14794326  3.98724533  7.66175212
   5.52688697  3.98724547  4.12557864
   5.52688697  3.98724547 11.19792470
   4.14780302  1.59860270  0.58940547
   4.14780302  1.59860270  7.66175153
  -1.37908285  5.58584757  6.48294081
  -1.37908285  5.58584757 13.55528686
   1.37908374  5.58584835  2.94676702
   1.37908374  5.58584835 10.01911307
   0.68947154  4.39140553  6.48294017
   0.68947154  4.39140553 13.55528623
  -0.68961057  6.78004839  2.94676768
  -0.68961057  6.78004839 10.01911374
   0.68961234  6.78004805  6.48294074
   0.68961234  6.78004805 13.55528679
  -0.68947164  4.39140593  2.94676727
  -0.68947164  4.39140593 10.01911333



--------------------------------------------------------------------------------------------------------


 use parallel FFT for orbitals z direction half grid
 k-point   1 :   0.0000 0.0000 0.0000  plane waves:   41116

 maximum and minimum number of plane-waves per node :     10281    10277

 maximum number of plane-waves:     41116
 maximum index in each direction: 
   IXMAX=   24   IYMAX=   24   IZMAX=   36
   IXMIN=  -24   IYMIN=  -24   IZMIN=    0


 parallel 3D FFT for wavefunctions:
    minimum data exchange during FFTs selected (reduces bandwidth)
 parallel 3D FFT for charge:
    minimum data exchange during FFTs selected (reduces bandwidth)


 total amount of memory used by VASP MPI-rank0    79609. kBytes
=======================================================================

   base      :      30000. kBytes
   nonl-proj :      19906. kBytes
   fftplans  :       9758. kBytes
   grid      :      18899. kBytes
   one-center:         41. kBytes
   wavefun   :       1005. kBytes

     INWAV:  cpu time      0.2958: real time      0.7093
 Broyden mixing: mesh for mixing (old mesh)
   NGX = 49   NGY = 49   NGZ = 73
  (NGX  =200   NGY  =200   NGZ  =300)
  gives a total of 175273 points

 charge density for first step will be calculated from the start-wavefunctions


--------------------------------------------------------------------------------------------------------


 Maximum index for augmentation-charges          480 (set IRDMAX)


--------------------------------------------------------------------------------------------------------


 initial charge from wavefunction
 First call to EWALD:  gamma=   0.169
 Maximum number of real-space cells 3x 3x 2
 Maximum number of reciprocal cells 3x 3x 4

    FEWALD:  cpu time      0.0054: real time      0.0054


--------------------------------------- Ionic step        1  -------------------------------------------




--------------------------------------- Iteration      1(   1)  ---------------------------------------


vdW kernel read from vdw_kernel.bindat
  0.0000  0.2424  0.5071  0.7962  1.1119  1.4567  1.8333  2.2446  2.6937  3.1842
  3.7199  4.3049  4.9438  5.6415  6.4036  7.2358  8.1446  9.1372 10.2212 11.4050
 12.6979 14.1099 15.6519 17.3360 19.1751 21.1837 23.3773 25.7729 28.3892 31.2465
 34.3669 37.7748 41.4965 45.5611 50.0000

    POTLOK:  cpu time      2.1995: real time      2.2110
    SETDIJ:  cpu time      0.0779: real time      0.0784
    TRIAL :  cpu time     15.0376: real time     15.0454
    CORREC:  cpu time      1.9005: real time      1.9021
    CHARGE:  cpu time      0.0762: real time      0.0765
    --------------------------------------------
      LOOP:  cpu time     19.2941: real time     19.3588

 eigenvalue-minimisations  :     0
 total energy-change (2. order) :-0.6370374E+03  (-0.1541184E+00)
 number of electron     359.9999999 magnetization 
 augmentation part       -1.3667376 magnetization 

 Free energy of the ion-electron system (eV)
  ---------------------------------------------------
  alpha Z        PSCENC =       350.24993335
  Ewald energy   TEWEN  =     -7334.47851704
  -Hartree energ DENC   =     -7446.92520379
  -exchange      EXHF   =         0.00000000
  -V(xc)+E(xc)   XCENC  =       922.62771006
  PAW double counting   =    116558.56589592  -116325.54894621
  entropy T*S    EENTRO =        -0.00000000
  eigenvalues    EBANDS =     -2941.82176996
  atomic energy  EATOM  =     15580.29347458
  ---------------------------------------------------
  free energy    TOTEN  =      -637.03742309 eV

  energy without entropy =     -637.03742309  energy(sigma->0) =     -637.03742309


--------------------------------------------------------------------------------------------------------




--------------------------------------- Iteration      1(   2)  ---------------------------------------


    POTLOK:  cpu time      1.5881: real time      1.5885
    SETDIJ:  cpu time      0.0720: real time      0.0720
    TRIAL :  cpu time      0.3236: real time      0.3240
    CORREC:  cpu time      1.8838: real time      1.8842
    CHARGE:  cpu time      0.0919: real time      0.0923
    --------------------------------------------
      LOOP:  cpu time      3.9887: real time      3.9921

 eigenvalue-minimisations  :     0
 total energy-change (2. order) :-0.1539925E+00  (-0.3190236E-01)
 number of electron     359.9999999 magnetization 
 augmentation part       -1.3658611 magnetization 

 Free energy of the ion-electron system (eV)
  ---------------------------------------------------
  alpha Z        PSCENC =       350.24993335
  Ewald energy   TEWEN  =     -7334.47851704
  -Hartree energ DENC   =     -7444.79962615
  -exchange      EXHF   =         0.00000000
  -V(xc)+E(xc)   XCENC  =       922.54948936
  PAW double counting   =    115416.80837276  -115183.77967516
  entropy T*S    EENTRO =        -0.00000000
  eigenvalues    EBANDS =     -2944.03486729
  atomic energy  EATOM  =     15580.29347458
  ---------------------------------------------------
  free energy    TOTEN  =      -637.19141558 eV

  energy without entropy =     -637.19141558  energy(sigma->0) =     -637.19141558


--------------------------------------------------------------------------------------------------------




--------------------------------------- Iteration      1(   3)  ---------------------------------------


    POTLOK:  cpu time      1.6025: real time      1.6029
    SETDIJ:  cpu time      0.0698: real time      0.0698
    TRIAL :  cpu time      0.3130: real time      0.3133
    CORREC:  cpu time      1.8626: real time      1.8630
    CHARGE:  cpu time      0.0911: real time      0.0911
    --------------------------------------------
      LOOP:  cpu time      3.9518: real time      3.9700

 eigenvalue-minimisations  :     0
 total energy-change (2. order) :-0.3190955E-01  (-0.3908407E-02)
 number of electron     359.9999999 magnetization 
 augmentation part       -1.3657570 magnetization 

 Free energy of the ion-electron system (eV)
  ---------------------------------------------------
  alpha Z        PSCENC =       350.24993335
  Ewald energy   TEWEN  =     -7334.47851704
  -Hartree energ DENC   =     -7446.26090043
  -exchange      EXHF   =         0.00000000
  -V(xc)+E(xc)   XCENC  =       922.62670945
  PAW double counting   =    115210.18754236  -114977.17931279
  entropy T*S    EENTRO =        -0.00000000
  eigenvalues    EBANDS =     -2942.66225462
  atomic energy  EATOM  =     15580.29347458
  ---------------------------------------------------
  free energy    TOTEN  =      -637.22332514 eV

  energy without entropy =     -637.22332514  energy(sigma->0) =     -637.22332514


--------------------------------------------------------------------------------------------------------




--------------------------------------- Iteration      1(   4)  ---------------------------------------


    POTLOK:  cpu time      1.6229: real time      1.6233
    SETDIJ:  cpu time      0.0697: real time      0.0697
    TRIAL :  cpu time      0.3093: real time      0.3096
    CORREC:  cpu time      1.8622: real time      1.8625
    CHARGE:  cpu time      0.0912: real time      0.0912
    --------------------------------------------
      LOOP:  cpu time      3.9856: real time      3.9870

 eigenvalue-minimisations  :     0
 total energy-change (2. order) :-0.3908605E-02  (-0.7263541E-03)
 number of electron     359.9999999 magnetization 
 augmentation part       -1.3657466 magnetization 

 Free energy of the ion-electron system (eV)
  ---------------------------------------------------
  alpha Z        PSCENC =       350.24993335
  Ewald energy   TEWEN  =     -7334.47851704
  -Hartree energ DENC   =     -7445.96135907
  -exchange      EXHF   =         0.00000000
  -V(xc)+E(xc)   XCENC  =       922.60600955
  PAW double counting   =    115204.63209344  -114971.62071758
  entropy T*S    EENTRO =        -0.00000000
  eigenvalues    EBANDS =     -2942.94815096
  atomic energy  EATOM  =     15580.29347458
  ---------------------------------------------------
  free energy    TOTEN  =      -637.22723374 eV

  energy without entropy =     -637.22723374  energy(sigma->0) =     -637.22723374


--------------------------------------------------------------------------------------------------------




--------------------------------------- Iteration      1(   5)  ---------------------------------------


    POTLOK:  cpu time      1.6677: real time      1.6684
    SETDIJ:  cpu time      0.0704: real time      0.0704
    TRIAL :  cpu time      0.3016: real time      0.3020
    CORREC:  cpu time      1.8687: real time      1.8690
    CHARGE:  cpu time      0.0910: real time      0.0910
    --------------------------------------------
      LOOP:  cpu time      4.0159: real time      4.0310

 eigenvalue-minimisations  :     0
 total energy-change (2. order) :-0.7263565E-03  (-0.2108180E-03)
 number of electron     359.9999999 magnetization 
 augmentation part       -1.3657268 magnetization 

 Free energy of the ion-electron system (eV)
  ---------------------------------------------------
  alpha Z        PSCENC =       350.24993335
  Ewald energy   TEWEN  =     -7334.47851704
  -Hartree energ DENC   =     -7445.97426853
  -exchange      EXHF   =         0.00000000
  -V(xc)+E(xc)   XCENC  =       922.60628114
  PAW double counting   =    115203.86328806  -114970.85224872
  entropy T*S    EENTRO =        -0.00000000
  eigenvalues    EBANDS =     -2942.93590292
  atomic energy  EATOM  =     15580.29347458
  ---------------------------------------------------
  free energy    TOTEN  =      -637.22796010 eV

  energy without entropy =     -637.22796010  energy(sigma->0) =     -637.22796010


--------------------------------------------------------------------------------------------------------




--------------------------------------- Iteration      1(   6)  ---------------------------------------


    POTLOK:  cpu time      1.5883: real time      1.5887
    SETDIJ:  cpu time      0.0703: real time      0.0703
    TRIAL :  cpu time      0.3008: real time      0.3008
    CORREC:  cpu time      1.8692: real time      1.8700
    CHARGE:  cpu time      0.0908: real time      0.0908
    --------------------------------------------
      LOOP:  cpu time      3.9331: real time      3.9512

 eigenvalue-minimisations  :     0
 total energy-change (2. order) :-0.2107215E-03  (-0.8674086E-04)
 number of electron     359.9999999 magnetization 
 augmentation part       -1.3657247 magnetization 

 Free energy of the ion-electron system (eV)
  ---------------------------------------------------
  alpha Z        PSCENC =       350.24993335
  Ewald energy   TEWEN  =     -7334.47851704
  -Hartree energ DENC   =     -7446.03867589
  -exchange      EXHF   =         0.00000000
  -V(xc)+E(xc)   XCENC  =       922.61000425
  PAW double counting   =    115204.66506477  -114971.65485733
  entropy T*S    EENTRO =        -0.00000000
  eigenvalues    EBANDS =     -2942.87459750
  atomic energy  EATOM  =     15580.29347458
  ---------------------------------------------------
  free energy    TOTEN  =      -637.22817082 eV

  energy without entropy =     -637.22817082  energy(sigma->0) =     -637.22817082


--------------------------------------------------------------------------------------------------------




--------------------------------------- Iteration      1(   7)  ---------------------------------------


    POTLOK:  cpu time      1.5964: real time      1.5970
    SETDIJ:  cpu time      0.0698: real time      0.0698
    TRIAL :  cpu time      0.3047: real time      0.3047
    CORREC:  cpu time      1.9003: real time      1.9013
    CHARGE:  cpu time      0.0902: real time      0.0902
    --------------------------------------------
      LOOP:  cpu time      3.9768: real time      3.9933

 eigenvalue-minimisations  :     0
 total energy-change (2. order) :-0.8695899E-04  (-0.3090743E-04)
 number of electron     359.9999999 magnetization 
 augmentation part       -1.3657132 magnetization 

 Free energy of the ion-electron system (eV)
  ---------------------------------------------------
  alpha Z        PSCENC =       350.24993335
  Ewald energy   TEWEN  =     -7334.47851704
  -Hartree energ DENC   =     -7445.97689260
  -exchange      EXHF   =         0.00000000
  -V(xc)+E(xc)   XCENC  =       922.60646823
  PAW double counting   =    115207.85787802  -114974.84696949
  entropy T*S    EENTRO =        -0.00000000
  eigenvalues    EBANDS =     -2942.93363283
  atomic energy  EATOM  =     15580.29347458
  ---------------------------------------------------
  free energy    TOTEN  =      -637.22825778 eV

  energy without entropy =     -637.22825778  energy(sigma->0) =     -637.22825778


--------------------------------------------------------------------------------------------------------




--------------------------------------- Iteration      1(   8)  ---------------------------------------


    POTLOK:  cpu time      1.6197: real time      1.6203
    SETDIJ:  cpu time      0.0724: real time      0.0724
    TRIAL :  cpu time      0.3015: real time      0.3015
    CORREC:  cpu time      1.8782: real time      1.8790
    CHARGE:  cpu time      0.0914: real time      0.0914
    --------------------------------------------
      LOOP:  cpu time      3.9785: real time      3.9972

 eigenvalue-minimisations  :     0
 total energy-change (2. order) :-0.3087842E-04  (-0.7788489E-05)
 number of electron     359.9999999 magnetization 
 augmentation part       -1.3657136 magnetization 

 Free energy of the ion-electron system (eV)
  ---------------------------------------------------
  alpha Z        PSCENC =       350.24993335
  Ewald energy   TEWEN  =     -7334.47851704
  -Hartree energ DENC   =     -7446.01059306
  -exchange      EXHF   =         0.00000000
  -V(xc)+E(xc)   XCENC  =       922.60818196
  PAW double counting   =    115206.91352694  -114973.90301240
  entropy T*S    EENTRO =        -0.00000000
  eigenvalues    EBANDS =     -2942.90128299
  atomic energy  EATOM  =     15580.29347458
  ---------------------------------------------------
  free energy    TOTEN  =      -637.22828866 eV

  energy without entropy =     -637.22828866  energy(sigma->0) =     -637.22828866


--------------------------------------------------------------------------------------------------------




--------------------------------------- Iteration      1(   9)  ---------------------------------------


    POTLOK:  cpu time      1.6263: real time      1.6270
    SETDIJ:  cpu time      0.0698: real time      0.0698
    TRIAL :  cpu time      0.3034: real time      0.3038
    CORREC:  cpu time      1.9343: real time      1.9347
    CHARGE:  cpu time      0.0906: real time      0.0910
    --------------------------------------------
      LOOP:  cpu time      4.0714: real time      4.0735

 eigenvalue-minimisations  :     0
 total energy-change (2. order) :-0.7808601E-05  (-0.2051964E-05)
 number of electron     359.9999999 magnetization 
 augmentation part       -1.3657121 magnetization 

 Free energy of the ion-electron system (eV)
  ---------------------------------------------------
  alpha Z        PSCENC =       350.24993335
  Ewald energy   TEWEN  =     -7334.47851704
  -Hartree energ DENC   =     -7446.00026192
  -exchange      EXHF   =         0.00000000
  -V(xc)+E(xc)   XCENC  =       922.60762088
  PAW double counting   =    115206.54769804  -114973.53707023
  entropy T*S    EENTRO =        -0.00000000
  eigenvalues    EBANDS =     -2942.91117413
  atomic energy  EATOM  =     15580.29347458
  ---------------------------------------------------
  free energy    TOTEN  =      -637.22829647 eV

  energy without entropy =     -637.22829647  energy(sigma->0) =     -637.22829647


--------------------------------------------------------------------------------------------------------




--------------------------------------- Iteration      1(  10)  ---------------------------------------


    POTLOK:  cpu time      1.5848: real time      1.5852
    SETDIJ:  cpu time      0.0697: real time      0.0697
    TRIAL :  cpu time      0.2997: real time      0.2999
    CORREC:  cpu time      1.8662: real time      1.8665
    CHARGE:  cpu time      0.0908: real time      0.0908
    --------------------------------------------
      LOOP:  cpu time      3.9243: real time      3.9423

 eigenvalue-minimisations  :     0
 total energy-change (2. order) :-0.2054672E-05  (-0.6835044E-06)
 number of electron     359.9999999 magnetization 
 augmentation part       -1.3657113 magnetization 

 Free energy of the ion-electron system (eV)
  ---------------------------------------------------
  alpha Z        PSCENC =       350.24993335
  Ewald energy   TEWEN  =     -7334.47851704
  -Hartree energ DENC   =     -7446.00068827
  -exchange      EXHF   =         0.00000000
  -V(xc)+E(xc)   XCENC  =       922.60765213
  PAW double counting   =    115206.31142232  -114973.30079412
  entropy T*S    EENTRO =        -0.00000000
  eigenvalues    EBANDS =     -2942.91078147
  atomic energy  EATOM  =     15580.29347458
  ---------------------------------------------------
  free energy    TOTEN  =      -637.22829852 eV

  energy without entropy =     -637.22829852  energy(sigma->0) =     -637.22829852


--------------------------------------------------------------------------------------------------------




--------------------------------------- Iteration      1(  11)  ---------------------------------------


    POTLOK:  cpu time      1.5888: real time      1.5894
    SETDIJ:  cpu time      0.0698: real time      0.0698
    TRIAL :  cpu time      0.3013: real time      0.3013
    CORREC:  cpu time      1.8633: real time      1.8642
    CHARGE:  cpu time      0.0914: real time      0.0914
    --------------------------------------------
      LOOP:  cpu time      3.9281: real time      3.9463

 eigenvalue-minimisations  :     0
 total energy-change (2. order) :-0.6789051E-06  (-0.1923422E-06)
 number of electron     359.9999999 magnetization 
 augmentation part       -1.3657119 magnetization 

 Free energy of the ion-electron system (eV)
  ---------------------------------------------------
  alpha Z        PSCENC =       350.24993335
  Ewald energy   TEWEN  =     -7334.47851704
  -Hartree energ DENC   =     -7446.00333110
  -exchange      EXHF   =         0.00000000
  -V(xc)+E(xc)   XCENC  =       922.60780599
  PAW double counting   =    115206.24265011  -114973.23204776
  entropy T*S    EENTRO =        -0.00000000
  eigenvalues    EBANDS =     -2942.90826733
  atomic energy  EATOM  =     15580.29347458
  ---------------------------------------------------
  free energy    TOTEN  =      -637.22829920 eV

  energy without entropy =     -637.22829920  energy(sigma->0) =     -637.22829920


--------------------------------------------------------------------------------------------------------




--------------------------------------- Iteration      1(  12)  ---------------------------------------


    POTLOK:  cpu time      1.6001: real time      1.6008
    SETDIJ:  cpu time      0.0697: real time      0.0697
    TRIAL :  cpu time      0.3008: real time      0.3008
    CORREC:  cpu time      1.9069: real time      1.9076
    CHARGE:  cpu time      0.0911: real time      0.0911
    --------------------------------------------
      LOOP:  cpu time      3.9828: real time      4.0002

 eigenvalue-minimisations  :     0
 total energy-change (2. order) :-0.1961307E-06  (-0.5884706E-07)
 number of electron     359.9999999 magnetization 
 augmentation part       -1.3657111 magnetization 

 Free energy of the ion-electron system (eV)
  ---------------------------------------------------
  alpha Z        PSCENC =       350.24993335
  Ewald energy   TEWEN  =     -7334.47851704
  -Hartree energ DENC   =     -7446.00058064
  -exchange      EXHF   =         0.00000000
  -V(xc)+E(xc)   XCENC  =       922.60765914
  PAW double counting   =    115206.33495413  -114973.32432036
  entropy T*S    EENTRO =        -0.00000000
  eigenvalues    EBANDS =     -2942.91090256
  atomic energy  EATOM  =     15580.29347458
  ---------------------------------------------------
  free energy    TOTEN  =      -637.22829939 eV

  energy without entropy =     -637.22829939  energy(sigma->0) =     -637.22829939


--------------------------------------------------------------------------------------------------------




--------------------------------------- Iteration      1(  13)  ---------------------------------------


    POTLOK:  cpu time      1.5847: real time      1.5855
    SETDIJ:  cpu time      0.0698: real time      0.0698
    TRIAL :  cpu time      0.3036: real time      0.3036
    CORREC:  cpu time      1.8665: real time      1.8671
    CHARGE:  cpu time      0.0905: real time      0.0905
    --------------------------------------------
      LOOP:  cpu time      3.9306: real time      3.9466

 eigenvalue-minimisations  :     0
 total energy-change (2. order) :-0.5718903E-07  (-0.1165101E-07)
 number of electron     359.9999999 magnetization 
 augmentation part       -1.3657113 magnetization 

 Free energy of the ion-electron system (eV)
  ---------------------------------------------------
  alpha Z        PSCENC =       350.24993335
  Ewald energy   TEWEN  =     -7334.47851704
  -Hartree energ DENC   =     -7446.00271145
  -exchange      EXHF   =         0.00000000
  -V(xc)+E(xc)   XCENC  =       922.60777103
  PAW double counting   =    115206.31397266  -114973.30336361
  entropy T*S    EENTRO =        -0.00000000
  eigenvalues    EBANDS =     -2942.90885896
  atomic energy  EATOM  =     15580.29347458
  ---------------------------------------------------
  free energy    TOTEN  =      -637.22829945 eV

  energy without entropy =     -637.22829945  energy(sigma->0) =     -637.22829945


--------------------------------------------------------------------------------------------------------




--------------------------------------- Iteration      1(  14)  ---------------------------------------


    POTLOK:  cpu time      1.6522: real time      1.6533
    SETDIJ:  cpu time      0.0697: real time      0.0697
    TRIAL :  cpu time      0.3004: real time      0.3004
    CORREC:  cpu time      1.8574: real time      1.8583
    CHARGE:  cpu time      0.0908: real time      0.0908
    --------------------------------------------
      LOOP:  cpu time      3.9847: real time      4.0029

 eigenvalue-minimisations  :     0
 total energy-change (2. order) :-0.1183071E-07  (-0.3576668E-08)
 number of electron     359.9999999 magnetization 
 augmentation part       -1.3657112 magnetization 

 Free energy of the ion-electron system (eV)
  ---------------------------------------------------
  alpha Z        PSCENC =       350.24993335
  Ewald energy   TEWEN  =     -7334.47851704
  -Hartree energ DENC   =     -7446.00176310
  -exchange      EXHF   =         0.00000000
  -V(xc)+E(xc)   XCENC  =       922.60771899
  PAW double counting   =    115206.33586019  -114973.32524058
  entropy T*S    EENTRO =        -0.00000000
  eigenvalues    EBANDS =     -2942.90976584
  atomic energy  EATOM  =     15580.29347458
  ---------------------------------------------------
  free energy    TOTEN  =      -637.22829946 eV

  energy without entropy =     -637.22829946  energy(sigma->0) =     -637.22829946


--------------------------------------------------------------------------------------------------------




--------------------------------------- Iteration      1(  15)  ---------------------------------------


    POTLOK:  cpu time      1.5974: real time      1.5981
    SETDIJ:  cpu time      0.0724: real time      0.0724
    TRIAL :  cpu time      0.2986: real time      0.2987
    CORREC:  cpu time      1.8630: real time      1.8636
    EDDIAG:  cpu time      0.1421: real time      0.1421
    CHARGE:  cpu time      0.0906: real time      0.0906
    --------------------------------------------
      LOOP:  cpu time      4.0769: real time      4.0956

 eigenvalue-minimisations  :     0
 total energy-change (2. order) :-0.3754394E-08  (-0.3612989E-08)
 number of electron     359.9999999 magnetization 
 augmentation part       -1.3657106 magnetization 

 Free energy of the ion-electron system (eV)
  ---------------------------------------------------
  alpha Z        PSCENC =       350.24993335
  Ewald energy   TEWEN  =     -7334.47851704
  -Hartree energ DENC   =     -7446.00166215
  -exchange      EXHF   =         0.00000000
  -V(xc)+E(xc)   XCENC  =       922.60771364
  PAW double counting   =    115206.33710771  -114973.32648726
  entropy T*S    EENTRO =        -0.00000000
  eigenvalues    EBANDS =     -2942.90986230
  atomic energy  EATOM  =     15580.29347458
  ---------------------------------------------------
  free energy    TOTEN  =      -637.22829947 eV

  energy without entropy =     -637.22829947  energy(sigma->0) =     -637.22829947


--------------------------------------------------------------------------------------------------------


  average scaling for gradient   0.9613


 average (electrostatic) potential at core
  the test charge radii are     0.5770  0.4325  0.5902
  (the norm of the test charge is              1.0000)
       1 -83.9889       2 -83.9904       3 -83.9904       4 -83.9895       5 -83.9890
       6 -83.9904       7 -83.9917       8 -83.9895       9 -83.9889      10 -83.9904
      11 -83.9904      12 -83.9895      13 -83.9902      14 -83.9901      15 -83.9889
      16 -83.9914      17 -83.9902      18 -83.9901      19 -83.9889      20 -83.9914
      21 -83.9901      22 -83.9901      23 -83.9886      24 -83.9917      25 -83.9909
      26 -83.9896      27 -83.9883      28 -83.9904      29 -83.9910      30 -83.9896
      31 -83.9896      32 -83.9904      33 -83.9911      34 -83.9896      35 -83.9896
      36 -83.9904      37 -42.1996      38 -42.2010      39 -42.2006      40 -42.2001
      41 -42.1996      42 -42.2010      43 -42.2038      44 -42.2001      45 -42.1994
      46 -42.2010      47 -42.2005      48 -42.2001      49 -42.2005      50 -42.2004
      51 -42.1995      52 -42.2013      53 -42.2004      54 -42.2004      55 -42.1995
      56 -42.2013      57 -42.2004      58 -42.2004      59 -42.1985      60 -42.2023
      61 -42.2012      62 -42.1998      63 -42.1970      64 -42.2007      65 -42.2012
      66 -42.1998      67 -42.2002      68 -42.2007      69 -42.2014      70 -42.1998
      71 -42.2003      72 -42.2007      73 -98.9213      74 -98.9226      75 -98.9229
      76 -98.9217      77 -98.9213      78 -98.9226      79 -98.9230      80 -98.9217
      81 -98.9209      82 -98.9226      83 -98.9226      84 -98.9217      85 -98.9224
      86 -98.9223      87 -98.9211      88 -98.9235      89 -98.9223      90 -98.9223
      91 -98.9208      92 -98.9238      93 -98.9224      94 -98.9223      95 -98.9208
      96 -98.9238      97 -98.9230      98 -98.9218      99 -98.9215     100 -98.9226
     101 -98.9235     102 -98.9217     103 -98.9218     104 -98.9226     105 -98.9231
     106 -98.9218     107 -98.9214     108 -98.9226



 E-fermi :  -0.8483     XC(G=0):  -8.5653     alpha+bet : -7.0753

 Fermi energy:        -0.8482955127

 k-point     1 :       0.0000    0.0000    0.0000
  band No.  band energies     occupation 
      1     -20.2554      2.00000
      2     -20.2070      2.00000
      3     -20.2068      2.00000
      4     -20.1964      2.00000
      5     -20.1963      2.00000
      6     -20.1640      2.00000
      7     -20.1639      2.00000
      8     -20.1518      2.00000
      9     -20.1515      2.00000
     10     -20.1267      2.00000
     11     -20.1265      2.00000
     12     -20.0978      2.00000
     13     -17.1943      2.00000
     14     -17.1942      2.00000
     15     -17.1941      2.00000
     16     -17.1940      2.00000
     17     -17.1575      2.00000
     18     -17.1575      2.00000
     19     -17.1573      2.00000
     20     -17.1572      2.00000
     21     -17.1368      2.00000
     22     -17.1368      2.00000
     23     -17.1368      2.00000
     24     -17.1367      2.00000
     25     -17.1167      2.00000
     26     -17.1166      2.00000
     27     -17.1152      2.00000
     28     -17.1152      2.00000
     29     -17.0855      2.00000
     30     -17.0854      2.00000
     31     -17.0853      2.00000
     32     -17.0853      2.00000
     33     -17.0685      2.00000
     34     -17.0685      2.00000
     35     -17.0684      2.00000
     36     -17.0683      2.00000
     37     -11.7328      2.00000
     38     -11.7327      2.00000
     39     -11.7079      2.00000
     40     -11.7079      2.00000
     41     -11.7078      2.00000
     42     -11.7077      2.00000
     43     -11.6822      2.00000
     44     -11.6822      2.00000
[...]
   -.149E+03 -.582E-02 -.180E+00   0.155E+03 0.608E-02 0.156E+00   -.581E+01 -.731E-03 0.909E-02
   -.149E+03 -.563E-02 0.333E-01   0.155E+03 0.608E-02 -.334E-01   -.581E+01 -.654E-03 0.125E-03
   0.149E+03 -.599E-02 0.138E+00   -.155E+03 0.644E-02 -.138E+00   0.581E+01 -.624E-03 -.883E-03
   0.149E+03 -.597E-02 0.137E+00   -.155E+03 0.643E-02 -.137E+00   0.581E+01 -.625E-03 -.870E-03
   0.746E+02 -.129E+03 -.103E-01   -.774E+02 0.134E+03 0.104E-01   0.290E+01 -.503E+01 -.522E-04
   0.746E+02 -.129E+03 0.215E-01   -.774E+02 0.134E+03 -.214E-01   0.290E+01 -.503E+01 0.108E-05
   -.745E+02 0.129E+03 -.532E-01   0.774E+02 -.134E+03 0.526E-01   -.291E+01 0.504E+01 -.130E-04
   -.746E+02 0.129E+03 0.311E-01   0.774E+02 -.134E+03 -.310E-01   -.290E+01 0.503E+01 -.115E-04
   0.746E+02 0.129E+03 -.104E-01   -.774E+02 -.134E+03 0.102E-01   0.291E+01 0.503E+01 0.948E-04
   0.746E+02 0.129E+03 0.216E-01   -.774E+02 -.134E+03 -.216E-01   0.290E+01 0.503E+01 0.906E-05
   -.746E+02 -.129E+03 -.365E-01   0.774E+02 0.134E+03 0.367E-01   -.290E+01 -.503E+01 -.293E-03
   -.746E+02 -.129E+03 0.270E-01   0.774E+02 0.134E+03 -.269E-01   -.290E+01 -.503E+01 -.304E-07
   -.149E+03 0.402E-01 -.361E-02   0.155E+03 -.398E-01 0.372E-02   -.581E+01 0.180E-03 -.867E-04
   -.149E+03 -.276E-02 0.272E-01   0.155E+03 0.220E-02 -.271E-01   -.581E+01 0.668E-03 0.122E-04
   0.149E+03 0.431E-02 -.324E-01   -.155E+03 -.604E-02 0.324E-01   0.581E+01 0.149E-02 -.817E-04
   0.149E+03 0.564E-02 0.254E-01   -.155E+03 -.606E-02 -.253E-01   0.581E+01 0.648E-03 -.919E-06
   0.267E+02 -.462E+02 -.278E-02   -.299E+02 0.518E+02 0.275E-02   0.326E+01 -.565E+01 0.164E-04
   0.267E+02 -.462E+02 0.544E-02   -.299E+02 0.518E+02 -.537E-02   0.326E+01 -.565E+01 -.400E-04
   -.266E+02 0.462E+02 -.964E-02   0.299E+02 -.518E+02 0.954E-02   -.326E+01 0.565E+01 0.534E-04
   -.267E+02 0.462E+02 0.687E-02   0.299E+02 -.518E+02 -.680E-02   -.326E+01 0.565E+01 -.425E-04
   0.267E+02 0.462E+02 -.105E-02   -.299E+02 -.518E+02 0.102E-02   0.326E+01 0.565E+01 0.729E-05
   0.267E+02 0.462E+02 0.679E-02   -.299E+02 -.518E+02 -.671E-02   0.326E+01 0.565E+01 -.437E-04
   -.267E+02 -.462E+02 -.167E-01   0.300E+02 0.518E+02 0.167E-01   -.326E+01 -.565E+01 -.497E-06
   -.266E+02 -.462E+02 0.916E-02   0.299E+02 0.518E+02 -.906E-02   -.326E+01 -.565E+01 -.552E-04
   -.533E+02 0.164E-01 0.182E-02   0.598E+02 -.161E-01 -.181E-02   -.653E+01 -.122E-03 -.850E-05
   -.533E+02 -.352E-02 0.814E-02   0.598E+02 0.345E-02 -.806E-02   -.653E+01 0.283E-04 -.474E-04
   0.533E+02 -.594E-03 -.881E-02   -.598E+02 0.998E-03 0.866E-02   0.653E+01 -.801E-04 0.441E-04
   0.533E+02 0.102E-03 0.653E-02   -.598E+02 -.104E-03 -.646E-02   0.653E+01 -.179E-05 -.449E-04
   0.267E+02 -.462E+02 -.782E-01   -.299E+02 0.518E+02 0.812E-01   0.326E+01 -.565E+01 0.709E-03
   0.267E+02 -.462E+02 0.916E-02   -.299E+02 0.518E+02 -.912E-02   0.326E+01 -.565E+01 0.682E-05
   -.267E+02 0.462E+02 0.548E-02   0.299E+02 -.518E+02 -.558E-02   -.326E+01 0.565E+01 0.946E-04
   -.266E+02 0.462E+02 0.551E-02   0.299E+02 -.518E+02 -.561E-02   -.326E+01 0.565E+01 0.942E-04
   0.266E+02 0.462E+02 -.782E-01   -.299E+02 -.518E+02 0.812E-01   0.326E+01 0.565E+01 0.710E-03
   0.266E+02 0.462E+02 0.917E-02   -.299E+02 -.518E+02 -.913E-02   0.326E+01 0.565E+01 0.595E-05
   -.267E+02 -.462E+02 0.547E-02   0.299E+02 0.518E+02 -.556E-02   -.326E+01 -.565E+01 0.949E-04
   -.266E+02 -.462E+02 0.549E-02   0.299E+02 0.518E+02 -.559E-02   -.326E+01 -.565E+01 0.938E-04
   -.533E+02 -.210E-02 -.218E-01   0.598E+02 0.238E-02 0.167E-01   -.653E+01 -.344E-03 -.155E-02
   -.533E+02 -.212E-02 0.751E-02   0.598E+02 0.238E-02 -.748E-02   -.653E+01 -.299E-03 0.126E-04
   0.533E+02 -.218E-02 0.279E-01   -.598E+02 0.244E-02 -.275E-01   0.653E+01 -.309E-03 -.199E-03
   0.533E+02 -.217E-02 0.277E-01   -.598E+02 0.243E-02 -.273E-01   0.653E+01 -.309E-03 -.196E-03
   0.266E+02 -.462E+02 -.998E-03   -.299E+02 0.518E+02 0.102E-02   0.326E+01 -.565E+01 -.564E-04
   0.266E+02 -.462E+02 0.676E-02   -.299E+02 0.518E+02 -.663E-02   0.326E+01 -.565E+01 -.105E-03
   -.266E+02 0.461E+02 -.172E-01   0.299E+02 -.518E+02 0.172E-01   -.327E+01 0.565E+01 -.523E-04
   -.267E+02 0.462E+02 0.912E-02   0.299E+02 -.518E+02 -.897E-02   -.326E+01 0.565E+01 -.121E-03
   0.267E+02 0.462E+02 -.271E-02   -.299E+02 -.518E+02 0.274E-02   0.326E+01 0.565E+01 -.444E-04
   0.267E+02 0.462E+02 0.544E-02   -.299E+02 -.518E+02 -.532E-02   0.326E+01 0.565E+01 -.100E-03
   -.267E+02 -.462E+02 -.975E-02   0.299E+02 0.518E+02 0.969E-02   -.326E+01 -.565E+01 -.809E-05
   -.266E+02 -.462E+02 0.683E-02   0.299E+02 0.518E+02 -.671E-02   -.326E+01 -.565E+01 -.107E-03
   -.533E+02 0.184E-01 0.190E-02   0.598E+02 -.185E-01 -.184E-02   -.653E+01 0.183E-03 -.730E-04
   -.533E+02 -.142E-02 0.813E-02   0.598E+02 0.108E-02 -.800E-02   -.653E+01 0.332E-03 -.110E-03
   0.533E+02 0.155E-02 -.888E-02   -.598E+02 -.142E-02 0.877E-02   0.653E+01 0.220E-03 -.133E-04
   0.533E+02 0.223E-02 0.652E-02   -.598E+02 -.251E-02 -.640E-02   0.653E+01 0.299E-03 -.106E-03
   0.196E+03 -.106E-03 -.151E-01   -.233E+03 0.118E-03 0.148E-01   0.375E+02 -.147E-03 0.435E-03
   0.196E+03 -.106E-03 0.243E-01   -.233E+03 0.119E-03 -.241E-01   0.375E+02 0.268E-05 -.179E-03
   -.196E+03 -.478E-01 -.611E-01   0.233E+03 0.463E-01 0.603E-01   -.375E+02 0.234E-02 0.799E-03
   -.196E+03 0.445E-02 0.376E-01   0.233E+03 -.447E-02 -.374E-01   -.375E+02 -.133E-04 -.277E-03
   -.980E+02 0.170E+03 -.138E-01   0.116E+03 -.202E+03 0.136E-01   -.188E+02 0.325E+02 0.337E-03
   -.980E+02 0.170E+03 0.273E-01   0.117E+03 -.202E+03 -.272E-01   -.188E+02 0.325E+02 -.159E-03
   0.980E+02 -.170E+03 -.458E-01   -.116E+03 0.202E+03 0.456E-01   0.188E+02 -.325E+02 0.310E-03
   0.980E+02 -.170E+03 0.333E-01   -.117E+03 0.202E+03 -.331E-01   0.188E+02 -.325E+02 -.280E-03
   -.980E+02 -.170E+03 0.233E-02   0.116E+03 0.202E+03 -.204E-02   -.188E+02 -.325E+02 -.691E-03
   -.980E+02 -.170E+03 0.375E-01   0.117E+03 0.202E+03 -.373E-01   -.188E+02 -.325E+02 -.330E-03
   0.980E+02 0.170E+03 -.454E-01   -.117E+03 -.202E+03 0.455E-01   0.188E+02 0.325E+02 0.167E-04
   0.980E+02 0.170E+03 0.334E-01   -.117E+03 -.202E+03 -.332E-01   0.188E+02 0.325E+02 -.261E-03
   0.196E+03 0.606E-01 0.151E+01   -.233E+03 -.628E-01 -.184E+01   0.375E+02 0.152E-02 0.408E+00
   0.196E+03 0.147E-01 0.530E-01   -.233E+03 -.172E-01 -.526E-01   0.375E+02 0.235E-02 -.593E-03
   -.196E+03 0.149E-01 0.430E-01   0.233E+03 -.174E-01 -.432E-01   -.375E+02 0.239E-02 0.395E-03
   -.196E+03 0.149E-01 0.430E-01   0.233E+03 -.174E-01 -.432E-01   -.375E+02 0.239E-02 0.392E-03
   -.980E+02 0.170E+03 -.225E+00   0.117E+03 -.202E+03 0.272E+00   -.188E+02 0.325E+02 -.647E-02
   -.980E+02 0.170E+03 0.440E-01   0.117E+03 -.202E+03 -.438E-01   -.188E+02 0.325E+02 -.407E-03
   0.980E+02 -.170E+03 0.116E+00   -.116E+03 0.202E+03 -.115E+00   0.188E+02 -.325E+02 -.238E-02
   0.981E+02 -.170E+03 0.116E+00   -.117E+03 0.202E+03 -.114E+00   0.188E+02 -.325E+02 -.229E-02
   -.980E+02 -.170E+03 -.226E+00   0.116E+03 0.202E+03 0.272E+00   -.188E+02 -.325E+02 -.647E-02
   -.980E+02 -.170E+03 0.440E-01   0.116E+03 0.202E+03 -.437E-01   -.188E+02 -.325E+02 -.419E-03
   0.980E+02 0.170E+03 0.116E+00   -.116E+03 -.202E+03 -.115E+00   0.188E+02 0.325E+02 -.231E-02
   0.981E+02 0.170E+03 0.116E+00   -.117E+03 -.202E+03 -.114E+00   0.188E+02 0.325E+02 -.233E-02
   0.196E+03 -.150E-01 -.149E-01   -.233E+03 0.176E-01 0.147E-01   0.375E+02 -.252E-02 0.408E-03
   0.196E+03 -.150E-01 0.242E-01   -.233E+03 0.176E-01 -.239E-01   0.375E+02 -.238E-02 -.197E-03
   -.196E+03 -.624E-01 -.618E-01   0.233E+03 0.634E-01 0.611E-01   -.375E+02 -.455E-04 0.757E-03
   -.196E+03 -.104E-01 0.375E-01   0.233E+03 0.129E-01 -.372E-01   -.375E+02 -.239E-02 -.323E-03
   -.981E+02 0.170E+03 0.278E-02   0.117E+03 -.202E+03 -.245E-02   -.188E+02 0.325E+02 -.709E-03
   -.980E+02 0.170E+03 0.376E-01   0.116E+03 -.202E+03 -.373E-01   -.188E+02 0.325E+02 -.337E-03
   0.980E+02 -.170E+03 -.460E-01   -.117E+03 0.202E+03 0.461E-01   0.188E+02 -.325E+02 -.347E-04
   0.980E+02 -.170E+03 0.332E-01   -.117E+03 0.202E+03 -.329E-01   0.188E+02 -.325E+02 -.319E-03
   -.981E+02 -.170E+03 -.137E-01   0.117E+03 0.202E+03 0.135E-01   -.188E+02 -.325E+02 0.283E-03
   -.980E+02 -.170E+03 0.271E-01   0.117E+03 0.202E+03 -.269E-01   -.188E+02 -.325E+02 -.202E-03
   0.980E+02 0.170E+03 -.462E-01   -.117E+03 -.202E+03 0.460E-01   0.188E+02 0.325E+02 0.277E-03
   0.980E+02 0.170E+03 0.333E-01   -.116E+03 -.202E+03 -.330E-01   0.188E+02 0.325E+02 -.307E-03
 -----------------------------------------------------------------------------------------------
   0.597E-03 -.242E-01 -.244E+00   -.213E-12 0.171E-12 -.119E-13   -.782E-03 0.241E-01 0.244E+00


 POSITION                                       TOTAL-FORCE (eV/Angst)
 -----------------------------------------------------------------------------------
     -0.65476      1.13409      1.76809        -0.006377      0.011821     -0.000094
     -0.65476      1.13409      8.84043        -0.006927      0.011817      0.000085
      5.49218      7.24456      5.30426         0.007105     -0.012048     -0.000026
      5.49218      7.24456     12.37661         0.006882     -0.011856      0.000067
      4.18265      7.24456      1.76809        -0.006899     -0.011909     -0.000044
      4.18265      7.24456      8.84043        -0.006803     -0.011762      0.000081
      0.65477      1.13409      5.30426         0.007023      0.009836     -0.000578
      0.65477      1.13409     12.37661         0.006833      0.011815      0.000064
      1.30953      0.00000      1.76809         0.013834      0.000444      0.000020
      1.30953      0.00000      8.84043         0.013678     -0.000067      0.000077
      3.52788      8.37865      5.30426        -0.013645     -0.000465     -0.000052
      3.52788      8.37865     12.37661        -0.013720      0.000024      0.000076
      4.18259      3.92691      4.12558        -0.008248      0.012832     -0.069916
      4.18259      3.92691     11.19792        -0.007791      0.013879      0.000085
      5.49210      1.65877      0.58940         0.007543     -0.013568      0.000035
      5.49210      1.65877      7.66175         0.008753     -0.013694     -0.000010
      4.18273      1.65877      4.12558        -0.008627     -0.012969     -0.069904
      4.18273      1.65877     11.19792        -0.008068     -0.013622      0.000086
      5.49224      3.92691      0.58940         0.007158      0.013725      0.000023
      5.49224      3.92691      7.66175         0.008369      0.013848     -0.000001
      6.14693      2.79297      4.12558         0.015950     -0.000455     -0.015252
      6.14693      2.79297     11.19792         0.015900     -0.000197      0.000095
      3.52790      2.79297      0.58940        -0.016109     -0.000155     -0.000161
      3.52790      2.79297      7.66175        -0.015692     -0.000155     -0.000191
     -0.65468      6.71988      6.48294        -0.008079      0.013514     -0.000042
     -0.65468      6.71988     13.55529        -0.008159      0.013656      0.000078
      0.65483      4.45174      2.94677         0.007560     -0.015777     -0.000575
      0.65483      4.45174     10.01911         0.007768     -0.013799      0.000070
     -0.65483      4.45174      6.48294        -0.008250     -0.013804     -0.000086
     -0.65483      4.45174     13.55529        -0.007678     -0.013820      0.000075
      0.65468      6.71988      2.94677         0.007815      0.013424     -0.000033
      0.65468      6.71988     10.01911         0.008063      0.013596      0.000070
      1.30951      5.58568      6.48294         0.015786      0.000607      0.000024
      1.30951      5.58568     13.55529         0.015931      0.000094      0.000075
     -1.30951      5.58568      2.94677        -0.015946     -0.000278     -0.000072
     -1.30951      5.58568     10.01911        -0.015884      0.000213      0.000068
      8.47768      2.07353      1.76809         0.007678     -0.013281     -0.000016
      8.47768      2.07353      8.84043         0.007714     -0.013316      0.000029
     -3.64026      6.30512      5.30426        -0.007704      0.013241     -0.000044
     -3.64026      6.30512     12.37661        -0.007692      0.013320      0.000028
      3.64026      6.30512      1.76809         0.007691      0.013257     -0.000020
      3.64026      6.30512      8.84043         0.007674      0.013341      0.000034
      1.19716      2.07353      5.30426        -0.008096     -0.012740     -0.000019
      1.19716      2.07353     12.37661        -0.007682     -0.013292      0.000042
     -2.44311      8.37865      1.76809        -0.015380      0.000115     -0.000001
     -2.44311      8.37865      8.84043        -0.015409     -0.000037      0.000037
      7.28052      0.00000      5.30426         0.015286      0.000325     -0.000103
      7.28052      0.00000     12.37661         0.015404     -0.000003      0.000025
      3.64013      4.86635      4.12557         0.008046     -0.014088      0.003769
      3.64013      4.86635     11.19792         0.008228     -0.014158      0.000041
      6.03445      0.71927      0.58940        -0.008110      0.014170     -0.000002
      6.03445      0.71927      7.66174        -0.008201      0.014225     -0.000007
      3.64038      0.71927      4.12557         0.008278      0.014298      0.003773
      3.64038      0.71927     11.19791         0.008138      0.014181      0.000040
      6.03470      4.86636      0.58940        -0.008157     -0.014125     -0.000003
      6.03470      4.86636      7.66174        -0.008245     -0.014179     -0.000005
      7.23174      2.79303      4.12557        -0.016390     -0.000067     -0.006712
      7.23174      2.79303     11.19791        -0.016375     -0.000039      0.000036
      2.44309      2.79303      0.58940         0.016564     -0.000051      0.000167
      2.44309      2.79303      7.66174         0.016195     -0.000051      0.000163
     -1.19703      7.65938      6.48295         0.008158     -0.014241     -0.000032
     -1.19703      7.65938     13.55530         0.008173     -0.014158      0.000021
      1.19729      3.51230      2.94678        -0.007778      0.014708     -0.000047
      1.19729      3.51230     10.01912        -0.008207      0.014161      0.000025
     -1.19729      3.51230      6.48295         0.008203      0.014186     -0.000024
     -1.19729      3.51230     13.55530         0.008172      0.014148      0.000015
      1.19704      7.65939      2.94678        -0.008134     -0.014249     -0.000066
      1.19704      7.65939     10.01912        -0.008143     -0.014169      0.000012
      2.39432      5.58562      6.48295        -0.016377      0.000144     -0.000015
      2.39432      5.58562     13.55530        -0.016356     -0.000006      0.000022
     -2.39432      5.58562      2.94678         0.016505      0.000352     -0.000123
     -2.39432      5.58562     10.01912         0.016383      0.000022      0.000012
      3.45834      8.37865      1.76809        -0.000531     -0.000129      0.000175
      3.45834      8.37865      8.84043        -0.000259      0.000017      0.000009
      1.37907      0.00000      5.30426         0.000183      0.000797      0.000048
      1.37907      0.00000     12.37661         0.000272     -0.000038     -0.000061
     -4.14788      7.18434      1.76809        -0.000021     -0.000497      0.000116
     -4.14788      7.18434      8.84043         0.000142     -0.000280      0.000007
     -0.68954      1.19431      5.30426         0.000524      0.001293      0.000065
     -0.68954      1.19431     12.37661        -0.000177      0.000263     -0.000053
      0.68954      1.19431      1.76809        -0.000431      0.000163     -0.000401
      0.68954      1.19431      8.84043         0.000189      0.000273     -0.000086
      4.14788      7.18434      5.30426        -0.000166      0.000012      0.000068
      4.14788      7.18434     12.37661        -0.000154     -0.000270     -0.000051
      3.45833      2.79280      4.11558         0.001741     -0.000715      0.076263
      3.45833      2.79280     11.19792         0.000414     -0.000160     -0.000192
      6.21650      2.79280      0.58941         0.000011     -0.000169      0.000230
      6.21650      2.79280      7.66175        -0.000867     -0.000170      0.000194
      5.52703      1.59860      4.12558        -0.000236      0.000846      0.040420
      5.52703      1.59860     11.19792         0.000003      0.000482     -0.000124
      4.14794      3.98725      0.58941         0.000708     -0.000370     -0.000548
      4.14794      3.98725      7.66175         0.000139     -0.000135     -0.000562
      5.52689      3.98725      4.12558        -0.000569     -0.000300      0.040421
      5.52689      3.98725     11.19792        -0.000375     -0.000257     -0.000122
      4.14780      1.59860      0.58941         0.000354      0.000577     -0.000528
      4.14780      1.59860      7.66175        -0.000214      0.000334     -0.000585
     -1.37908      5.58585      6.48294         0.000644      0.000085      0.000208
     -1.37908      5.58585     13.55529         0.000378      0.000219      0.000034
      1.37908      5.58585      2.94677        -0.000284      0.001003      0.000053
      1.37908      5.58585     10.01911        -0.000399      0.000161     -0.000047
      0.68947      4.39141      6.48294         0.000164      0.000147     -0.000370
      0.68947      4.39141     13.55529        -0.000454      0.000273     -0.000068
     -0.68961      6.78005      2.94677         0.000053     -0.000193      0.000073
     -0.68961      6.78005     10.01911         0.000033     -0.000477     -0.000038
      0.68961      6.78005      6.48294         0.000095     -0.000616      0.000136
      0.68961      6.78005     13.55529        -0.000050     -0.000433      0.000028
     -0.68947      4.39141      2.94677        -0.000342      0.001326      0.000059
     -0.68947      4.39141     10.01911         0.000380      0.000250     -0.000038
 -----------------------------------------------------------------------------------
    total drift:                               -0.000185     -0.000108      0.000092


--------------------------------------------------------------------------------------------------------



  FREE ENERGIE OF THE ION-ELECTRON SYSTEM (eV)
  ---------------------------------------------------
  free  energy   TOTEN  =      -637.22829947 eV

  energy  without entropy=     -637.22829947  energy(sigma->0) =     -637.22829947



--------------------------------------------------------------------------------------------------------


    POTLOK:  cpu time      1.6660: real time      1.6666


--------------------------------------------------------------------------------------------------------


 writing wavefunctions
     LOOP+:  cpu time     98.1181: real time     98.6445
    4ORBIT:  cpu time      0.0002: real time      0.0002

 total amount of memory used by VASP MPI-rank0    79609. kBytes
=======================================================================

   base      :      30000. kBytes
   nonl-proj :      19906. kBytes
   fftplans  :       9758. kBytes
   grid      :      18899. kBytes
   one-center:         41. kBytes
   wavefun   :       1005. kBytes

  
  
 General timing and accounting informations for this job:
 ========================================================
  
                  Total CPU time used (sec):      165.167
                            User time (sec):      161.369
                          System time (sec):        3.798
                         Elapsed time (sec):      179.126
  
                   Maximum memory used (kb):      341060.
                   Average memory used (kb):          N/A
  
                          Minor page faults:        97153
                          Major page faults:         1168
                 Voluntary context switches:        10675
