       N       E                     dE             d eps       ncg     rms          ort
SDA:   1    -0.181767583594E+04   -0.18177E+04    0.00000E+00   768   0.209E-01 0.000E+00
CGA:   2    -0.181768344993E+04   -0.76140E-02   -0.76185E-02   768   0.724E-02-0.273E-04
CGA:   3    -0.181768546002E+04   -0.20101E-02   -0.20103E-02   768   0.845E-03-0.383E-05
CGA:   4    -0.181768570943E+04   -0.24941E-03   -0.24935E-03   768   0.143E-03 0.805E-06
CGA:   5    -0.181768576110E+04   -0.51670E-04   -0.51657E-04   768   0.395E-04 0.856E-07
CGA:   6    -0.181768577873E+04   -0.17637E-04   -0.17713E-04   768   0.135E-04-0.336E-06
CGA:   7    -0.181768578427E+04   -0.55326E-05   -0.54855E-05   768   0.280E-05 0.271E-06
CGA:   8    -0.181768578534E+04   -0.10756E-05   -0.10656E-05   768   0.501E-06 0.745E-07
CGA:   9    -0.181768578554E+04   -0.19302E-06   -0.19008E-06   768   0.115E-06 0.203E-07
CGA:  10    -0.181768578558E+04   -0.47672E-07   -0.47094E-07   768   0.386E-07 0.315E-08
CGA:  11    -0.181768578560E+04   -0.19616E-07   -0.20053E-07   768   0.165E-07-0.420E-08
CGA:  12    -0.181768578561E+04   -0.68103E-08   -0.73884E-08   768   0.659E-08-0.321E-08
   1 F= -.18176858E+04 E0= -.18176858E+04  d E =-.665949E-68
