 vasp.6.4.1 05Apr23 (build Jun  6 2023 14:46:38) gamma-only                      
 executed on        HPECrayEX_GCC date 2024.07.22  11:01:11
 running  512 mpi-ranks, with    1 threads/rank, on    4 nodes
 distrk:  each k-point on  512 cores,    1 groups
 distr:  one band on NCORE=   1 cores,  512 groups


--------------------------------------------------------------------------------------------------------


 INCAR:
   ISMEAR = 0
   SIGMA = 0.01
   PREC = Accurate
   EDIFF = 1E-8
   ENCUT = 1000
   ISIF = 2
   IBRION = 6
   POTIM = 0.008
   NFREE = 2
   EDIFF = 10-7
   GGA = ML
   LUSE_VDW = .TRUE.
   ZAB_VDW = -1.8867
   AGGAC = 0.0000
   LASPH = .TRUE.
   SYMPREC = 1E-7
   ALGO = Conjugate
   LWAVE = .FALSE.
   LCHARG = .FALSE.

 POTCAR:    PAW_PBE C_h 06Feb2004                 
 POTCAR:    PAW_PBE H_h 06Feb2004                 
 POTCAR:    PAW_PBE O_h 06Feb2004                 
 -----------------------------------------------------------------------------
|                                                                             |
|               ----> ADVICE to this user running VASP <----                  |
|                                                                             |
|     You have switched on vdW-DFT.                                           |
|     This routine was written and supplied by Jiri Klimes. We recommend      |
|     that you carefully read and cite the following publications:            |
|       J. Klimes, D.R. Bowler, A. Michelides                                 |
|          J. Phys.: Cond Matt. 22 022201 (2010)                              |
|       J. Klimes, D.R. Bowler, A. Michelides                                 |
|          Phys. Rev. B. 83, 195131 (2011)                                    |
|     and references therein.                                                 |
|                                                                             |
 -----------------------------------------------------------------------------

 POTCAR:    PAW_PBE C_h 06Feb2004                 
   VRHFIN =C: s2p2                                                                                  
   LEXCH  = PE                                                                                      
   EATOM  =   147.1560 eV,   10.8157 Ry                                                             
                                                                                                    
   TITEL  = PAW_PBE C_h 06Feb2004                                                                   
   LULTRA =        F    use ultrasoft PP ?                                                          
   IUNSCR =        1    unscreen: 0-lin 1-nonlin 2-no                                               
   RPACOR =    0.800    partial core radius                                                         
   POMASS =   12.011; ZVAL   =    4.000    mass and valenz                                          
   RCORE  =    1.100    outmost cutoff radius                                                       
   RWIGS  =    1.630; RWIGS  =    0.863    wigner-seitz radius (au A)                               
   ENMAX  =  700.000; ENMIN  =  500.000 eV                                                          
   ICORE  =        2    local potential                                                             
   LCOR   =        T    correct aug charges                                                         
   LPAW   =        T    paw PP                                                                      
   EAUG   =  946.768                                                                                
   DEXC   =    0.000                                                                                
   RMAX   =    1.128    core radius for proj-oper                                                   
   RAUG   =    1.300    factor for augmentation sphere                                              
   RDEP   =    1.162    radius for radial grids                                                     
   RDEPT  =    1.088    core radius for aug-charge                                                  
                                                                                                    
   Atomic configuration                                                                             
    4 entries                                                                                       
     n  l   j            E        occ.                                                              
     1  0  0.50      -273.3789   2.0000                                                             
     2  0  0.50       -13.7508   2.0000                                                             
     2  1  0.50        -5.2854   2.0000                                                             
     3  2  1.50        -5.4423   0.0000                                                             
   Description                                                                                      
     l       E           TYP  RCUT    TYP  RCUT                                                     
     0    -13.7508458     23  1.100                                                                 
     0     -8.2022199     23  1.100                                                                 
     1     -5.2854383     23  1.100                                                                 
     1      1.1560700     23  1.100                                                                 
     2     -5.4423304      7  1.100                                                                 
  local pseudopotential read in
  partial core-charges read in
  partial kinetic energy density read in
  atomic valenz-charges read in
  non local Contribution for L=           0  read in
    real space projection operators read in
  non local Contribution for L=           0  read in
    real space projection operators read in
  non local Contribution for L=           1  read in
    real space projection operators read in
  non local Contribution for L=           1  read in
    real space projection operators read in
    PAW grid and wavefunctions read in

   number of l-projection  operators is LMAX  =           4
   number of lm-projection operators is LMMAX =           8

 POTCAR:    PAW_PBE H_h 06Feb2004                 
   VRHFIN =H: ultrasoft test                                                                        
   LEXCH  = PE                                                                                      
   EATOM  =    12.4884 eV,    0.9179 Ry                                                             
                                                                                                    
   TITEL  = PAW_PBE H_h 06Feb2004                                                                   
   LULTRA =        F    use ultrasoft PP ?                                                          
   IUNSCR =        0    unscreen: 0-lin 1-nonlin 2-no                                               
   RPACOR =    0.000    partial core radius                                                         
   POMASS =    1.000; ZVAL   =    1.000    mass and valenz                                          
   RCORE  =    0.800    outmost cutoff radius                                                       
   RWIGS  =    0.700; RWIGS  =    0.370    wigner-seitz radius (au A)                               
   ENMAX  =  700.000; ENMIN  =  350.000 eV                                                          
   RCLOC  =    0.701    cutoff for local pot                                                        
   LCOR   =        T    correct aug charges                                                         
   LPAW   =        T    paw PP                                                                      
   EAUG   = 1000.000                                                                                
   RMAX   =    0.819    core radius for proj-oper                                                   
   RAUG   =    1.000    factor for augmentation sphere                                              
   RDEP   =    0.817    radius for radial grids                                                     
   RDEPT  =    0.817    core radius for aug-charge                                                  
                                                                                                    
   Atomic configuration                                                                             
    2 entries                                                                                       
     n  l   j            E        occ.                                                              
     1  0  0.50        -6.4927   1.0000                                                             
     2  1  0.50        -3.4015   0.0000                                                             
   Description                                                                                      
     l       E           TYP  RCUT    TYP  RCUT                                                     
     0     -6.4927493     23  0.800                                                                 
     0      6.8029130     23  0.800                                                                 
     1     -6.8029130     23  0.800                                                                 
  local pseudopotential read in
  atomic valenz-charges read in
  non local Contribution for L=           0  read in
    real space projection operators read in
  non local Contribution for L=           0  read in
    real space projection operators read in
  non local Contribution for L=           1  read in
    real space projection operators read in
    PAW grid and wavefunctions read in

   number of l-projection  operators is LMAX  =           3
   number of lm-projection operators is LMMAX =           5

 POTCAR:    PAW_PBE O_h 06Feb2004                 
   VRHFIN =O: s2p4                                                                                  
   LEXCH  = PE                                                                                      
   EATOM  =   432.3788 eV,   31.7789 Ry                                                             
                                                                                                    
   TITEL  = PAW_PBE O_h 06Feb2004                                                                   
   LULTRA =        F    use ultrasoft PP ?                                                          
   IUNSCR =        1    unscreen: 0-lin 1-nonlin 2-no                                               
   RPACOR =    0.800    partial core radius                                                         
   POMASS =   16.000; ZVAL   =    6.000    mass and valenz                                          
   RCORE  =    1.100    outmost cutoff radius                                                       
   RWIGS  =    1.400; RWIGS  =    0.741    wigner-seitz radius (au A)                               
   ENMAX  =  700.000; ENMIN  =  500.000 eV                                                          
   ICORE  =        2    local potential                                                             
   LCOR   =        T    correct aug charges                                                         
   LPAW   =        T    paw PP                                                                      
   EAUG   =  888.804                                                                                
   DEXC   =    0.000                                                                                
   RMAX   =    1.128    core radius for proj-oper                                                   
   RAUG   =    1.300    factor for augmentation sphere                                              
   RDEP   =    1.125    radius for radial grids                                                     
   RDEPT  =    1.088    core radius for aug-charge                                                  
                                                                                                    
   Atomic configuration                                                                             
    4 entries                                                                                       
     n  l   j            E        occ.                                                              
     1  0  0.50      -514.6923   2.0000                                                             
     2  0  0.50       -23.9615   2.0000                                                             
     2  1  0.50        -9.0305   4.0000                                                             
     3  2  1.50        -9.5241   0.0000                                                             
   Description                                                                                      
     l       E           TYP  RCUT    TYP  RCUT                                                     
     0    -23.9615319     23  1.100                                                                 
     0    -25.3221145     23  1.100                                                                 
     1     -9.0304911     23  1.100                                                                 
     1     -5.4802209     23  1.100                                                                 
     2     -9.5240782      7  1.100                                                                 
  local pseudopotential read in
  partial core-charges read in
  partial kinetic energy density read in
  atomic valenz-charges read in
  non local Contribution for L=           0  read in
    real space projection operators read in
  non local Contribution for L=           0  read in
    real space projection operators read in
  non local Contribution for L=           1  read in
    real space projection operators read in
  non local Contribution for L=           1  read in
    real space projection operators read in
    PAW grid and wavefunctions read in

   number of l-projection  operators is LMAX  =           4
   number of lm-projection operators is LMMAX =           8

 -----------------------------------------------------------------------------
|                                                                             |
|               ----> ADVICE to this user running VASP <----                  |
|                                                                             |
|     You enforced a specific xc type in the INCAR file but a different       |
|     type was found in the POTCAR file.                                      |
|     I HOPE YOU KNOW WHAT YOU ARE DOING!                                     |
|                                                                             |
 -----------------------------------------------------------------------------

  PAW_PBE C_h 06Feb2004                 :
 energy of atom  1       EATOM= -147.1560
 kinetic energy error for atom=    0.0031 (will be added to EATOM!!)
  PAW_PBE H_h 06Feb2004                 :
 energy of atom  2       EATOM=  -12.4884
 kinetic energy error for atom=    0.0006 (will be added to EATOM!!)
  PAW_PBE O_h 06Feb2004                 :
 energy of atom  3       EATOM= -432.3788
 kinetic energy error for atom=    0.0171 (will be added to EATOM!!)


 POSCAR:  C  H  O
  positions in direct lattice
  velocities in cartesian coordinates
 exchange correlation table for  LEXCH =       44
   RHO(1)=    0.500       N(1)  =     2000
   RHO(2)=  100.500       N(2)  =     4000

 VTST: version 4.1, (05/19/21)

 CHAIN: initializing optimizer
 
 OPT: Using VASP Dynamics algorithm
 CHAIN: Read ICHAIN            0

 POSCAR:  C  H  O
  positions in direct lattice
  velocities in cartesian coordinates



--------------------------------------------------------------------------------------------------------


 ion  position               nearest neighbor table
   1  0.295  0.291  0.267-   5 1.21   7 1.35   2 1.56
   2  0.258  0.332  0.322-   6 1.21   8 1.35   1 1.56
   3  0.240  0.220  0.297-   7 0.98
   4  0.313  0.403  0.291-   8 0.98
   5  0.337  0.316  0.231-   1 1.21
   6  0.216  0.308  0.357-   2 1.21
   7  0.274  0.227  0.263-   3 0.98   1 1.35
   8  0.278  0.396  0.325-   4 0.98   2 1.35

  LATTYP: Found a simple cubic cell.
 ALAT       =    20.0000000000
  
  Lattice vectors:
  
 A1 = (  20.0000000000,   0.0000000000,   0.0000000000)
 A2 = (   0.0000000000,  20.0000000000,   0.0000000000)
 A3 = (   0.0000000000,   0.0000000000,  20.0000000000)


Analysis of symmetry for initial positions (statically):
=====================================================================
 Subroutine PRICEL returns:
 Original cell was already a primitive cell.
 

 Routine SETGRP: Setting up the symmetry group for a 
 simple cubic supercell.


 Subroutine GETGRP returns: Found  2 space group operations
 (whereof  1 operations were pure point group operations)
 out of a pool of 48 trial point group operations.


The static configuration has the point symmetry C_1 .
 The point group associated with its full space group is S_2 .


Analysis of symmetry for dynamics (positions and initial velocities):
=====================================================================
 Subroutine PRICEL returns:
 Original cell was already a primitive cell.
 

 Routine SETGRP: Setting up the symmetry group for a 
 simple cubic supercell.


 Subroutine GETGRP returns: Found  2 space group operations
 (whereof  1 operations were pure point group operations)
 out of a pool of 48 trial point group operations.


The dynamic configuration has the point symmetry C_1 .
 The point group associated with its full space group is S_2 .


 Subroutine INISYM returns: Found  2 space group operations
 (whereof  1 operations are pure point group operations),
 and found     1 'primitive' translations


----------------------------------------------------------------------------------------

                                     Primitive cell                                     

  volume of cell :    8000.0000

  direct lattice vectors                    reciprocal lattice vectors
    20.000000000  0.000000000  0.000000000     0.050000000  0.000000000  0.000000000
     0.000000000 20.000000000  0.000000000     0.000000000  0.050000000  0.000000000
     0.000000000  0.000000000 20.000000000     0.000000000  0.000000000  0.050000000

  length of vectors
    20.000000000 20.000000000 20.000000000     0.050000000  0.050000000  0.050000000

  position of ions in fractional coordinates (direct lattice)
     0.294609155  0.291029038  0.266802499
     0.257974720  0.332087337  0.321801001
     0.239905186  0.220051919  0.297389114
     0.312678689  0.403064456  0.291214386
     0.337019887  0.315563795  0.231209458
     0.215563988  0.307552580  0.357394042
     0.274472885  0.226799865  0.263216886
     0.278110990  0.396316510  0.325386614

  ion indices of the primitive-cell ions
   primitive index   ion index
                 1           1
                 2           2
                 3           3
                 4           4
                 5           5
                 6           6
                 7           7
                 8           8

----------------------------------------------------------------------------------------



 KPOINTS: auto                                    

Automatic generation of k-mesh.
 Grid dimensions read from file:
 generate k-points for:    1    1    1

 Generating k-lattice:

  Cartesian coordinates                     Fractional coordinates (reciprocal lattice)
     0.050000000  0.000000000  0.000000000     1.000000000  0.000000000  0.000000000
     0.000000000  0.050000000  0.000000000     0.000000000  1.000000000  0.000000000
     0.000000000  0.000000000  0.050000000     0.000000000  0.000000000  1.000000000

  Length of vectors
     0.050000000  0.050000000  0.050000000

  Shift w.r.t. Gamma in fractional coordinates (k-lattice)
     0.000000000  0.000000000  0.000000000

 
 Subroutine IBZKPT returns following result:
 ===========================================
 
 Found      1 irreducible k-points:
 
 Following reciprocal coordinates:
            Coordinates               Weight
  0.000000  0.000000  0.000000      1.000000
 
 Following cartesian coordinates:
            Coordinates               Weight
  0.000000  0.000000  0.000000      1.000000
 
 
 Subroutine IBZKPT_HF returns following result:
 ==============================================
 
 Found      1 k-points in 1st BZ
 the following      1 k-points will be used (e.g. in the exchange kernel)
 Following reciprocal coordinates:   # in IRBZ
  0.000000  0.000000  0.000000    1.00000000   1 t-inv F


--------------------------------------------------------------------------------------------------------




 Dimension of arrays:
   k-points           NKPTS =      1   k-points in BZ     NKDIM =      1   number of bands    NBANDS=    512
   number of dos      NEDOS =    301   number of ions     NIONS =      8
   non local maximal  LDIM  =      4   non local SUM 2l+1 LMDIM =      8
   total plane-waves  NPLWV = ******
   max r-space proj   IRMAX =      1   max aug-charges    IRDMAX=   8641
   dimension x,y,z NGX =   210 NGY =  210 NGZ =  210
   dimension x,y,z NGXF=   420 NGYF=  420 NGZF=  420
   support grid    NGXF=   420 NGYF=  420 NGZF=  420
   ions per type =               2   2   4
   NGX,Y,Z   is equivalent  to a cutoff of  17.46, 17.46, 17.46 a.u.
   NGXF,Y,Z  is equivalent  to a cutoff of  34.91, 34.91, 34.91 a.u.

 SYSTEM =  unknown system                          
 POSCAR =   C  H  O                                

 Startparameter for this run:
   NWRITE =      2    write-flag & timer
   PREC   = accura    normal or accurate (medium, high low for compatibility)
   ISTART =      0    job   : 0-new  1-cont  2-samecut
   ICHARG =      2    charge: 1-file 2-atom 10-const
   ISPIN  =      1    spin polarized calculation?
   LNONCOLLINEAR =      F non collinear calculations
   LSORBIT =      F    spin-orbit coupling
   INIWAV =      1    electr: 0-lowe 1-rand  2-diag
   LASPH  =      T    aspherical Exc in radial PAW
 Electronic Relaxation 1
   ENCUT  = 1000.0 eV  73.50 Ry    8.57 a.u.  51.57 51.57 51.57*2*pi/ulx,y,z
   ENINI  = 1000.0     initial cutoff
   ENAUG  = 1000.0 eV  augmentation charge cutoff
   NELM   =     60;   NELMIN=  2; NELMDL= -5     # of ELM steps 
   EDIFF  = 0.1E-07   stopping-criterion for ELM
   LREAL  =      F    real-space projection
   NLSPLINE    = F    spline interpolate recip. space projectors
   LCOMPAT=      F    compatible to vasp.4.4
   GGA_COMPAT  = T    GGA compatible to vasp.4.4-vasp.4.6
   LMAXPAW     = -100 max onsite density
   LMAXMIX     =    2 max onsite mixed and CHGCAR
   VOSKOWN=      0    Vosko Wilk Nusair interpolation
   ROPT   =    0.00000   0.00000   0.00000
 Ionic relaxation
   EDIFFG = 0.1E-06   stopping-criterion for IOM
   NSW    =    133    number of steps for IOM
   NBLOCK =      1;   KBLOCK =    133    inner block; outer block 
   IBRION =      6    ionic relax: 0-MD 1-quasi-New 2-CG
   NFREE  =      2    steps in history (QN), initial steepest desc. (CG)
   ISIF   =      2    stress and relaxation
   IWAVPR =     11    prediction:  0-non 1-charg 2-wave 3-comb
   ISYM   =      2    0-nonsym 1-usesym 2-fastsym
   LCORR  =      T    Harris-Foulkes like correction to forces

   POTIM  = 0.0080    time-step for ionic-motion
   TEIN   =    0.0    initial temperature
   TEBEG  =    0.0;   TEEND  =   0.0 temperature during run
   SMASS  =  -3.00    Nose mass-parameter (am)
   estimated Nose-frequenzy (Omega)   =  0.10E-29 period in steps = 0.79E+48 mass=  -0.914E-26a.u.
   SCALEE = 1.0000    scale energy and forces
   NPACO  =    256;   APACO  = 10.0  distance and # of slots for P.C.
   PSTRESS=    0.0 pullay stress

  Mass of Ions in am
   POMASS =  12.01  1.00 16.00
  Ionic Valenz
   ZVAL   =   4.00  1.00  6.00
  Atomic Wigner-Seitz radii
   RWIGS  =  -1.00 -1.00 -1.00
  virtual crystal weights 
   VCA    =   1.00  1.00  1.00
   NELECT =      34.0000    total number of electrons
   NUPDOWN=      -1.0000    fix difference up-down

 DOS related values:
   EMIN   =  10.00;   EMAX   =-10.00  energy-range for DOS
   EFERMI =   0.00;   METHOD = LEGACY      
   ISMEAR =     0;   SIGMA  =   0.01  broadening in eV -4-tet -1-fermi 0-gaus

 Electronic relaxation 2 (details)
   IALGO  =     58    algorithm
   LDIAG  =      T    sub-space diagonalisation (order eigenvalues)
   LSUBROT=      F    optimize rotation matrix (better conditioning)
   TURBO    =      0    0=normal 1=particle mesh
   IRESTART =      0    0=no restart 2=restart with 2 vectors
   NREBOOT  =      0    no. of reboots
   NMIN     =      0    reboot dimension
   EREF     =   0.00    reference energy to select bands
   IMIX   =      4    mixing-type and parameters
     AMIX     =   0.40;   BMIX     =  1.00
     AMIX_MAG =   1.60;   BMIX_MAG =  1.00
     AMIN     =   0.10
     WC   =   100.;   INIMIX=   1;  MIXPRE=   1;  MAXMIX= -45

 Intra band minimization:
   WEIMIN = 0.0010     energy-eigenvalue tresh-hold
   EBREAK =  0.49E-11  absolut break condition
   DEPER  =   0.30     relativ break condition  

   TIME   =   0.40     timestep for ELM

  volume/ion in A,a.u.               =    1000.00      6748.33
  Fermi-wavevector in a.u.,A,eV,Ry     =   0.265178  0.501114  0.956755  0.070319
  Thomas-Fermi vector in A             =   1.098052

 Write flags
   LWAVE        =      F    write WAVECAR
   LDOWNSAMPLE  =      F    k-point downsampling of WAVECAR
   LCHARG       =      F    write CHGCAR
   LVTOT        =      F    write LOCPOT, total local potential
   LVHAR        =      F    write LOCPOT, Hartree potential only
   LELF         =      F    write electronic localiz. function (ELF)
   LORBIT       =      0    0 simple, 1 ext, 2 COOP (PROOUT), +10 PAW based schemes


 Dipole corrections
   LMONO  =      F    monopole corrections only (constant potential shift)
   LDIPOL =      F    correct potential (dipole corrections)
   IDIPOL =      0    1-x, 2-y, 3-z, 4-all directions 
   EPSILON=  1.0000000 bulk dielectric constant

 Exchange correlation treatment:
   GGA     =    ML    GGA type
   LEXCH   =    44    internal setting for exchange type
   LIBXC   =     F    Libxc                    
   VOSKOWN =     0    Vosko Wilk Nusair interpolation
   LHFCALC =     F    Hartree Fock is set to
   LHFONE  =     F    Hartree Fock one center treatment
   AEXX    =    0.0000 exact exchange contribution

 vdW DFT:
   LUSE_VDW   =     T    switch on vdW DFT
   IVDW_NL    =     1    kernel type
   LSPIN_VDW  =     F    use spin-polarized vdW DFT
   Zab_VDW    =******    correlation parameter
   PARAM1     =0.1234
   PARAM2     =1.0000
   PARAM3     =0.0000
   -- rVV10 --
   BPARAM     = 6.3000
   CPARAM     = 0.0093

 Linear response parameters
   LEPSILON=     F    determine dielectric tensor
   LRPA    =     F    only Hartree local field effects (RPA)
   LNABLA  =     F    use nabla operator in PAW spheres
   LVEL    =     F    velocity operator in full k-point grid
   CSHIFT  =0.1000    complex shift for real part using Kramers Kronig
   OMEGAMAX=  -1.0    maximum frequency
   DEG_THRESHOLD= 0.2000000E-02 threshold for treating states as degnerate
   RTIME   =   -0.100 relaxation time in fs
  (WPLASMAI=    0.000 imaginary part of plasma frequency in eV, 0.658/RTIME)
   DFIELD  = 0.0000000 0.0000000 0.0000000 field for delta impulse in time

  Optional k-point grid parameters
   LKPOINTS_OPT  =     F    use optional k-point grid
   KPOINTS_OPT_MODE=     1    mode for optional k-point grid

 Orbital magnetization related:
   ORBITALMAG=     F  switch on orbital magnetization
   LCHIMAG   =     F  perturbation theory with respect to B field
   DQ        =  0.001000  dq finite difference perturbation B field
   LLRAUG    =     F  two centre corrections for induced B field
   LBONE     =     F  B-component reconstruction in AE one-centre
   LVGVCALC  =     T  calculate vGv susceptibility
   LVGVAPPL  =     F  apply vGv susceptibility instead of pGv for G=0

 Random number generation:
   RANDOM_GENERATOR = DEFAULT
   PCG_SEED         = not used


--------------------------------------------------------------------------------------------------------


 finite differences with symmetry
 charge density and potential will be updated during run
 non-spin polarized calculation
 Conjugate gradient for all bands (Freysoldt, et al. PRB 79, 241103 (2009))
 preconditioned conjugated gradient                                        
 perform sub-space diagonalisation
    before iterative eigenvector-optimisation
 modified Broyden-mixing scheme, WC =      100.0
 initial mixing is a Kerker type mixing with AMIX =  0.4000 and BMIX =      1.0000
 Hartree-type preconditioning will be used
 using additional bands          495
 reciprocal scheme for non local part
 use partial core corrections
 no Harris-corrections to forces 
 use gradient corrections 
 use of overlap-Matrix (Vanderbilt PP)
 Gauss-broadening in eV      SIGMA  =   0.01


--------------------------------------------------------------------------------------------------------


  energy-cutoff  :     1000.00
  volume of cell :     8000.00
      direct lattice vectors                 reciprocal lattice vectors
    20.000000000  0.000000000  0.000000000     0.050000000  0.000000000  0.000000000
     0.000000000 20.000000000  0.000000000     0.000000000  0.050000000  0.000000000
     0.000000000  0.000000000 20.000000000     0.000000000  0.000000000  0.050000000

  length of vectors
    20.000000000 20.000000000 20.000000000     0.050000000  0.050000000  0.050000000



 k-points in units of 2pi/SCALE and weight: auto                                    
   0.00000000  0.00000000  0.00000000       1.000

 k-points in reciprocal lattice and weights: auto                                    
   0.00000000  0.00000000  0.00000000       1.000

 position of ions in fractional coordinates (direct lattice) 
   0.29460915  0.29102904  0.26680250
   0.25797472  0.33208734  0.32180100
   0.23990519  0.22005192  0.29738911
   0.31267869  0.40306446  0.29121439
   0.33701989  0.31556379  0.23120946
   0.21556399  0.30755258  0.35739404
   0.27447289  0.22679986  0.26321689
   0.27811099  0.39631651  0.32538661

 position of ions in cartesian coordinates  (Angst):
   5.89218309  5.82058075  5.33604999
   5.15949441  6.64174675  6.43602001
   4.79810373  4.40103838  5.94778227
   6.25357377  8.06128912  5.82428773
   6.74039773  6.31127589  4.62418917
   4.31127977  6.15105161  7.14788083
   5.48945770  4.53599730  5.26433772
   5.56221980  7.92633020  6.50773228



--------------------------------------------------------------------------------------------------------


 use serial FFT for orbitals x direction half grid
 k-point   1 :   0.0000 0.0000 0.0000  plane waves:  287166

 maximum and minimum number of plane-waves per node :    287166   287166

 maximum number of plane-waves:    287166
 maximum index in each direction: 
   IXMAX=   51   IYMAX=   51   IZMAX=   51
   IXMIN=    0   IYMIN=  -51   IZMIN=  -51


 serial   3D FFT for wavefunctions
 parallel 3D FFT for charge:
    minimum data exchange during FFTs selected (reduces bandwidth)


 total amount of memory used by VASP MPI-rank0   561591. kBytes
=======================================================================

   base      :      30000. kBytes
   nonl-proj :      91914. kBytes
   fftplans  :      43393. kBytes
   grid      :     382475. kBytes
   one-center:         12. kBytes
   wavefun   :      13797. kBytes

     INWAV:  cpu time      0.0001: real time      0.0001
 Broyden mixing: mesh for mixing (old mesh)
   NGX =103   NGY =103   NGZ =103
  (NGX  =420   NGY  =420   NGZ  =420)
  gives a total of ****** points

 initial charge density was supplied:
 charge density of overlapping atoms calculated
 number of electron      34.0000000 magnetization 
 keeping initial charge density in first step


--------------------------------------------------------------------------------------------------------


 Maximum index for augmentation-charges            0 (set IRDMAX)


--------------------------------------------------------------------------------------------------------


 First call to EWALD:  gamma=   0.089
 Maximum number of real-space cells 3x 3x 3
 Maximum number of reciprocal cells 3x 3x 3

    FEWALD:  cpu time      0.0030: real time      0.0032


--------------------------------------- Ionic step        1  -------------------------------------------




--------------------------------------- Iteration      1(   1)  ---------------------------------------


vdW kernel read from vdw_kernel.bindat
  0.0000  0.2424  0.5071  0.7962  1.1119  1.4567  1.8333  2.2446  2.6937  3.1842
  3.7199  4.3049  4.9438  5.6415  6.4036  7.2358  8.1446  9.1372 10.2212 11.4050
 12.6979 14.1099 15.6519 17.3360 19.1751 21.1837 23.3773 25.7729 28.3892 31.2465
 34.3669 37.7748 41.4965 45.5611 50.0000

    POTLOK:  cpu time      9.6970: real time      9.8296
    SETDIJ:  cpu time      0.0788: real time      0.0793
    TRIAL :  cpu time     14.7598: real time     14.7677
    CORREC:  cpu time      0.0042: real time      0.0042
    --------------------------------------------
      LOOP:  cpu time     24.5541: real time     24.6953

 eigenvalue-minimisations  :  1024
 total energy-change (2. order) : 0.3746583E+03  (-0.1920667E+04)
 number of electron      34.0000000 magnetization 
 augmentation part       34.0000000 magnetization 

 Free energy of the ion-electron system (eV)
  ---------------------------------------------------
  alpha Z        PSCENC =         0.40154822
  Ewald energy   TEWEN  =      2231.65584745
  -Hartree energ DENC   =     -3847.78863392
  -exchange      EXHF   =         0.00000000
  -V(xc)+E(xc)   XCENC  =       116.89120436
  PAW double counting   =      1624.60763709    -1620.88562787
  entropy T*S    EENTRO =        -0.00417563
  eigenvalues    EBANDS =      -211.82473067
  atomic energy  EATOM  =      2081.60521388
  ---------------------------------------------------
  free energy    TOTEN  =       374.65828293 eV

  energy without entropy =      374.66245856  energy(sigma->0) =      374.66037074


--------------------------------------------------------------------------------------------------------




--------------------------------------- Iteration      1(   2)  ---------------------------------------


    TRIAL :  cpu time     78.5170: real time     78.5563
    CORREC:  cpu time      0.0002: real time      0.0002
    --------------------------------------------
      LOOP:  cpu time     78.5301: real time     78.5853

 eigenvalue-minimisations  :  2048
 total energy-change (2. order) :-0.4208988E+03  (-0.4201346E+03)
 number of electron      34.0000000 magnetization 
 augmentation part       34.0000000 magnetization 

 Free energy of the ion-electron system (eV)
  ---------------------------------------------------
  alpha Z        PSCENC =         0.40154822
  Ewald energy   TEWEN  =      2231.65584745
  -Hartree energ DENC   =     -3847.78863392
  -exchange      EXHF   =         0.00000000
  -V(xc)+E(xc)   XCENC  =       116.89120436
  PAW double counting   =      1624.60763709    -1620.88562787
  entropy T*S    EENTRO =        -0.00000000
  eigenvalues    EBANDS =      -632.72768749
  atomic energy  EATOM  =      2081.60521388
  ---------------------------------------------------
  free energy    TOTEN  =       -46.24049826 eV

  energy without entropy =      -46.24049826  energy(sigma->0) =      -46.24049826


--------------------------------------------------------------------------------------------------------




--------------------------------------- Iteration      1(   3)  ---------------------------------------


    TRIAL :  cpu time     15.9034: real time     15.9106
    CORREC:  cpu time      0.0002: real time      0.0002
    --------------------------------------------
      LOOP:  cpu time     15.9301: real time     15.9428

 eigenvalue-minimisations  :  1024
 total energy-change (2. order) :-0.9822175E+00  (-0.9822175E+00)
 number of electron      34.0000000 magnetization 
 augmentation part       34.0000000 magnetization 

 Free energy of the ion-electron system (eV)
  ---------------------------------------------------
  alpha Z        PSCENC =         0.40154822
  Ewald energy   TEWEN  =      2231.65584745
  -Hartree energ DENC   =     -3847.78863392
  -exchange      EXHF   =         0.00000000
  -V(xc)+E(xc)   XCENC  =       116.89120436
  PAW double counting   =      1624.60763709    -1620.88562787
  entropy T*S    EENTRO =        -0.00000000
  eigenvalues    EBANDS =      -633.70990498
  atomic energy  EATOM  =      2081.60521388
  ---------------------------------------------------
  free energy    TOTEN  =       -47.22271575 eV

  energy without entropy =      -47.22271575  energy(sigma->0) =      -47.22271575


--------------------------------------------------------------------------------------------------------




--------------------------------------- Iteration      1(   4)  ---------------------------------------


    TRIAL :  cpu time     76.3795: real time     76.4170
    CORREC:  cpu time      0.0003: real time      0.0003
    --------------------------------------------
      LOOP:  cpu time     76.4093: real time     76.4470

 eigenvalue-minimisations  :  2048
 total energy-change (2. order) :-0.3153220E-02  (-0.3153218E-02)
 number of electron      34.0000000 magnetization 
 augmentation part       34.0000000 magnetization 

 Free energy of the ion-electron system (eV)
  ---------------------------------------------------
  alpha Z        PSCENC =         0.40154822
  Ewald energy   TEWEN  =      2231.65584745
  -Hartree energ DENC   =     -3847.78863392
  -exchange      EXHF   =         0.00000000
  -V(xc)+E(xc)   XCENC  =       116.89120436
  PAW double counting   =      1624.60763709    -1620.88562787
  entropy T*S    EENTRO =        -0.00000000
  eigenvalues    EBANDS =      -633.71305820
  atomic energy  EATOM  =      2081.60521388
  ---------------------------------------------------
  free energy    TOTEN  =       -47.22586897 eV

  energy without entropy =      -47.22586897  energy(sigma->0) =      -47.22586897


--------------------------------------------------------------------------------------------------------




--------------------------------------- Iteration      1(   5)  ---------------------------------------


    TRIAL :  cpu time     15.8121: real time     15.8198
    CORREC:  cpu time      0.0002: real time      0.0002
    CHARGE:  cpu time      3.3613: real time      3.3644
    --------------------------------------------
      LOOP:  cpu time     19.1866: real time     19.2238

 eigenvalue-minimisations  :  1024
 total energy-change (2. order) :-0.4577669E-07  (-0.6397127E-07)
 number of electron      34.0000000 magnetization 
 augmentation part        0.3516734 magnetization 

 Free energy of the ion-electron system (eV)
  ---------------------------------------------------
  alpha Z        PSCENC =         0.40154822
  Ewald energy   TEWEN  =      2231.65584745
  -Hartree energ DENC   =     -3847.78863392
  -exchange      EXHF   =         0.00000000
  -V(xc)+E(xc)   XCENC  =       116.89120436
  PAW double counting   =      1624.60763709    -1620.88562787
  entropy T*S    EENTRO =        -0.00000000
  eigenvalues    EBANDS =      -633.71305824
  atomic energy  EATOM  =      2081.60521388
  ---------------------------------------------------
  free energy    TOTEN  =       -47.22586901 eV

  energy without entropy =      -47.22586901  energy(sigma->0) =      -47.22586901


--------------------------------------------------------------------------------------------------------




--------------------------------------- Iteration      1(   6)  ---------------------------------------


    POTLOK:  cpu time      8.4202: real time      8.4222
    SETDIJ:  cpu time      0.0680: real time      0.0680
    TRIAL :  cpu time      3.5262: real time      3.5345
    CORREC:  cpu time     12.7790: real time     12.7840
    CHARGE:  cpu time      3.3392: real time      3.3403
    --------------------------------------------
      LOOP:  cpu time     28.1493: real time     28.1809

 eigenvalue-minimisations  :     0
 total energy-change (2. order) : 0.1365993E+02  (-0.7079843E+01)
 number of electron      34.0000000 magnetization 
 augmentation part        0.2308494 magnetization 

 Free energy of the ion-electron system (eV)
  ---------------------------------------------------
  alpha Z        PSCENC =         0.40154822
  Ewald energy   TEWEN  =      2231.65584745
  -Hartree energ DENC   =     -4064.67100318
  -exchange      EXHF   =         0.00000000
  -V(xc)+E(xc)   XCENC  =       129.21757975
  PAW double counting   =     12432.45368377   -12432.85908176
  entropy T*S    EENTRO =        -0.00000000
  eigenvalues    EBANDS =      -411.36972619
  atomic energy  EATOM  =      2081.60521388
  ---------------------------------------------------
  free energy    TOTEN  =       -33.56593806 eV

  energy without entropy =      -33.56593806  energy(sigma->0) =      -33.56593806


--------------------------------------------------------------------------------------------------------




--------------------------------------- Iteration      1(   7)  ---------------------------------------


    POTLOK:  cpu time      8.6241: real time      8.6260
    SETDIJ:  cpu time      0.0682: real time      0.0684
    TRIAL :  cpu time      3.3109: real time      3.3120
    CORREC:  cpu time     12.8092: real time     12.8132
    CHARGE:  cpu time      3.3256: real time      3.3266
    --------------------------------------------
      LOOP:  cpu time     28.1522: real time     28.1772

 eigenvalue-minimisations  :     0
 total energy-change (2. order) :-0.7094556E+01  (-0.1002611E+01)
 number of electron      34.0000000 magnetization 
 augmentation part        0.1887440 magnetization 

 Free energy of the ion-electron system (eV)
  ---------------------------------------------------
  alpha Z        PSCENC =         0.40154822
  Ewald energy   TEWEN  =      2231.65584745
  -Hartree energ DENC   =     -3957.25204606
  -exchange      EXHF   =         0.00000000
  -V(xc)+E(xc)   XCENC  =       123.09897367
  PAW double counting   =     16166.09379760   -16164.49461625
  entropy T*S    EENTRO =        -0.00000000
  eigenvalues    EBANDS =      -521.76921263
  atomic energy  EATOM  =      2081.60521388
  ---------------------------------------------------
  free energy    TOTEN  =       -40.66049412 eV

  energy without entropy =      -40.66049412  energy(sigma->0) =      -40.66049412


--------------------------------------------------------------------------------------------------------




--------------------------------------- Iteration      1(   8)  ---------------------------------------


    POTLOK:  cpu time      8.3661: real time      8.3687
    SETDIJ:  cpu time      0.0682: real time      0.0682
    TRIAL :  cpu time      3.3586: real time      3.3602
    CORREC:  cpu time     12.6419: real time     12.6453
    CHARGE:  cpu time      3.3726: real time      3.3739
    --------------------------------------------
      LOOP:  cpu time     27.8279: real time     27.8660

 eigenvalue-minimisations  :     0
 total energy-change (2. order) :-0.1004559E+01  (-0.3504849E+00)
 number of electron      34.0000000 magnetization 
 augmentation part        0.1864500 magnetization 

 Free energy of the ion-electron system (eV)
  ---------------------------------------------------
  alpha Z        PSCENC =         0.40154822
  Ewald energy   TEWEN  =      2231.65584745
  -Hartree energ DENC   =     -3961.84324415
  -exchange      EXHF   =         0.00000000
  -V(xc)+E(xc)   XCENC  =       122.86351964
  PAW double counting   =     17191.78061034   -17189.87485037
  entropy T*S    EENTRO =        -0.00000000
  eigenvalues    EBANDS =      -518.25369782
  atomic energy  EATOM  =      2081.60521388
  ---------------------------------------------------
  free energy    TOTEN  =       -41.66505281 eV

  energy without entropy =      -41.66505281  energy(sigma->0) =      -41.66505281


--------------------------------------------------------------------------------------------------------




--------------------------------------- Iteration      1(   9)  ---------------------------------------


    POTLOK:  cpu time      8.5211: real time      8.5233
    SETDIJ:  cpu time      0.0679: real time      0.0679
    TRIAL :  cpu time      3.3305: real time      3.3322
    CORREC:  cpu time     12.9888: real time     12.9928
    CHARGE:  cpu time      3.4091: real time      3.4100
    --------------------------------------------
      LOOP:  cpu time     28.3317: real time     28.3586

 eigenvalue-minimisations  :     0
 total energy-change (2. order) :-0.3497893E+00  (-0.1494050E+00)
 number of electron      34.0000000 magnetization 
 augmentation part        0.1889730 magnetization 

 Free energy of the ion-electron system (eV)
  ---------------------------------------------------
  alpha Z        PSCENC =         0.40154822
  Ewald energy   TEWEN  =      2231.65584745
  -Hartree energ DENC   =     -3958.57397766
  -exchange      EXHF   =         0.00000000
  -V(xc)+E(xc)   XCENC  =       122.60588926
  PAW double counting   =     17794.26134846   -17792.32026995
  entropy T*S    EENTRO =        -0.00000000
  eigenvalues    EBANDS =      -521.65044177
  atomic energy  EATOM  =      2081.60521388
  ---------------------------------------------------
  free energy    TOTEN  =       -42.01484210 eV

  energy without entropy =      -42.01484210  energy(sigma->0) =      -42.01484210


--------------------------------------------------------------------------------------------------------




--------------------------------------- Iteration      1(  10)  ---------------------------------------


    POTLOK:  cpu time      8.5501: real time      8.5528
    SETDIJ:  cpu time      0.0683: real time      0.0683
    TRIAL :  cpu time      3.3357: real time      3.3370
    CORREC:  cpu time     12.9409: real time     12.9443
    CHARGE:  cpu time      3.4019: real time      3.4028
    --------------------------------------------
      LOOP:  cpu time     28.3119: real time     28.3371

 eigenvalue-minimisations  :     0
 total energy-change (2. order) :-0.1486976E+00  (-0.4231586E-01)
 number of electron      34.0000000 magnetization 
 augmentation part        0.1907981 magnetization 

 Free energy of the ion-electron system (eV)
  ---------------------------------------------------
  alpha Z        PSCENC =         0.40154822
  Ewald energy   TEWEN  =      2231.65584745
  -Hartree energ DENC   =     -3950.11071964
  -exchange      EXHF   =         0.00000000
  -V(xc)+E(xc)   XCENC  =       122.29261669
  PAW double counting   =     17436.38701749   -17434.46076718
  entropy T*S    EENTRO =        -0.00000000
  eigenvalues    EBANDS =      -529.93429658
  atomic energy  EATOM  =      2081.60521388
  ---------------------------------------------------
  free energy    TOTEN  =       -42.16353966 eV

  energy without entropy =      -42.16353966  energy(sigma->0) =      -42.16353966


--------------------------------------------------------------------------------------------------------




--------------------------------------- Iteration      1(  11)  ---------------------------------------


    POTLOK:  cpu time      8.3897: real time      8.3915
    SETDIJ:  cpu time      0.0679: real time      0.0679
    TRIAL :  cpu time      3.2997: real time      3.3013
    CORREC:  cpu time     12.7842: real time     12.7877
    CHARGE:  cpu time      3.3149: real time      3.3156
    --------------------------------------------
      LOOP:  cpu time     27.8705: real time     27.8990

 eigenvalue-minimisations  :     0
 total energy-change (2. order) :-0.4227264E-01  (-0.1117940E-01)
 number of electron      34.0000000 magnetization 
 augmentation part        0.1918532 magnetization 

 Free energy of the ion-electron system (eV)
  ---------------------------------------------------
  alpha Z        PSCENC =         0.40154822
  Ewald energy   TEWEN  =      2231.65584745
  -Hartree energ DENC   =     -3946.53800898
  -exchange      EXHF   =         0.00000000
  -V(xc)+E(xc)   XCENC  =       122.19545181
  PAW double counting   =     16988.14424610   -16986.24432638
  entropy T*S    EENTRO =        -0.00000000
  eigenvalues    EBANDS =      -533.42578440
  atomic energy  EATOM  =      2081.60521388
  ---------------------------------------------------
  free energy    TOTEN  =       -42.20581229 eV

  energy without entropy =      -42.20581229  energy(sigma->0) =      -42.20581229


--------------------------------------------------------------------------------------------------------




--------------------------------------- Iteration      1(  12)  ---------------------------------------


    POTLOK:  cpu time      8.6070: real time      8.6093
    SETDIJ:  cpu time      0.0697: real time      0.0697
    TRIAL :  cpu time      3.3285: real time      3.3309
    CORREC:  cpu time     12.8544: real time     12.8576
    CHARGE:  cpu time      3.3187: real time      3.3198
    --------------------------------------------
      LOOP:  cpu time     28.2121: real time     28.2212

 eigenvalue-minimisations  :     0
 total energy-change (2. order) :-0.1117584E-01  (-0.2798784E-02)
 number of electron      34.0000000 magnetization 
 augmentation part        0.1915340 magnetization 

 Free energy of the ion-electron system (eV)
  ---------------------------------------------------
  alpha Z        PSCENC =         0.40154822
  Ewald energy   TEWEN  =      2231.65584745
  -Hartree energ DENC   =     -3945.34033253
  -exchange      EXHF   =         0.00000000
  -V(xc)+E(xc)   XCENC  =       122.16090827
  PAW double counting   =     16826.47050303   -16824.58117916
  entropy T*S    EENTRO =        -0.00000000
  eigenvalues    EBANDS =      -534.58949731
  atomic energy  EATOM  =      2081.60521388
  ---------------------------------------------------
  free energy    TOTEN  =       -42.21698814 eV

  energy without entropy =      -42.21698814  energy(sigma->0) =      -42.21698814


--------------------------------------------------------------------------------------------------------




--------------------------------------- Iteration      1(  13)  ---------------------------------------


    POTLOK:  cpu time      8.4086: real time      8.4107
    SETDIJ:  cpu time      0.0680: real time      0.0680
    TRIAL :  cpu time      3.3338: real time      3.3353
    CORREC:  cpu time     12.6648: real time     12.6676
    CHARGE:  cpu time      3.3287: real time      3.3297
    --------------------------------------------
      LOOP:  cpu time     27.8192: real time     27.8444

 eigenvalue-minimisations  :     0
 total energy-change (2. order) :-0.2797140E-02  (-0.7164921E-03)
 number of electron      34.0000000 magnetization 
 augmentation part        0.1911439 magnetization 

 Free energy of the ion-electron system (eV)
  ---------------------------------------------------
  alpha Z        PSCENC =         0.40154822
  Ewald energy   TEWEN  =      2231.65584745
  -Hartree energ DENC   =     -3944.82763432
  -exchange      EXHF   =         0.00000000
  -V(xc)+E(xc)   XCENC  =       122.14168865
  PAW double counting   =     16798.04515248   -16796.15249523
  entropy T*S    EENTRO =        -0.00000000
  eigenvalues    EBANDS =      -535.08910641
  atomic energy  EATOM  =      2081.60521388
  ---------------------------------------------------
  free energy    TOTEN  =       -42.21978528 eV

  energy without entropy =      -42.21978528  energy(sigma->0) =      -42.21978528


--------------------------------------------------------------------------------------------------------




--------------------------------------- Iteration      1(  14)  ---------------------------------------


    POTLOK:  cpu time      8.4386: real time      8.4405
    SETDIJ:  cpu time      0.0679: real time      0.0679
    TRIAL :  cpu time      3.3010: real time      3.3024
    CORREC:  cpu time     12.8225: real time     12.8258
    CHARGE:  cpu time      3.3153: real time      3.3163
    --------------------------------------------
      LOOP:  cpu time     27.9598: real time     27.9855

 eigenvalue-minimisations  :     0
 total energy-change (2. order) :-0.7150732E-03  (-0.2022510E-03)
 number of electron      34.0000000 magnetization 
 augmentation part        0.1909487 magnetization 

 Free energy of the ion-electron system (eV)
  ---------------------------------------------------
  alpha Z        PSCENC =         0.40154822
  Ewald energy   TEWEN  =      2231.65584745
  -Hartree energ DENC   =     -3944.81721329
  -exchange      EXHF   =         0.00000000
  -V(xc)+E(xc)   XCENC  =       122.14255158
  PAW double counting   =     16797.18759192   -16795.29274295
  entropy T*S    EENTRO =        -0.00000000
  eigenvalues    EBANDS =      -535.10329717
  atomic energy  EATOM  =      2081.60521388
  ---------------------------------------------------
  free energy    TOTEN  =       -42.22050035 eV

  energy without entropy =      -42.22050035  energy(sigma->0) =      -42.22050035


--------------------------------------------------------------------------------------------------------




--------------------------------------- Iteration      1(  15)  ---------------------------------------


    POTLOK:  cpu time      8.5454: real time      8.5473
    SETDIJ:  cpu time      0.0677: real time      0.0677
    TRIAL :  cpu time      3.2978: real time      3.2990
    CORREC:  cpu time     12.7125: real time     12.7157
    CHARGE:  cpu time      3.3156: real time      3.3164
    --------------------------------------------
      LOOP:  cpu time     27.9713: real time     27.9787

 eigenvalue-minimisations  :     0
 total energy-change (2. order) :-0.2014568E-03  (-0.6221492E-04)
 number of electron      34.0000000 magnetization 
 augmentation part        0.1908624 magnetization 

 Free energy of the ion-electron system (eV)
  ---------------------------------------------------
  alpha Z        PSCENC =         0.40154822
  Ewald energy   TEWEN  =      2231.65584745
  -Hartree energ DENC   =     -3944.94985860
  -exchange      EXHF   =         0.00000000
  -V(xc)+E(xc)   XCENC  =       122.14766124
  PAW double counting   =     16796.44178924   -16794.54652006
  entropy T*S    EENTRO =        -0.00000000
  eigenvalues    EBANDS =      -534.97638318
  atomic energy  EATOM  =      2081.60521388
  ---------------------------------------------------
  free energy    TOTEN  =       -42.22070181 eV

  energy without entropy =      -42.22070181  energy(sigma->0) =      -42.22070181


--------------------------------------------------------------------------------------------------------




--------------------------------------- Iteration      1(  16)  ---------------------------------------


    POTLOK:  cpu time      8.3732: real time      8.3752
    SETDIJ:  cpu time      0.0681: real time      0.0681
    TRIAL :  cpu time      3.3017: real time      3.3033
    CORREC:  cpu time     12.6557: real time     12.6589
    CHARGE:  cpu time      3.3146: real time      3.3155
    --------------------------------------------
      LOOP:  cpu time     27.7304: real time     27.7524

 eigenvalue-minimisations  :     0
 total energy-change (2. order) :-0.6205060E-04  (-0.1725488E-04)
 number of electron      34.0000000 magnetization 
 augmentation part        0.1908893 magnetization 

 Free energy of the ion-electron system (eV)
  ---------------------------------------------------
  alpha Z        PSCENC =         0.40154822
  Ewald energy   TEWEN  =      2231.65584745
  -Hartree energ DENC   =     -3944.99284487
  -exchange      EXHF   =         0.00000000
  -V(xc)+E(xc)   XCENC  =       122.14792057
  PAW double counting   =     16792.39265923   -16790.49694009
  entropy T*S    EENTRO =        -0.00000000
  eigenvalues    EBANDS =      -534.93416826
  atomic energy  EATOM  =      2081.60521388
  ---------------------------------------------------
  free energy    TOTEN  =       -42.22076386 eV

  energy without entropy =      -42.22076386  energy(sigma->0) =      -42.22076386


--------------------------------------------------------------------------------------------------------




--------------------------------------- Iteration      1(  17)  ---------------------------------------


    POTLOK:  cpu time      8.5747: real time      8.5768
    SETDIJ:  cpu time      0.0678: real time      0.0678
    TRIAL :  cpu time      3.3053: real time      3.3070
    CORREC:  cpu time     12.8001: real time     12.8037
    CHARGE:  cpu time      3.3155: real time      3.3164
    --------------------------------------------
      LOOP:  cpu time     28.0795: real time     28.1031

 eigenvalue-minimisations  :     0
 total energy-change (2. order) :-0.1740147E-04  (-0.4375986E-05)
 number of electron      34.0000000 magnetization 
 augmentation part        0.1909140 magnetization 

 Free energy of the ion-electron system (eV)
  ---------------------------------------------------
  alpha Z        PSCENC =         0.40154822
  Ewald energy   TEWEN  =      2231.65584745
  -Hartree energ DENC   =     -3945.03454941
  -exchange      EXHF   =         0.00000000
  -V(xc)+E(xc)   XCENC  =       122.14936963
  PAW double counting   =     16786.82131731   -16784.92604850
  entropy T*S    EENTRO =        -0.00000000
  eigenvalues    EBANDS =      -534.89347984
  atomic energy  EATOM  =      2081.60521388
  ---------------------------------------------------
  free energy    TOTEN  =       -42.22078126 eV

  energy without entropy =      -42.22078126  energy(sigma->0) =      -42.22078126


--------------------------------------------------------------------------------------------------------




--------------------------------------- Iteration      1(  18)  ---------------------------------------


    POTLOK:  cpu time      8.3510: real time      8.3530
    SETDIJ:  cpu time      0.0683: real time      0.0683
    TRIAL :  cpu time      3.3353: real time      3.3367
    CORREC:  cpu time     12.6257: real time     12.6288
    CHARGE:  cpu time      3.3119: real time      3.3126
    --------------------------------------------
      LOOP:  cpu time     27.7251: real time     27.7325

 eigenvalue-minimisations  :     0
 total energy-change (2. order) :-0.4459327E-05  (-0.1187819E-05)
 number of electron      34.0000000 magnetization 
 augmentation part        0.1909173 magnetization 

 Free energy of the ion-electron system (eV)
  ---------------------------------------------------
  alpha Z        PSCENC =         0.40154822
  Ewald energy   TEWEN  =      2231.65584745
  -Hartree energ DENC   =     -3945.05261763
  -exchange      EXHF   =         0.00000000
  -V(xc)+E(xc)   XCENC  =       122.15009996
  PAW double counting   =     16784.56035273   -16782.66533528
  entropy T*S    EENTRO =        -0.00000000
  eigenvalues    EBANDS =      -534.87589505
  atomic energy  EATOM  =      2081.60521388
  ---------------------------------------------------
  free energy    TOTEN  =       -42.22078572 eV

  energy without entropy =      -42.22078572  energy(sigma->0) =      -42.22078572


--------------------------------------------------------------------------------------------------------




--------------------------------------- Iteration      1(  19)  ---------------------------------------


    POTLOK:  cpu time      8.4569: real time      8.4590
    SETDIJ:  cpu time      0.0676: real time      0.0676
    TRIAL :  cpu time      3.2992: real time      3.3004
    CORREC:  cpu time     12.8269: real time     12.8301
    CHARGE:  cpu time      3.3144: real time      3.3150
    --------------------------------------------
      LOOP:  cpu time     27.9829: real time     28.0045

 eigenvalue-minimisations  :     0
 total energy-change (2. order) :-0.1208993E-05  (-0.3520265E-06)
 number of electron      34.0000000 magnetization 
 augmentation part        0.1909216 magnetization 

 Free energy of the ion-electron system (eV)
  ---------------------------------------------------
  alpha Z        PSCENC =         0.40154822
  Ewald energy   TEWEN  =      2231.65584745
  -Hartree energ DENC   =     -3945.05089574
  -exchange      EXHF   =         0.00000000
  -V(xc)+E(xc)   XCENC  =       122.14996161
  PAW double counting   =     16784.69785412   -16782.80277932
  entropy T*S    EENTRO =        -0.00000000
  eigenvalues    EBANDS =      -534.87753715
  atomic energy  EATOM  =      2081.60521388
  ---------------------------------------------------
  free energy    TOTEN  =       -42.22078693 eV

  energy without entropy =      -42.22078693  energy(sigma->0) =      -42.22078693


--------------------------------------------------------------------------------------------------------




--------------------------------------- Iteration      1(  20)  ---------------------------------------


    POTLOK:  cpu time      8.4858: real time      8.4888
    SETDIJ:  cpu time      0.0677: real time      0.0677
    TRIAL :  cpu time      3.3001: real time      3.3017
    CORREC:  cpu time     12.6841: real time     12.6879
    CHARGE:  cpu time      3.3159: real time      3.3167
    --------------------------------------------
      LOOP:  cpu time     27.8708: real time     27.8944

 eigenvalue-minimisations  :     0
 total energy-change (2. order) :-0.3528912E-06  (-0.1129233E-06)
 number of electron      34.0000000 magnetization 
 augmentation part        0.1909227 magnetization 

 Free energy of the ion-electron system (eV)
  ---------------------------------------------------
  alpha Z        PSCENC =         0.40154822
  Ewald energy   TEWEN  =      2231.65584745
  -Hartree energ DENC   =     -3945.05228869
  -exchange      EXHF   =         0.00000000
  -V(xc)+E(xc)   XCENC  =       122.15008402
  PAW double counting   =     16785.50548901   -16783.61040990
  entropy T*S    EENTRO =        -0.00000000
  eigenvalues    EBANDS =      -534.87627128
  atomic energy  EATOM  =      2081.60521388
  ---------------------------------------------------
  free energy    TOTEN  =       -42.22078728 eV

  energy without entropy =      -42.22078728  energy(sigma->0) =      -42.22078728


--------------------------------------------------------------------------------------------------------




--------------------------------------- Iteration      1(  21)  ---------------------------------------


    POTLOK:  cpu time      8.4458: real time      8.4478
    SETDIJ:  cpu time      0.0689: real time      0.0691
    TRIAL :  cpu time      3.3202: real time      3.3213
    CORREC:  cpu time     12.7009: real time     12.7051
    CHARGE:  cpu time      3.3154: real time      3.3161
    --------------------------------------------
      LOOP:  cpu time     27.8656: real time     27.8907

 eigenvalue-minimisations  :     0
 total energy-change (2. order) :-0.1050030E-06  (-0.2584894E-07)
 number of electron      34.0000000 magnetization 
 augmentation part        0.1909238 magnetization 

 Free energy of the ion-electron system (eV)
  ---------------------------------------------------
  alpha Z        PSCENC =         0.40154822
  Ewald energy   TEWEN  =      2231.65584745
  -Hartree energ DENC   =     -3945.05083249
  -exchange      EXHF   =         0.00000000
  -V(xc)+E(xc)   XCENC  =       122.15005258
  PAW double counting   =     16786.22616047   -16784.33105774
  entropy T*S    EENTRO =        -0.00000000
  eigenvalues    EBANDS =      -534.87771976
  atomic energy  EATOM  =      2081.60521388
  ---------------------------------------------------
  free energy    TOTEN  =       -42.22078739 eV

  energy without entropy =      -42.22078739  energy(sigma->0) =      -42.22078739


--------------------------------------------------------------------------------------------------------




--------------------------------------- Iteration      1(  22)  ---------------------------------------


    POTLOK:  cpu time      8.5681: real time      8.5701
    SETDIJ:  cpu time      0.0679: real time      0.0681
    TRIAL :  cpu time      3.2970: real time      3.2983
    CORREC:  cpu time     12.7698: real time     12.7733
    CHARGE:  cpu time      3.3173: real time      3.3181
    --------------------------------------------
      LOOP:  cpu time     28.0510: real time     28.0589

 eigenvalue-minimisations  :     0
 total energy-change (2. order) :-0.2494198E-07  (-0.4633221E-08)
 number of electron      34.0000000 magnetization 
 augmentation part        0.1909245 magnetization 

 Free energy of the ion-electron system (eV)
  ---------------------------------------------------
  alpha Z        PSCENC =         0.40154822
  Ewald energy   TEWEN  =      2231.65584745
  -Hartree energ DENC   =     -3945.05007929
  -exchange      EXHF   =         0.00000000
  -V(xc)+E(xc)   XCENC  =       122.15002663
  PAW double counting   =     16786.46334946   -16784.56824598
  entropy T*S    EENTRO =        -0.00000000
  eigenvalues    EBANDS =      -534.87844779
  atomic energy  EATOM  =      2081.60521388
  ---------------------------------------------------
  free energy    TOTEN  =       -42.22078741 eV

  energy without entropy =      -42.22078741  energy(sigma->0) =      -42.22078741


--------------------------------------------------------------------------------------------------------




--------------------------------------- Iteration      1(  23)  ---------------------------------------


    POTLOK:  cpu time      8.3561: real time      8.3582
    SETDIJ:  cpu time      0.0680: real time      0.0680
    TRIAL :  cpu time      3.3213: real time      3.3228
    CORREC:  cpu time     12.6150: real time     12.6181
    EDDIAG:  cpu time      1.3271: real time      1.3278
    CHARGE:  cpu time      3.4271: real time      3.4278
    --------------------------------------------
      LOOP:  cpu time     29.1433: real time     29.1544

 eigenvalue-minimisations  :     0
 total energy-change (2. order) :-0.3292371E-08  (-0.1641084E-08)
 number of electron      34.0000000 magnetization 
 augmentation part        0.1909250 magnetization 

 Free energy of the ion-electron system (eV)
  ---------------------------------------------------
  alpha Z        PSCENC =         0.40154822
  Ewald energy   TEWEN  =      2231.65584745
  -Hartree energ DENC   =     -3945.04994956
  -exchange      EXHF   =         0.00000000
  -V(xc)+E(xc)   XCENC  =       122.15002247
  PAW double counting   =     16786.47485236   -16784.57975456
  entropy T*S    EENTRO =        -0.00000000
  eigenvalues    EBANDS =      -534.87856769
  atomic energy  EATOM  =      2081.60521388
  ---------------------------------------------------
  free energy    TOTEN  =       -42.22078741 eV

  energy without entropy =      -42.22078741  energy(sigma->0) =      -42.22078741


--------------------------------------------------------------------------------------------------------


  average scaling for gradient   1.7976


 average (electrostatic) potential at core
  the test charge radii are     0.5770  0.4325  0.5955
  (the norm of the test charge is              1.0000)
       1 -91.9476       2 -91.9476       3 -51.1084       4 -51.1084       5-120.9588
       6-120.9588       7-122.2730       8-122.2731



 E-fermi :  -7.3990     XC(G=0):  -0.2460     alpha+bet : -0.0741

 Fermi energy:        -7.3989846806

 k-point     1 :       0.0000    0.0000    0.0000
  band No.  band energies     occupation 
      1     -29.2016      2.00000
      2     -28.4621      2.00000
      3     -27.2299      2.00000
      4     -26.6980      2.00000
      5     -17.7804      2.00000
      6     -16.2950      2.00000
      7     -16.0262      2.00000
      8     -12.8280      2.00000
      9     -12.5941      2.00000
     10     -12.0573      2.00000
     11     -11.8207      2.00000
     12     -11.3920      2.00000
     13     -10.1718      2.00000
     14      -9.2579      2.00000
     15      -9.1415      2.00000
     16      -8.9793      2.00000
     17      -7.5034      2.00000
     18      -3.9329      0.00000
     19      -1.5617      0.00000
     20      -0.7591      0.00000
     21      -0.4692      0.00000
     22      -0.0746      0.00000
     23      -0.0274      0.00000
     24       0.0423      0.00000
     25       0.2476      0.00000
     26       0.3342      0.00000
     27       0.4232      0.00000
     28       0.4525      0.00000
     29       0.4948      0.00000
     30       0.5134      0.00000
     31       0.5358      0.00000
     32       0.6006      0.00000
     33       0.6706      0.00000
     34       0.6801      0.00000
     35       0.7075      0.00000
     36       0.7615      0.00000
     37       0.7669      0.00000
     38       0.7719      0.00000
     39       0.8541      0.00000
     40       0.8624      0.00000
     41       0.9643      0.00000
     42       0.9819      0.00000
     43       1.0065      0.00000
     44       1.0200      0.00000
     45       1.0653      0.00000
     46       1.0766      0.00000
     47       1.1204      0.00000
     48       1.1434      0.00000
     49       1.1929      0.00000
     50       1.2271      0.00000
     51       1.2480      0.00000
     52       1.2517      0.00000
     53       1.3862      0.00000
     54       1.5200      0.00000
     55       1.5301      0.00000
     56       1.5822      0.00000
     57       1.6049      0.00000
     58       1.6194      0.00000
     59       1.6712      0.00000
     60       1.6790      0.00000
     61       1.6953      0.00000
     62       1.6995      0.00000
     63       1.7415      0.00000
     64       1.7499      0.00000
     65       1.7670      0.00000
     66       1.8058      0.00000
     67       1.8099      0.00000
     68       1.8357      0.00000
     69       1.8451      0.00000
     70       1.8664      0.00000
     71       1.8685      0.00000
     72       1.8934      0.00000
     73       1.8993      0.00000
     74       1.9037      0.00000
     75       1.9068      0.00000
     76       1.9141      0.00000
     77       1.9926      0.00000
     78       2.0189      0.00000
     79       2.0329      0.00000
     80       2.0703      0.00000
     81       2.0799      0.00000
     82       2.0846      0.00000
     83       2.0931      0.00000
     84       2.1328      0.00000
     85       2.1685      0.00000
     86       2.1795      0.00000
     87       2.1823      0.00000
     88       2.1995      0.00000
     89       2.2061      0.00000
     90       2.2175      0.00000
     91       2.2281      0.00000
     92       2.2306      0.00000
     93       2.2377      0.00000
     94       2.2400      0.00000
     95       2.2575      0.00000
     96       2.2608      0.00000
     97       2.2677      0.00000
     98       2.2703      0.00000
     99       2.2883      0.00000
    100       2.2945      0.00000
    101       2.4033      0.00000
    102       2.4289      0.00000
    103       2.5711      0.00000
    104       2.6957      0.00000
    105       2.7388      0.00000
    106       2.7537      0.00000
    107       2.7722      0.00000
    108       2.8146      0.00000
    109       2.8183      0.00000
    110       2.8298      0.00000
    111       2.8469      0.00000
    112       2.8729      0.00000
    113       2.8985      0.00000
    114       2.9617      0.00000
    115       2.9917      0.00000
    116       2.9967      0.00000
    117       3.0272      0.00000
    118       3.0883      0.00000
    119       3.1177      0.00000
    120       3.1237      0.00000
    121       3.1324      0.00000
    122       3.1600      0.00000
    123       3.1778      0.00000
    124       3.1974      0.00000
    125       3.2139      0.00000
    126       3.2651      0.00000
    127       3.2706      0.00000
    128       3.3145      0.00000
    129       3.3172      0.00000
    130       3.3240      0.00000
    131       3.3294      0.00000
    132       3.3375      0.00000
    133       3.3472      0.00000
    134       3.3498      0.00000
    135       3.3627      0.00000
    136       3.3677      0.00000
    137       3.3698      0.00000
    138       3.3721      0.00000
    139       3.3763      0.00000
    140       3.3927      0.00000
    141       3.3949      0.00000
    142       3.4079      0.00000
    143       3.4250      0.00000
    144       3.4863      0.00000
    145       3.5068      0.00000
    146       3.5384      0.00000
    147       3.5389      0.00000
    148       3.5401      0.00000
    149       3.5851      0.00000
    150       3.5862      0.00000
    151       3.5953      0.00000
    152       3.6225      0.00000
    153       3.6280      0.00000
    154       3.6419      0.00000
    155       3.6441      0.00000
    156       3.6543      0.00000
    157       3.6595      0.00000
    158       3.6717      0.00000
    159       3.6906      0.00000
    160       3.7015      0.00000
    161       3.7312      0.00000
    162       3.7420      0.00000
    163       3.7447      0.00000
    164       3.7522      0.00000
    165       3.7546      0.00000
    166       3.7606      0.00000
    167       3.7607      0.00000
    168       3.8374      0.00000
    169       3.8860      0.00000
    170       3.9875      0.00000
    171       3.9905      0.00000
    172       3.9962      0.00000
    173       4.0139      0.00000
    174       4.0294      0.00000
    175       4.0307      0.00000
    176       4.0370      0.00000
    177       4.0440      0.00000
    178       4.0450      0.00000
    179       4.0541      0.00000
    180       4.0542      0.00000
    181       4.0610      0.00000
    182       4.0623      0.00000
    183       4.0747      0.00000
    184       4.0757      0.00000
    185       4.0829      0.00000
    186       4.1011      0.00000
    187       4.1105      0.00000
    188       4.1188      0.00000
    189       4.1237      0.00000
    190       4.1260      0.00000
    191       4.1310      0.00000
    192       4.2030      0.00000
    193       4.2243      0.00000
    194       4.3207      0.00000
    195       4.3542      0.00000
    196       4.3665      0.00000
    197       4.3764      0.00000
    198       4.3800      0.00000
    199       4.4028      0.00000
    200       4.4308      0.00000
    201       4.4705      0.00000
    202       4.5076      0.00000
    203       4.5380      0.00000
    204       4.5554      0.00000
    205       4.5762      0.00000
    206       4.5958      0.00000
    207       4.6179      0.00000
    208       4.6654      0.00000
    209       4.6839      0.00000
    210       4.7181      0.00000
    211       4.7217      0.00000
    212       4.7348      0.00000
    213       4.7774      0.00000
    214       4.7931      0.00000
    215       4.8037      0.00000
    216       4.8111      0.00000
    217       4.8231      0.00000
    218       4.8382      0.00000
    219       4.8436      0.00000
    220       4.8494      0.00000
    221       4.8598      0.00000
    222       4.8631      0.00000
    223       4.8699      0.00000
    224       4.8946      0.00000
    225       4.9292      0.00000
    226       4.9884      0.00000
    227       5.0057      0.00000
    228       5.0191      0.00000
    229       5.0615      0.00000
    230       5.0659      0.00000
    231       5.0754      0.00000
    232       5.0897      0.00000
    233       5.0915      0.00000
    234       5.1027      0.00000
    235       5.1104      0.00000
    236       5.1218      0.00000
    237       5.1282      0.00000
    238       5.1326      0.00000
    239       5.1378      0.00000
    240       5.1410      0.00000
    241       5.1532      0.00000
    242       5.1540      0.00000
    243       5.1619      0.00000
    244       5.1631      0.00000
    245       5.1736      0.00000
    246       5.1907      0.00000
    247       5.1999      0.00000
    248       5.2039      0.00000
    249       5.2130      0.00000
    250       5.2197      0.00000
    251       5.2302      0.00000
    252       5.2332      0.00000
    253       5.2374      0.00000
    254       5.2397      0.00000
    255       5.2429      0.00000
    256       5.2444      0.00000
    257       5.2469      0.00000
    258       5.2572      0.00000
    259       5.2646      0.00000
    260       5.2677      0.00000
    261       5.2687      0.00000
    262       5.2718      0.00000
    263       5.2793      0.00000
    264       5.2841      0.00000
    265       5.2865      0.00000
    266       5.2909      0.00000
    267       5.2930      0.00000
    268       5.3003      0.00000
    269       5.3057      0.00000
    270       5.3066      0.00000
    271       5.3149      0.00000
    272       5.3177      0.00000
    273       5.4478      0.00000
    274       5.4599      0.00000
    275       5.4891      0.00000
    276       5.5736      0.00000
    277       5.5993      0.00000
    278       5.6268      0.00000
    279       5.7649      0.00000
    280       5.8456      0.00000
    281       5.9848      0.00000
    282       6.0003      0.00000
    283       6.0186      0.00000
    284       6.0357      0.00000
    285       6.0610      0.00000
    286       6.0864      0.00000
    287       6.1261      0.00000
    288       6.1349      0.00000
    289       6.1421      0.00000
    290       6.1591      0.00000
    291       6.1702      0.00000
    292       6.1738      0.00000
    293       6.1808      0.00000
    294       6.2069      0.00000
    295       6.2196      0.00000
    296       6.2343      0.00000
    297       6.2498      0.00000
    298       6.2585      0.00000
    299       6.2637      0.00000
    300       6.2822      0.00000
    301       6.3031      0.00000
    302       6.3075      0.00000
    303       6.3167      0.00000
    304       6.3225      0.00000
    305       6.3244      0.00000
    306       6.3299      0.00000
    307       6.3405      0.00000
    308       6.3463      0.00000
    309       6.3560      0.00000
    310       6.3581      0.00000
    311       6.3596      0.00000
    312       6.3601      0.00000
    313       6.3645      0.00000
    314       6.3660      0.00000
    315       6.3691      0.00000
    316       6.3696      0.00000
    317       6.3709      0.00000
    318       6.3737      0.00000
    319       6.3743      0.00000
    320       6.3763      0.00000
    321       6.3800      0.00000
    322       6.3808      0.00000
    323       6.3832      0.00000
    324       6.3859      0.00000
    325       6.3872      0.00000
    326       6.3888      0.00000
    327       6.4149      0.00000
    328       6.4628      0.00000
    329       6.4892      0.00000
    330       6.4964      0.00000
    331       6.5247      0.00000
    332       6.5469      0.00000
    333       6.5607      0.00000
    334       6.5865      0.00000
    335       6.6086      0.00000
    336       6.6267      0.00000
    337       6.6347      0.00000
    338       6.6499      0.00000
    339       6.6534      0.00000
    340       6.6581      0.00000
    341       6.6651      0.00000
    342       6.6696      0.00000
    343       6.6721      0.00000
    344       6.6775      0.00000
    345       6.6821      0.00000
    346       6.6883      0.00000
    347       6.6898      0.00000
    348       6.6960      0.00000
    349       6.6990      0.00000
[...]
      6.253574  8.061289  5.824288    -0.001589   -0.095550   -0.035569  
      6.740398  6.311276  4.624189     0.277007    0.145632   -0.238106  
      4.311280  6.151052  7.147881    -0.277007   -0.145632    0.238106  
      5.489458  4.535997  5.264338     0.043431   -0.013548   -0.051491  
      5.562220  7.926330  6.507732    -0.043431    0.013548    0.051491  

   5 f  =   40.549412 THz   254.779469 2PiTHz 1352.582787 cm-1   167.698817 meV
             X         Y         Z           dx          dy          dz
      5.892183  5.820581  5.336050     0.004033   -0.362164   -0.145343  
      5.159494  6.641747  6.436020    -0.004033    0.362164    0.145343  
      4.798104  4.401038  5.947782    -0.044515   -0.483689   -0.140663  
      6.253574  8.061289  5.824288     0.044515    0.483689    0.140663  
      6.740398  6.311276  4.624189     0.059936    0.108046   -0.021658  
      4.311280  6.151052  7.147881    -0.059936   -0.108046    0.021658  
      5.489458  4.535997  5.264338    -0.042394    0.235945    0.137009  
      5.562220  7.926330  6.507732     0.042394   -0.235945   -0.137009  

   6 f  =   38.748731 THz   243.465456 2PiTHz 1292.518534 cm-1   160.251802 meV
             X         Y         Z           dx          dy          dz
      5.892183  5.820581  5.336050     0.021434    0.189739    0.051090  
      5.159494  6.641747  6.436020     0.021434    0.189739    0.051090  
      4.798104  4.401038  5.947782     0.059302    0.571102    0.159205  
      6.253574  8.061289  5.824288     0.059302    0.571102    0.159205  
      6.740398  6.311276  4.624189    -0.115200   -0.105460    0.081610  
      4.311280  6.151052  7.147881    -0.115200   -0.105460    0.081610  
      5.489458  4.535997  5.264338     0.081898   -0.201687   -0.165745  
      5.562220  7.926330  6.507732     0.081898   -0.201687   -0.165745  

   7 f  =   34.634830 THz   217.617056 2PiTHz 1155.293576 cm-1   143.238083 meV
             X         Y         Z           dx          dy          dz
      5.892183  5.820581  5.336050    -0.007192    0.460564    0.187159  
      5.159494  6.641747  6.436020     0.007192   -0.460564   -0.187159  
      4.798104  4.401038  5.947782    -0.052610   -0.378393   -0.091157  
      6.253574  8.061289  5.824288     0.052610    0.378393    0.091157  
      6.740398  6.311276  4.624189     0.144436    0.051682   -0.133672  
      4.311280  6.151052  7.147881    -0.144436   -0.051682    0.133672  
      5.489458  4.535997  5.264338    -0.145008   -0.167944    0.088927  
      5.562220  7.926330  6.507732     0.145008    0.167944   -0.088927  

   8 f  =   33.288322 THz   209.156694 2PiTHz 1110.378891 cm-1   137.669375 meV
             X         Y         Z           dx          dy          dz
      5.892183  5.820581  5.336050    -0.016830    0.454318    0.194903  
      5.159494  6.641747  6.436020    -0.016830    0.454318    0.194903  
      4.798104  4.401038  5.947782    -0.037176   -0.209856   -0.041614  
      6.253574  8.061289  5.824288    -0.037176   -0.209856   -0.041614  
      6.740398  6.311276  4.624189     0.154725    0.037089   -0.150379  
      4.311280  6.151052  7.147881     0.154725    0.037089   -0.150379  
      5.489458  4.535997  5.264338    -0.130918   -0.378203   -0.008035  
      5.562220  7.926330  6.507732    -0.130918   -0.378203   -0.008035  

   9 f  =   23.686501 THz   148.826675 2PiTHz  790.096626 cm-1    97.959453 meV
             X         Y         Z           dx          dy          dz
      5.892183  5.820581  5.336050    -0.462348    0.169266   -0.433829  
      5.159494  6.641747  6.436020     0.462348   -0.169266    0.433829  
      4.798104  4.401038  5.947782     0.097275   -0.035708    0.091269  
      6.253574  8.061289  5.824288    -0.097275    0.035708   -0.091269  
      6.740398  6.311276  4.624189     0.137479   -0.050674    0.129562  
      4.311280  6.151052  7.147881    -0.137479    0.050674   -0.129562  
      5.489458  4.535997  5.264338     0.077489   -0.027996    0.072560  
      5.562220  7.926330  6.507732    -0.077489    0.027996   -0.072560  

  10 f  =   23.043956 THz   144.789448 2PiTHz  768.663646 cm-1    95.302103 meV
             X         Y         Z           dx          dy          dz
      5.892183  5.820581  5.336050     0.193754   -0.151284   -0.265371  
      5.159494  6.641747  6.436020    -0.193754    0.151284    0.265371  
      4.798104  4.401038  5.947782    -0.032067    0.099828    0.077221  
      6.253574  8.061289  5.824288     0.032067   -0.099828   -0.077221  
      6.740398  6.311276  4.624189     0.218626    0.283063   -0.121933  
      4.311280  6.151052  7.147881    -0.218626   -0.283063    0.121933  
      5.489458  4.535997  5.264338    -0.194077   -0.411924    0.045361  
      5.562220  7.926330  6.507732     0.194077    0.411924   -0.045361  

  11 f  =   20.363034 THz   127.944715 2PiTHz  679.237693 cm-1    84.214703 meV
             X         Y         Z           dx          dy          dz
      5.892183  5.820581  5.336050    -0.064497    0.022455   -0.063181  
      5.159494  6.641747  6.436020    -0.064497    0.022455   -0.063181  
      4.798104  4.401038  5.947782     0.481340   -0.175032    0.453244  
      6.253574  8.061289  5.824288     0.481340   -0.175032    0.453244  
      6.740398  6.311276  4.624189     0.038032   -0.011363    0.034946  
      4.311280  6.151052  7.147881     0.038032   -0.011363    0.034946  
      5.489458  4.535997  5.264338    -0.103406    0.035563   -0.093998  
      5.562220  7.926330  6.507732    -0.103406    0.035563   -0.093998  

  12 f  =   20.142567 THz   126.559479 2PiTHz  671.883702 cm-1    83.302925 meV
             X         Y         Z           dx          dy          dz
      5.892183  5.820581  5.336050     0.086571   -0.031320    0.082976  
      5.159494  6.641747  6.436020    -0.086571    0.031320   -0.082976  
      4.798104  4.401038  5.947782     0.467254   -0.170967    0.438604  
      6.253574  8.061289  5.824288    -0.467254    0.170967   -0.438604  
      6.740398  6.311276  4.624189     0.042234   -0.017160    0.040768  
      4.311280  6.151052  7.147881    -0.042234    0.017160   -0.040768  
      5.489458  4.535997  5.264338    -0.141905    0.053850   -0.133916  
      5.562220  7.926330  6.507732     0.141905   -0.053850    0.133916  

  13 f  =   19.376426 THz   121.745674 2PiTHz  646.327993 cm-1    80.134422 meV
             X         Y         Z           dx          dy          dz
      5.892183  5.820581  5.336050     0.155251   -0.193092   -0.239355  
      5.159494  6.641747  6.436020     0.155251   -0.193092   -0.239355  
      4.798104  4.401038  5.947782    -0.049994    0.127942    0.096386  
      6.253574  8.061289  5.824288    -0.049994    0.127942    0.096386  
      6.740398  6.311276  4.624189     0.115819    0.422634    0.040841  
      4.311280  6.151052  7.147881     0.115819    0.422634    0.040841  
      5.489458  4.535997  5.264338    -0.238060   -0.286937    0.143024  
      5.562220  7.926330  6.507732    -0.238060   -0.286937    0.143024  

  14 f  =   16.050003 THz   100.845142 2PiTHz  535.370469 cm-1    66.377449 meV
             X         Y         Z           dx          dy          dz
      5.892183  5.820581  5.336050     0.194531    0.152125   -0.148222  
      5.159494  6.641747  6.436020    -0.194531   -0.152125    0.148222  
      4.798104  4.401038  5.947782     0.012335    0.167898    0.051990  
      6.253574  8.061289  5.824288    -0.012335   -0.167898   -0.051990  
      6.740398  6.311276  4.624189     0.300495   -0.087292   -0.354501  
      4.311280  6.151052  7.147881    -0.300495    0.087292    0.354501  
      5.489458  4.535997  5.264338     0.029661    0.384089    0.118357  
      5.562220  7.926330  6.507732    -0.029661   -0.384089   -0.118357  

  15 f  =   13.055469 THz    82.029931 2PiTHz  435.483573 cm-1    53.993057 meV
             X         Y         Z           dx          dy          dz
      5.892183  5.820581  5.336050     0.420307   -0.153764    0.394673  
      5.159494  6.641747  6.436020     0.420307   -0.153764    0.394673  
      4.798104  4.401038  5.947782     0.035731   -0.012838    0.033836  
      6.253574  8.061289  5.824288     0.035731   -0.012838    0.033836  
      6.740398  6.311276  4.624189    -0.199207    0.072261   -0.187684  
      4.311280  6.151052  7.147881    -0.199207    0.072261   -0.187684  
      5.489458  4.535997  5.264338    -0.174681    0.064014   -0.163107  
      5.562220  7.926330  6.507732    -0.174681    0.064014   -0.163107  

  16 f  =   11.764040 THz    73.915643 2PiTHz  392.406136 cm-1    48.652138 meV
             X         Y         Z           dx          dy          dz
      5.892183  5.820581  5.336050    -0.058880    0.099448    0.101585  
      5.159494  6.641747  6.436020     0.058880   -0.099448   -0.101585  
      4.798104  4.401038  5.947782    -0.054498    0.158098    0.119431  
      6.253574  8.061289  5.824288     0.054498   -0.158098   -0.119431  
      6.740398  6.311276  4.624189    -0.085124    0.374620    0.237352  
      4.311280  6.151052  7.147881     0.085124   -0.374620   -0.237352  
      5.489458  4.535997  5.264338    -0.241153    0.228975    0.345815  
      5.562220  7.926330  6.507732     0.241153   -0.228975   -0.345815  

  17 f  =    7.798727 THz    49.000846 2PiTHz  260.137528 cm-1    32.252928 meV
             X         Y         Z           dx          dy          dz
      5.892183  5.820581  5.336050    -0.109924   -0.077192    0.087949  
      5.159494  6.641747  6.436020    -0.109924   -0.077192    0.087949  
      4.798104  4.401038  5.947782     0.054821   -0.172135   -0.125038  
      6.253574  8.061289  5.824288     0.054821   -0.172135   -0.125038  
      6.740398  6.311276  4.624189    -0.172048    0.298075    0.301107  
      4.311280  6.151052  7.147881    -0.172048    0.298075    0.301107  
      5.489458  4.535997  5.264338     0.254563   -0.180283   -0.345737  
      5.562220  7.926330  6.507732     0.254563   -0.180283   -0.345737  

  18 f  =    3.455736 THz    21.713029 2PiTHz  115.270944 cm-1    14.291769 meV
             X         Y         Z           dx          dy          dz
      5.892183  5.820581  5.336050     0.037407   -0.008170    0.033698  
      5.159494  6.641747  6.436020     0.037407   -0.008170    0.033698  
      4.798104  4.401038  5.947782    -0.093287    0.036121   -0.087073  
      6.253574  8.061289  5.824288    -0.093287    0.036121   -0.087073  
      6.740398  6.311276  4.624189     0.355023   -0.125167    0.330764  
      4.311280  6.151052  7.147881     0.355023   -0.125167    0.330764  
      5.489458  4.535997  5.264338    -0.336426    0.129182   -0.314365  
      5.562220  7.926330  6.507732    -0.336426    0.129182   -0.314365  

  19 f  =    0.997694 THz     6.268694 2PiTHz   33.279475 cm-1     4.126127 meV
             X         Y         Z           dx          dy          dz
      5.892183  5.820581  5.336050    -0.152024    0.018444   -0.114684  
      5.159494  6.641747  6.436020     0.152024   -0.018444    0.114684  
      4.798104  4.401038  5.947782     0.040546   -0.013606    0.073771  
      6.253574  8.061289  5.824288    -0.040546    0.013606   -0.073771  
      6.740398  6.311276  4.624189    -0.479610    0.077753   -0.455873  
      4.311280  6.151052  7.147881     0.479610   -0.077753    0.455873  
      5.489458  4.535997  5.264338    -0.104821   -0.010090    0.033821  
      5.562220  7.926330  6.507732     0.104821    0.010090   -0.033821  

  20 f  =    0.375295 THz     2.358049 2PiTHz   12.518498 cm-1     1.552095 meV
             X         Y         Z           dx          dy          dz
      5.892183  5.820581  5.336050    -0.054577   -0.155528    0.080088  
      5.159494  6.641747  6.436020     0.054577    0.155528   -0.080088  
      4.798104  4.401038  5.947782    -0.074115    0.032857    0.098902  
      6.253574  8.061289  5.824288     0.074115   -0.032857   -0.098902  
      6.740398  6.311276  4.624189     0.020350   -0.471278   -0.009201  
      4.311280  6.151052  7.147881    -0.020350    0.471278    0.009201  
      5.489458  4.535997  5.264338    -0.269501   -0.130339    0.371272  
      5.562220  7.926330  6.507732     0.269501    0.130339   -0.371272  

  21 f/i=    0.011946 THz     0.075057 2PiTHz    0.398464 cm-1     0.049403 meV
             X         Y         Z           dx          dy          dz
      5.892183  5.820581  5.336050     0.238059   -0.012253   -0.276939  
      5.159494  6.641747  6.436020     0.238059   -0.012253   -0.276939  
      4.798104  4.401038  5.947782     0.068693   -0.003510   -0.079774  
      6.253574  8.061289  5.824288     0.068693   -0.003510   -0.079774  
      6.740398  6.311276  4.624189     0.274743   -0.013831   -0.319597  
      4.311280  6.151052  7.147881     0.274743   -0.013831   -0.319597  
      5.489458  4.535997  5.264338     0.274309   -0.014102   -0.319571  
      5.562220  7.926330  6.507732     0.274309   -0.014102   -0.319571  

  22 f/i=    0.050145 THz     0.315069 2PiTHz    1.672648 cm-1     0.207382 meV
             X         Y         Z           dx          dy          dz
      5.892183  5.820581  5.336050     0.056921   -0.355262    0.065467  
      5.159494  6.641747  6.436020     0.056921   -0.355262    0.065467  
      4.798104  4.401038  5.947782     0.017233   -0.103538    0.018269  
      6.253574  8.061289  5.824288     0.017233   -0.103538    0.018269  
      6.740398  6.311276  4.624189     0.064591   -0.407222    0.076227  
      4.311280  6.151052  7.147881     0.064591   -0.407222    0.076227  
      5.489458  4.535997  5.264338     0.068815   -0.411014    0.073698  
      5.562220  7.926330  6.507732     0.068815   -0.411014    0.073698  

  23 f/i=    0.111024 THz     0.697583 2PiTHz    3.703355 cm-1     0.459157 meV
             X         Y         Z           dx          dy          dz
      5.892183  5.820581  5.336050    -0.270537   -0.086459   -0.228329  
      5.159494  6.641747  6.436020    -0.270537   -0.086459   -0.228329  
      4.798104  4.401038  5.947782    -0.081485   -0.023915   -0.069549  
      6.253574  8.061289  5.824288    -0.081485   -0.023915   -0.069549  
      6.740398  6.311276  4.624189    -0.302286   -0.102499   -0.253499  
      4.311280  6.151052  7.147881    -0.302286   -0.102499   -0.253499  
      5.489458  4.535997  5.264338    -0.322780   -0.095903   -0.274996  
      5.562220  7.926330  6.507732    -0.322780   -0.095903   -0.274996  

  24 f/i=    0.453346 THz     2.848456 2PiTHz   15.121991 cm-1     1.874887 meV
             X         Y         Z           dx          dy          dz
      5.892183  5.820581  5.336050     0.099579   -0.015465    0.078026  
      5.159494  6.641747  6.436020    -0.099579    0.015465   -0.078026  
      4.798104  4.401038  5.947782     0.139956   -0.051872    0.111308  
      6.253574  8.061289  5.824288    -0.139956    0.051872   -0.111308  
      6.740398  6.311276  4.624189    -0.048046    0.072966   -0.041453  
      4.311280  6.151052  7.147881     0.048046   -0.072966    0.041453  
      5.489458  4.535997  5.264338     0.505088   -0.157381    0.399820  
      5.562220  7.926330  6.507732    -0.505088    0.157381   -0.399820  


 ELASTIC MODULI CONTR FROM IONIC RELAXATION (kBar)
 Direction    XX          YY          ZZ          XY          YZ          ZX
 --------------------------------------------------------------------------------
 XX         -18.2248     -8.2062    -14.1107     -9.3902      6.7997     15.7359
 YY          -8.2062    -31.2197     -4.5674    -11.4199     -0.0091      4.2883
 ZZ         -14.1107     -4.5674    -14.1157     -3.0964      1.5188     13.8052
 XY          -9.3902    -11.4199     -3.0964    -11.1907      7.4620      5.6423
 YZ           6.7997     -0.0091      1.5188      7.4620     -7.9466     -4.3370
 ZX          15.7359      4.2883     13.8052      5.6423     -4.3370    -14.5482
 --------------------------------------------------------------------------------



--------------------------------------------------------------------------------------------------------


  LATTYP: Found a simple cubic cell.
 ALAT       =    20.0000000000
  
  Lattice vectors:
  
 A1 = (  20.0000000000,   0.0000000000,   0.0000000000)
 A2 = (   0.0000000000,  20.0000000000,   0.0000000000)
 A3 = (   0.0000000000,   0.0000000000,  20.0000000000)


Analysis of symmetry for initial positions (statically):
=====================================================================
 Subroutine PRICEL returns:
 Original cell was already a primitive cell.
 

 Routine SETGRP: Setting up the symmetry group for a 
 simple cubic supercell.


 Subroutine GETGRP returns: Found  2 space group operations
 (whereof  1 operations were pure point group operations)
 out of a pool of 48 trial point group operations.


The static configuration has the point symmetry C_1 .
 The point group associated with its full space group is S_2 .


Analysis of symmetry for dynamics (positions and initial velocities):
=====================================================================
 Subroutine PRICEL returns:
 Original cell was already a primitive cell.
 

 Routine SETGRP: Setting up the symmetry group for a 
 simple cubic supercell.


 Subroutine GETGRP returns: Found  2 space group operations
 (whereof  1 operations were pure point group operations)
 out of a pool of 48 trial point group operations.


The dynamic configuration has the point symmetry C_1 .
 The point group associated with its full space group is S_2 .


 Subroutine INISYM returns: Found  2 space group operations
 (whereof  1 operations are pure point group operations),
 and found     1 'primitive' translations


 KPOINTS: auto                                    

Automatic generation of k-mesh.
 Grid dimensions read from file:
 generate k-points for:    1    1    1

 Generating k-lattice:

  Cartesian coordinates                     Fractional coordinates (reciprocal lattice)
     0.050000000  0.000000000  0.000000000     1.000000000  0.000000000  0.000000000
     0.000000000  0.050000000  0.000000000     0.000000000  1.000000000  0.000000000
     0.000000000  0.000000000  0.050000000     0.000000000  0.000000000  1.000000000

  Length of vectors
     0.050000000  0.050000000  0.050000000

  Shift w.r.t. Gamma in fractional coordinates (k-lattice)
     0.000000000  0.000000000  0.000000000

 
 Subroutine IBZKPT returns following result:
 ===========================================
 
 Found      1 irreducible k-points:
 
 Following reciprocal coordinates:
            Coordinates               Weight
  0.000000  0.000000  0.000000      1.000000
 
 Following cartesian coordinates:
            Coordinates               Weight
  0.000000  0.000000  0.000000      1.000000
 
     LOOP+:  cpu time    522.4584: real time    527.2941
    4ORBIT:  cpu time      0.0000: real time      0.0000

 total amount of memory used by VASP MPI-rank0   561591. kBytes
=======================================================================

   base      :      30000. kBytes
   nonl-proj :      91914. kBytes
   fftplans  :      43393. kBytes
   grid      :     382475. kBytes
   one-center:         12. kBytes
   wavefun   :      13797. kBytes

  
  
 General timing and accounting informations for this job:
 ========================================================
  
                  Total CPU time used (sec):    10685.559
                            User time (sec):     9867.773
                          System time (sec):      817.785
                         Elapsed time (sec):    10727.000
  
                   Maximum memory used (kb):     1194868.
                   Average memory used (kb):          N/A
  
                          Minor page faults:     34355765
                          Major page faults:          365
                 Voluntary context switches:        45482
