 vasp.6.4.1 05Apr23 (build Jun  6 2023 14:46:38) gamma-only                      
 executed on        HPECrayEX_GCC date 2024.08.21  08:49:11
 running  256 mpi-ranks, with    1 threads/rank, on    2 nodes
 distrk:  each k-point on  256 cores,    1 groups
 distr:  one band on NCORE=   2 cores,  128 groups


--------------------------------------------------------------------------------------------------------


 INCAR:
   ALGO = Conjugate
   NCORE = 2
   PREC = Accurate
   EDIFF = 1E-7
   ENCUT = 1000
   ISMEAR = 0
   SIGMA = 0.01
   ISIF = 0
   SYMPREC = 1E-7
   GGA = RP
   IVDW = 11
   LWAVE = .FALSE.
   LCHARG = .FALSE.
   LWAVE = .FALSE.
   LCHARG = .FALSE.

 POTCAR:    PAW_PBE C_h 06Feb2004                 
 POTCAR:    PAW_PBE H_h 06Feb2004                 
 POTCAR:    PAW_PBE N_h 06Feb2004                 
 POTCAR:    PAW_PBE C_h 06Feb2004                 
   VRHFIN =C: s2p2                                                                                  
   LEXCH  = PE                                                                                      
   EATOM  =   147.1560 eV,   10.8157 Ry                                                             
                                                                                                    
   TITEL  = PAW_PBE C_h 06Feb2004                                                                   
   LULTRA =        F    use ultrasoft PP ?                                                          
   IUNSCR =        1    unscreen: 0-lin 1-nonlin 2-no                                               
   RPACOR =    0.800    partial core radius                                                         
   POMASS =   12.011; ZVAL   =    4.000    mass and valenz                                          
   RCORE  =    1.100    outmost cutoff radius                                                       
   RWIGS  =    1.630; RWIGS  =    0.863    wigner-seitz radius (au A)                               
   ENMAX  =  700.000; ENMIN  =  500.000 eV                                                          
   ICORE  =        2    local potential                                                             
   LCOR   =        T    correct aug charges                                                         
   LPAW   =        T    paw PP                                                                      
   EAUG   =  946.768                                                                                
   DEXC   =    0.000                                                                                
   RMAX   =    1.128    core radius for proj-oper                                                   
   RAUG   =    1.300    factor for augmentation sphere                                              
   RDEP   =    1.162    radius for radial grids                                                     
   RDEPT  =    1.088    core radius for aug-charge                                                  
                                                                                                    
   Atomic configuration                                                                             
    4 entries                                                                                       
     n  l   j            E        occ.                                                              
     1  0  0.50      -273.3789   2.0000                                                             
     2  0  0.50       -13.7508   2.0000                                                             
     2  1  0.50        -5.2854   2.0000                                                             
     3  2  1.50        -5.4423   0.0000                                                             
   Description                                                                                      
     l       E           TYP  RCUT    TYP  RCUT                                                     
     0    -13.7508458     23  1.100                                                                 
     0     -8.2022199     23  1.100                                                                 
     1     -5.2854383     23  1.100                                                                 
     1      1.1560700     23  1.100                                                                 
     2     -5.4423304      7  1.100                                                                 
  local pseudopotential read in
  partial core-charges read in
  partial kinetic energy density read in
  atomic valenz-charges read in
  non local Contribution for L=           0  read in
    real space projection operators read in
  non local Contribution for L=           0  read in
    real space projection operators read in
  non local Contribution for L=           1  read in
    real space projection operators read in
  non local Contribution for L=           1  read in
    real space projection operators read in
    PAW grid and wavefunctions read in

   number of l-projection  operators is LMAX  =           4
   number of lm-projection operators is LMMAX =           8

 POTCAR:    PAW_PBE H_h 06Feb2004                 
   VRHFIN =H: ultrasoft test                                                                        
   LEXCH  = PE                                                                                      
   EATOM  =    12.4884 eV,    0.9179 Ry                                                             
                                                                                                    
   TITEL  = PAW_PBE H_h 06Feb2004                                                                   
   LULTRA =        F    use ultrasoft PP ?                                                          
   IUNSCR =        0    unscreen: 0-lin 1-nonlin 2-no                                               
   RPACOR =    0.000    partial core radius                                                         
   POMASS =    1.000; ZVAL   =    1.000    mass and valenz                                          
   RCORE  =    0.800    outmost cutoff radius                                                       
   RWIGS  =    0.700; RWIGS  =    0.370    wigner-seitz radius (au A)                               
   ENMAX  =  700.000; ENMIN  =  350.000 eV                                                          
   RCLOC  =    0.701    cutoff for local pot                                                        
   LCOR   =        T    correct aug charges                                                         
   LPAW   =        T    paw PP                                                                      
   EAUG   = 1000.000                                                                                
   RMAX   =    0.819    core radius for proj-oper                                                   
   RAUG   =    1.000    factor for augmentation sphere                                              
   RDEP   =    0.817    radius for radial grids                                                     
   RDEPT  =    0.817    core radius for aug-charge                                                  
                                                                                                    
   Atomic configuration                                                                             
    2 entries                                                                                       
     n  l   j            E        occ.                                                              
     1  0  0.50        -6.4927   1.0000                                                             
     2  1  0.50        -3.4015   0.0000                                                             
   Description                                                                                      
     l       E           TYP  RCUT    TYP  RCUT                                                     
     0     -6.4927493     23  0.800                                                                 
     0      6.8029130     23  0.800                                                                 
     1     -6.8029130     23  0.800                                                                 
  local pseudopotential read in
  atomic valenz-charges read in
  non local Contribution for L=           0  read in
    real space projection operators read in
  non local Contribution for L=           0  read in
    real space projection operators read in
  non local Contribution for L=           1  read in
    real space projection operators read in
    PAW grid and wavefunctions read in

   number of l-projection  operators is LMAX  =           3
   number of lm-projection operators is LMMAX =           5

 POTCAR:    PAW_PBE N_h 06Feb2004                 
   VRHFIN =N: s2p3                                                                                  
   LEXCH  = PE                                                                                      
   EATOM  =   264.5486 eV,   19.4438 Ry                                                             
                                                                                                    
   TITEL  = PAW_PBE N_h 06Feb2004                                                                   
   LULTRA =        F    use ultrasoft PP ?                                                          
   IUNSCR =        1    unscreen: 0-lin 1-nonlin 2-no                                               
   RPACOR =    0.800    partial core radius                                                         
   POMASS =   14.001; ZVAL   =    5.000    mass and valenz                                          
   RCORE  =    1.100    outmost cutoff radius                                                       
   RWIGS  =    1.480; RWIGS  =    0.783    wigner-seitz radius (au A)                               
   ENMAX  =  700.000; ENMIN  =  500.000 eV                                                          
   ICORE  =        2    local potential                                                             
   LCOR   =        T    correct aug charges                                                         
   LPAW   =        T    paw PP                                                                      
   EAUG   =  904.640                                                                                
   DEXC   =    0.000                                                                                
   RMAX   =    1.127    core radius for proj-oper                                                   
   RAUG   =    1.300    factor for augmentation sphere                                              
   RDEP   =    1.115    radius for radial grids                                                     
   RDEPT  =    1.106    core radius for aug-charge                                                  
                                                                                                    
   Atomic configuration                                                                             
    4 entries                                                                                       
     n  l   j            E        occ.                                                              
     1  0  0.50      -384.7179   2.0000                                                             
     2  0  0.50       -18.5828   2.0000                                                             
     2  1  0.50        -7.0898   3.0000                                                             
     3  2  1.50        -6.8029   0.0000                                                             
   Description                                                                                      
     l       E           TYP  RCUT    TYP  RCUT                                                     
     0    -18.5828117     23  1.100                                                                 
     0    -15.0750597     23  1.100                                                                 
     1     -7.0897851     23  1.100                                                                 
     1     -1.9663412     23  1.100                                                                 
     2     -6.8029130      7  1.100                                                                 
  local pseudopotential read in
  partial core-charges read in
  partial kinetic energy density read in
  kinetic energy density of atom read in
  atomic valenz-charges read in
  non local Contribution for L=           0  read in
    real space projection operators read in
  non local Contribution for L=           0  read in
    real space projection operators read in
  non local Contribution for L=           1  read in
    real space projection operators read in
  non local Contribution for L=           1  read in
    real space projection operators read in
    PAW grid and wavefunctions read in

   number of l-projection  operators is LMAX  =           4
   number of lm-projection operators is LMMAX =           8

 -----------------------------------------------------------------------------
|                                                                             |
|               ----> ADVICE to this user running VASP <----                  |
|                                                                             |
|     You enforced a specific xc type in the INCAR file but a different       |
|     type was found in the POTCAR file.                                      |
|     I HOPE YOU KNOW WHAT YOU ARE DOING!                                     |
|                                                                             |
 -----------------------------------------------------------------------------

  PAW_PBE C_h 06Feb2004                 :
 energy of atom  1       EATOM= -147.1560
 kinetic energy error for atom=    0.0031 (will be added to EATOM!!)
  PAW_PBE H_h 06Feb2004                 :
 energy of atom  2       EATOM=  -12.4884
 kinetic energy error for atom=    0.0006 (will be added to EATOM!!)
  PAW_PBE N_h 06Feb2004                 :
 energy of atom  3       EATOM= -264.5486
 kinetic energy error for atom=    0.0081 (will be added to EATOM!!)


 POSCAR:  C  H  N
  positions in cartesian coordinates
  No initial velocities read in
 exchange correlation table for  LEXCH =        9
   RHO(1)=    0.500       N(1)  =     2000
   RHO(2)=  100.500       N(2)  =     4000

 VTST: version 4.1, (05/19/21)

 CHAIN: initializing optimizer
 
 OPT: Using VASP Dynamics algorithm
 CHAIN: Read ICHAIN            0

 POSCAR:  C  H  N
  positions in cartesian coordinates
  No initial velocities read in



--------------------------------------------------------------------------------------------------------


 ion  position               nearest neighbor table
   1  0.493  0.483  0.521-   5 1.17   4 1.34
   2  0.476  0.486  0.431-   4 1.02
   3  0.524  0.540  0.457-   4 1.02
   4  0.489  0.512  0.467-   2 1.02   3 1.02   1 1.34
   5  0.494  0.460  0.569-   1 1.17

  LATTYP: Found a simple cubic cell.
 ALAT       =    22.0000000000
  
  Lattice vectors:
  
 A1 = (  22.0000000000,   0.0000000000,   0.0000000000)
 A2 = (   0.0000000000,  22.0000000000,   0.0000000000)
 A3 = (   0.0000000000,   0.0000000000,  22.0000000000)


Analysis of symmetry for initial positions (statically):
=====================================================================
 Subroutine PRICEL returns:
 Original cell was already a primitive cell.
 

 Routine SETGRP: Setting up the symmetry group for a 
 simple cubic supercell.


 Subroutine GETGRP returns: Found  1 space group operations
 (whereof  1 operations were pure point group operations)
 out of a pool of 48 trial point group operations.


The static configuration has the point symmetry C_1 .


Analysis of symmetry for dynamics (positions and initial velocities):
=====================================================================
 Subroutine PRICEL returns:
 Original cell was already a primitive cell.
 

 Routine SETGRP: Setting up the symmetry group for a 
 simple cubic supercell.


 Subroutine GETGRP returns: Found  1 space group operations
 (whereof  1 operations were pure point group operations)
 out of a pool of 48 trial point group operations.


The dynamic configuration has the point symmetry C_1 .


 Subroutine INISYM returns: Found  1 space group operations
 (whereof  1 operations are pure point group operations),
 and found     1 'primitive' translations


----------------------------------------------------------------------------------------

                                     Primitive cell                                     

  volume of cell :   10648.0000

  direct lattice vectors                    reciprocal lattice vectors
    22.000000000  0.000000000  0.000000000     0.045454545  0.000000000  0.000000000
     0.000000000 22.000000000  0.000000000     0.000000000  0.045454545  0.000000000
     0.000000000  0.000000000 22.000000000     0.000000000  0.000000000  0.045454545

  length of vectors
    22.000000000 22.000000000 22.000000000     0.045454545  0.045454545  0.045454545

  position of ions in fractional coordinates (direct lattice)
     0.492741136  0.482876364  0.520817273
     0.476050682  0.485580000  0.431414545
     0.523949318  0.539961818  0.457390000
     0.488634773  0.511865909  0.467210455
     0.494056591  0.460038182  0.568585455

  ion indices of the primitive-cell ions
   primitive index   ion index
                 1           1
                 2           2
                 3           3
                 4           4
                 5           5

----------------------------------------------------------------------------------------



 KPOINTS: auto                                    

Automatic generation of k-mesh.
 Grid dimensions read from file:
 generate k-points for:    1    1    1

 Generating k-lattice:

  Cartesian coordinates                     Fractional coordinates (reciprocal lattice)
     0.045454545  0.000000000  0.000000000     1.000000000  0.000000000  0.000000000
     0.000000000  0.045454545  0.000000000     0.000000000  1.000000000  0.000000000
     0.000000000  0.000000000  0.045454545     0.000000000  0.000000000  1.000000000

  Length of vectors
     0.045454545  0.045454545  0.045454545

  Shift w.r.t. Gamma in fractional coordinates (k-lattice)
     0.000000000  0.000000000  0.000000000

 
 Subroutine IBZKPT returns following result:
 ===========================================
 
 Found      1 irreducible k-points:
 
 Following reciprocal coordinates:
            Coordinates               Weight
  0.000000  0.000000  0.000000      1.000000
 
 Following cartesian coordinates:
            Coordinates               Weight
  0.000000  0.000000  0.000000      1.000000
 


--------------------------------------------------------------------------------------------------------




 Dimension of arrays:
   k-points           NKPTS =      1   k-points in BZ     NKDIM =      1   number of bands    NBANDS=    128
   number of dos      NEDOS =    301   number of ions     NIONS =      5
   non local maximal  LDIM  =      4   non local SUM 2l+1 LMDIM =      8
   total plane-waves  NPLWV = ******
   max r-space proj   IRMAX =      1   max aug-charges    IRDMAX=   9419
   dimension x,y,z NGX =   240 NGY =  240 NGZ =  240
   dimension x,y,z NGXF=   480 NGYF=  480 NGZF=  480
   support grid    NGXF=   480 NGYF=  480 NGZF=  480
   ions per type =               1   2   2
   NGX,Y,Z   is equivalent  to a cutoff of  18.14, 18.14, 18.14 a.u.
   NGXF,Y,Z  is equivalent  to a cutoff of  36.27, 36.27, 36.27 a.u.

 SYSTEM =  unknown system                          
 POSCAR =   C  H  N                                

 Startparameter for this run:
   NWRITE =      2    write-flag & timer
   PREC   = accura    normal or accurate (medium, high low for compatibility)
   ISTART =      0    job   : 0-new  1-cont  2-samecut
   ICHARG =      2    charge: 1-file 2-atom 10-const
   ISPIN  =      1    spin polarized calculation?
   LNONCOLLINEAR =      F non collinear calculations
   LSORBIT =      F    spin-orbit coupling
   INIWAV =      1    electr: 0-lowe 1-rand  2-diag
   LASPH  =      F    aspherical Exc in radial PAW
 Electronic Relaxation 1
   ENCUT  = 1000.0 eV  73.50 Ry    8.57 a.u.  56.73 56.73 56.73*2*pi/ulx,y,z
   ENINI  = 1000.0     initial cutoff
   ENAUG  = 1000.0 eV  augmentation charge cutoff
   NELM   =     60;   NELMIN=  2; NELMDL= -5     # of ELM steps 
   EDIFF  = 0.1E-06   stopping-criterion for ELM
   LREAL  =      F    real-space projection
   NLSPLINE    = F    spline interpolate recip. space projectors
   LCOMPAT=      F    compatible to vasp.4.4
   GGA_COMPAT  = T    GGA compatible to vasp.4.4-vasp.4.6
   LMAXPAW     = -100 max onsite density
   LMAXMIX     =    2 max onsite mixed and CHGCAR
   VOSKOWN=      0    Vosko Wilk Nusair interpolation
   ROPT   =    0.00000   0.00000   0.00000
 Ionic relaxation
   EDIFFG = 0.1E-05   stopping-criterion for IOM
   NSW    =      0    number of steps for IOM
   NBLOCK =      1;   KBLOCK =      1    inner block; outer block 
   IBRION =     -1    ionic relax: 0-MD 1-quasi-New 2-CG
   NFREE  =      0    steps in history (QN), initial steepest desc. (CG)
   ISIF   =      0    stress and relaxation
   IWAVPR =     10    prediction:  0-non 1-charg 2-wave 3-comb
   ISYM   =      2    0-nonsym 1-usesym 2-fastsym
   LCORR  =      T    Harris-Foulkes like correction to forces

   POTIM  = 0.5000    time-step for ionic-motion
   TEIN   =    0.0    initial temperature
   TEBEG  =    0.0;   TEEND  =   0.0 temperature during run
   SMASS  =  -3.00    Nose mass-parameter (am)
   estimated Nose-frequenzy (Omega)   =  0.10E-29 period in steps = 0.13E+47 mass=  -0.111E-25a.u.
   SCALEE = 1.0000    scale energy and forces
   NPACO  =    256;   APACO  = 10.0  distance and # of slots for P.C.
   PSTRESS=    0.0 pullay stress

  Mass of Ions in am
   POMASS =  12.01  1.00 14.00
  Ionic Valenz
   ZVAL   =   4.00  1.00  5.00
  Atomic Wigner-Seitz radii
   RWIGS  =  -1.00 -1.00 -1.00
  virtual crystal weights 
   VCA    =   1.00  1.00  1.00
   NELECT =      16.0000    total number of electrons
   NUPDOWN=      -1.0000    fix difference up-down

 DOS related values:
   EMIN   =  10.00;   EMAX   =-10.00  energy-range for DOS
   EFERMI =   0.00;   METHOD = LEGACY      
   ISMEAR =     0;   SIGMA  =   0.01  broadening in eV -4-tet -1-fermi 0-gaus

 Electronic relaxation 2 (details)
   IALGO  =     58    algorithm
   LDIAG  =      T    sub-space diagonalisation (order eigenvalues)
   LSUBROT=      F    optimize rotation matrix (better conditioning)
   TURBO    =      0    0=normal 1=particle mesh
   IRESTART =      0    0=no restart 2=restart with 2 vectors
   NREBOOT  =      0    no. of reboots
   NMIN     =      0    reboot dimension
   EREF     =   0.00    reference energy to select bands
   IMIX   =      4    mixing-type and parameters
     AMIX     =   0.40;   BMIX     =  1.00
     AMIX_MAG =   1.60;   BMIX_MAG =  1.00
     AMIN     =   0.10
     WC   =   100.;   INIMIX=   1;  MIXPRE=   1;  MAXMIX= -45

 Intra band minimization:
   WEIMIN = 0.0000     energy-eigenvalue tresh-hold
   EBREAK =  0.20E-09  absolut break condition
   DEPER  =   0.30     relativ break condition  

   TIME   =   0.40     timestep for ELM

  volume/ion in A,a.u.               =    2129.60     14371.25
  Fermi-wavevector in a.u.,A,eV,Ry     =   0.187510  0.354343  0.478383  0.035160
  Thomas-Fermi vector in A             =   0.923351

 Write flags
   LWAVE        =      F    write WAVECAR
   LDOWNSAMPLE  =      F    k-point downsampling of WAVECAR
   LCHARG       =      F    write CHGCAR
   LVTOT        =      F    write LOCPOT, total local potential
   LVHAR        =      F    write LOCPOT, Hartree potential only
   LELF         =      F    write electronic localiz. function (ELF)
   LORBIT       =      0    0 simple, 1 ext, 2 COOP (PROOUT), +10 PAW based schemes


 Dipole corrections
   LMONO  =      F    monopole corrections only (constant potential shift)
   LDIPOL =      F    correct potential (dipole corrections)
   IDIPOL =      0    1-x, 2-y, 3-z, 4-all directions 
   EPSILON=  1.0000000 bulk dielectric constant

 Exchange correlation treatment:
   GGA     =    RP    GGA type
   LEXCH   =     9    internal setting for exchange type
   LIBXC   =     F    Libxc                    
   VOSKOWN =     0    Vosko Wilk Nusair interpolation
   LHFCALC =     F    Hartree Fock is set to
   LHFONE  =     F    Hartree Fock one center treatment
   AEXX    =    0.0000 exact exchange contribution

 Linear response parameters
   LEPSILON=     F    determine dielectric tensor
   LRPA    =     F    only Hartree local field effects (RPA)
   LNABLA  =     F    use nabla operator in PAW spheres
   LVEL    =     F    velocity operator in full k-point grid
   CSHIFT  =0.1000    complex shift for real part using Kramers Kronig
   OMEGAMAX=  -1.0    maximum frequency
   DEG_THRESHOLD= 0.2000000E-02 threshold for treating states as degnerate
   RTIME   =   -0.100 relaxation time in fs
  (WPLASMAI=    0.000 imaginary part of plasma frequency in eV, 0.658/RTIME)
   DFIELD  = 0.0000000 0.0000000 0.0000000 field for delta impulse in time

  Optional k-point grid parameters
   LKPOINTS_OPT  =     F    use optional k-point grid
   KPOINTS_OPT_MODE=     1    mode for optional k-point grid

 Orbital magnetization related:
   ORBITALMAG=     F  switch on orbital magnetization
   LCHIMAG   =     F  perturbation theory with respect to B field
   DQ        =  0.001000  dq finite difference perturbation B field
   LLRAUG    =     F  two centre corrections for induced B field
   LBONE     =     F  B-component reconstruction in AE one-centre
   LVGVCALC  =     T  calculate vGv susceptibility
   LVGVAPPL  =     F  apply vGv susceptibility instead of pGv for G=0

 Random number generation:
   RANDOM_GENERATOR = DEFAULT
   PCG_SEED         = not used


--------------------------------------------------------------------------------------------------------


 Static calculation
 charge density and potential will be updated during run
 non-spin polarized calculation
 Conjugate gradient for all bands (Freysoldt, et al. PRB 79, 241103 (2009))
 preconditioned conjugated gradient                                        
 perform sub-space diagonalisation
    before iterative eigenvector-optimisation
 modified Broyden-mixing scheme, WC =      100.0
 initial mixing is a Kerker type mixing with AMIX =  0.4000 and BMIX =      1.0000
 Hartree-type preconditioning will be used
 using additional bands          120
 reciprocal scheme for non local part
 use partial core corrections
 no Harris-corrections to forces 
 use gradient corrections 
 use of overlap-Matrix (Vanderbilt PP)
 Gauss-broadening in eV      SIGMA  =   0.01


--------------------------------------------------------------------------------------------------------


  energy-cutoff  :     1000.00
  volume of cell :    10648.00
      direct lattice vectors                 reciprocal lattice vectors
    22.000000000  0.000000000  0.000000000     0.045454545  0.000000000  0.000000000
     0.000000000 22.000000000  0.000000000     0.000000000  0.045454545  0.000000000
     0.000000000  0.000000000 22.000000000     0.000000000  0.000000000  0.045454545

  length of vectors
    22.000000000 22.000000000 22.000000000     0.045454545  0.045454545  0.045454545



 k-points in units of 2pi/SCALE and weight: auto                                    
   0.00000000  0.00000000  0.00000000       1.000

 k-points in reciprocal lattice and weights: auto                                    
   0.00000000  0.00000000  0.00000000       1.000

 position of ions in fractional coordinates (direct lattice) 
   0.49274114  0.48287636  0.52081727
   0.47605068  0.48558000  0.43141455
   0.52394932  0.53996182  0.45739000
   0.48863477  0.51186591  0.46721045
   0.49405659  0.46003818  0.56858545

 position of ions in cartesian coordinates  (Angst):
  10.84030500 10.62328000 11.45798000
  10.47311500 10.68276000  9.49112000
  11.52688500 11.87916000 10.06258000
  10.74996500 11.26105000 10.27863000
  10.86924500 10.12084000 12.50888000



--------------------------------------------------------------------------------------------------------


 use parallel FFT for orbitals z direction half grid
 k-point   1 :   0.0000 0.0000 0.0000  plane waves:  381993

 maximum and minimum number of plane-waves per node :    191003   190990

 maximum number of plane-waves:    381993
 maximum index in each direction: 
   IXMAX=   56   IYMAX=   56   IZMAX=   56
   IXMIN=  -56   IYMIN=  -56   IZMIN=    0


 parallel 3D FFT for wavefunctions:
    minimum data exchange during FFTs selected (reduces bandwidth)
 parallel 3D FFT for charge:
    minimum data exchange during FFTs selected (reduces bandwidth)


 total amount of memory used by VASP MPI-rank0   556778. kBytes
=======================================================================

   base      :      30000. kBytes
   nonl-proj :      51980. kBytes
   fftplans  :     159096. kBytes
   grid      :     306524. kBytes
   one-center:          4. kBytes
   wavefun   :       9174. kBytes

     INWAV:  cpu time      0.0001: real time      0.0001
 Broyden mixing: mesh for mixing (old mesh)
   NGX =113   NGY =113   NGZ =113
  (NGX  =480   NGY  =480   NGZ  =480)
  gives a total of ****** points

 initial charge density was supplied:
 charge density of overlapping atoms calculated
 number of electron      16.0000000 magnetization 
 keeping initial charge density in first step


--------------------------------------------------------------------------------------------------------


 Maximum index for augmentation-charges          216 (set IRDMAX)


--------------------------------------------------------------------------------------------------------


 First call to EWALD:  gamma=   0.081
 Maximum number of real-space cells 3x 3x 3
 Maximum number of reciprocal cells 3x 3x 3

    FEWALD:  cpu time      0.0033: real time      0.0034


--------------------------------------- Ionic step        1  -------------------------------------------




--------------------------------------- Iteration      1(   1)  ---------------------------------------


    POTLOK:  cpu time      1.1213: real time      1.1238
    SETDIJ:  cpu time      0.0087: real time      0.0093
    TRIAL :  cpu time      3.9829: real time      3.9889
    CORREC:  cpu time      0.0018: real time      0.0018
    --------------------------------------------
      LOOP:  cpu time      5.1281: real time      5.1374

 eigenvalue-minimisations  :   256
 total energy-change (2. order) : 0.1871855E+03  (-0.5741202E+03)
 number of electron      16.0000000 magnetization 
 augmentation part       16.0000000 magnetization 

 Free energy of the ion-electron system (eV)
  ---------------------------------------------------
  alpha Z        PSCENC =         0.07253111
  Ewald energy   TEWEN  =       622.82150315
  -Hartree energ DENC   =     -1130.17152709
  -exchange      EXHF   =         0.00000000
  -V(xc)+E(xc)   XCENC  =        43.25181795
  PAW double counting   =       531.44796435     -523.19722753
  entropy T*S    EENTRO =        -0.00000000
  eigenvalues    EBANDS =       -58.46251303
  atomic energy  EATOM  =       701.42297353
  ---------------------------------------------------
  free energy    TOTEN  =       187.18552244 eV

  energy without entropy =      187.18552244  energy(sigma->0) =      187.18552244


--------------------------------------------------------------------------------------------------------




--------------------------------------- Iteration      1(   2)  ---------------------------------------


    TRIAL :  cpu time      7.3069: real time      7.3125
    CORREC:  cpu time      0.0001: real time      0.0001
    --------------------------------------------
      LOOP:  cpu time      7.3220: real time      7.3426

 eigenvalue-minimisations  :   512
 total energy-change (2. order) :-0.2128312E+03  (-0.2128312E+03)
 number of electron      16.0000000 magnetization 
 augmentation part       16.0000000 magnetization 

 Free energy of the ion-electron system (eV)
  ---------------------------------------------------
  alpha Z        PSCENC =         0.07253111
  Ewald energy   TEWEN  =       622.82150315
  -Hartree energ DENC   =     -1130.17152709
  -exchange      EXHF   =         0.00000000
  -V(xc)+E(xc)   XCENC  =        43.25181795
  PAW double counting   =       531.44796435     -523.19722753
  entropy T*S    EENTRO =        -0.00000000
  eigenvalues    EBANDS =      -271.29371796
  atomic energy  EATOM  =       701.42297353
  ---------------------------------------------------
  free energy    TOTEN  =       -25.64568249 eV

  energy without entropy =      -25.64568249  energy(sigma->0) =      -25.64568249


--------------------------------------------------------------------------------------------------------




--------------------------------------- Iteration      1(   3)  ---------------------------------------


    TRIAL :  cpu time      3.9438: real time      3.9459
    CORREC:  cpu time      0.0001: real time      0.0001
    --------------------------------------------
      LOOP:  cpu time      3.9598: real time      3.9761

 eigenvalue-minimisations  :   256
 total energy-change (2. order) :-0.9489768E+01  (-0.9489768E+01)
 number of electron      16.0000000 magnetization 
 augmentation part       16.0000000 magnetization 

 Free energy of the ion-electron system (eV)
  ---------------------------------------------------
  alpha Z        PSCENC =         0.07253111
  Ewald energy   TEWEN  =       622.82150315
  -Hartree energ DENC   =     -1130.17152709
  -exchange      EXHF   =         0.00000000
  -V(xc)+E(xc)   XCENC  =        43.25181795
  PAW double counting   =       531.44796435     -523.19722753
  entropy T*S    EENTRO =        -0.00000000
  eigenvalues    EBANDS =      -280.78348612
  atomic energy  EATOM  =       701.42297353
  ---------------------------------------------------
  free energy    TOTEN  =       -35.13545064 eV

  energy without entropy =      -35.13545064  energy(sigma->0) =      -35.13545064


--------------------------------------------------------------------------------------------------------




--------------------------------------- Iteration      1(   4)  ---------------------------------------


    TRIAL :  cpu time      3.9411: real time      3.9432
    CORREC:  cpu time      0.0002: real time      0.0002
    --------------------------------------------
      LOOP:  cpu time      3.9715: real time      3.9739

 eigenvalue-minimisations  :   256
 total energy-change (2. order) :-0.1087157E+00  (-0.1087157E+00)
 number of electron      16.0000000 magnetization 
 augmentation part       16.0000000 magnetization 

 Free energy of the ion-electron system (eV)
  ---------------------------------------------------
  alpha Z        PSCENC =         0.07253111
  Ewald energy   TEWEN  =       622.82150315
  -Hartree energ DENC   =     -1130.17152709
  -exchange      EXHF   =         0.00000000
  -V(xc)+E(xc)   XCENC  =        43.25181795
  PAW double counting   =       531.44796435     -523.19722753
  entropy T*S    EENTRO =        -0.00000000
  eigenvalues    EBANDS =      -280.89220177
  atomic energy  EATOM  =       701.42297353
  ---------------------------------------------------
  free energy    TOTEN  =       -35.24416630 eV

  energy without entropy =      -35.24416630  energy(sigma->0) =      -35.24416630


--------------------------------------------------------------------------------------------------------




--------------------------------------- Iteration      1(   5)  ---------------------------------------


    TRIAL :  cpu time      7.2532: real time      7.2570
    CORREC:  cpu time      0.0002: real time      0.0002
    CHARGE:  cpu time      1.4279: real time      1.4301
    --------------------------------------------
      LOOP:  cpu time      8.6960: real time      8.7173

 eigenvalue-minimisations  :   512
 total energy-change (2. order) :-0.1244607E-02  (-0.1244609E-02)
 number of electron      16.0000000 magnetization 
 augmentation part       -0.0438036 magnetization 

 Free energy of the ion-electron system (eV)
  ---------------------------------------------------
  alpha Z        PSCENC =         0.07253111
  Ewald energy   TEWEN  =       622.82150315
  -Hartree energ DENC   =     -1130.17152709
  -exchange      EXHF   =         0.00000000
  -V(xc)+E(xc)   XCENC  =        43.25181795
  PAW double counting   =       531.44796435     -523.19722753
  entropy T*S    EENTRO =        -0.00000000
  eigenvalues    EBANDS =      -280.89344638
  atomic energy  EATOM  =       701.42297353
  ---------------------------------------------------
  free energy    TOTEN  =       -35.24541090 eV

  energy without entropy =      -35.24541090  energy(sigma->0) =      -35.24541090


--------------------------------------------------------------------------------------------------------




--------------------------------------- Iteration      1(   6)  ---------------------------------------


    POTLOK:  cpu time      0.7376: real time      0.7384
    SETDIJ:  cpu time      0.0016: real time      0.0016
    TRIAL :  cpu time      2.4114: real time      2.4158
    CORREC:  cpu time      2.8052: real time      2.8066
    CHARGE:  cpu time      1.3986: real time      1.4004
    --------------------------------------------
      LOOP:  cpu time      7.3672: real time      7.3918

 eigenvalue-minimisations  :     0
 total energy-change (2. order) : 0.8265623E+01  (-0.3628007E+01)
 number of electron      16.0000000 magnetization 
 augmentation part       -0.0638894 magnetization 

 Free energy of the ion-electron system (eV)
  ---------------------------------------------------
  alpha Z        PSCENC =         0.07253111
  Ewald energy   TEWEN  =       622.82150315
  -Hartree energ DENC   =     -1255.30571982
  -exchange      EXHF   =         0.00000000
  -V(xc)+E(xc)   XCENC  =        49.56751362
  PAW double counting   =      6238.76332838    -6231.06484073
  entropy T*S    EENTRO =        -0.00000000
  eigenvalues    EBANDS =      -153.25707731
  atomic energy  EATOM  =       701.42297353
  ---------------------------------------------------
  free energy    TOTEN  =       -26.97978807 eV

  energy without entropy =      -26.97978807  energy(sigma->0) =      -26.97978807


--------------------------------------------------------------------------------------------------------




--------------------------------------- Iteration      1(   7)  ---------------------------------------


    POTLOK:  cpu time      0.7492: real time      0.7492
    SETDIJ:  cpu time      0.0016: real time      0.0016
    TRIAL :  cpu time      2.3416: real time      2.3433
    CORREC:  cpu time      2.8120: real time      2.8128
    CHARGE:  cpu time      1.4030: real time      1.4032
    --------------------------------------------
      LOOP:  cpu time      7.3371: real time      7.3401

 eigenvalue-minimisations  :     0
 total energy-change (2. order) :-0.3636043E+01  (-0.4790595E+00)
 number of electron      16.0000000 magnetization 
 augmentation part       -0.0745045 magnetization 

 Free energy of the ion-electron system (eV)
  ---------------------------------------------------
  alpha Z        PSCENC =         0.07253111
  Ewald energy   TEWEN  =       622.82150315
  -Hartree energ DENC   =     -1199.52298741
  -exchange      EXHF   =         0.00000000
  -V(xc)+E(xc)   XCENC  =        46.75475552
  PAW double counting   =      8157.44604513    -8149.48279302
  entropy T*S    EENTRO =        -0.00000000
  eigenvalues    EBANDS =      -210.12785857
  atomic energy  EATOM  =       701.42297353
  ---------------------------------------------------
  free energy    TOTEN  =       -30.61583057 eV

  energy without entropy =      -30.61583057  energy(sigma->0) =      -30.61583057


--------------------------------------------------------------------------------------------------------




--------------------------------------- Iteration      1(   8)  ---------------------------------------


    POTLOK:  cpu time      0.7513: real time      0.7520
    SETDIJ:  cpu time      0.0016: real time      0.0016
    TRIAL :  cpu time      2.3480: real time      2.3494
    CORREC:  cpu time      2.7962: real time      2.7973
    CHARGE:  cpu time      1.4129: real time      1.4134
    --------------------------------------------
      LOOP:  cpu time      7.3398: real time      7.3436

 eigenvalue-minimisations  :     0
 total energy-change (2. order) :-0.4802254E+00  (-0.2163020E+00)
 number of electron      16.0000000 magnetization 
 augmentation part       -0.0740153 magnetization 

 Free energy of the ion-electron system (eV)
  ---------------------------------------------------
  alpha Z        PSCENC =         0.07253111
  Ewald energy   TEWEN  =       622.82150315
  -Hartree energ DENC   =     -1198.80360258
  -exchange      EXHF   =         0.00000000
  -V(xc)+E(xc)   XCENC  =        46.69744445
  PAW double counting   =      8522.47794696    -8514.47537126
  entropy T*S    EENTRO =        -0.00000000
  eigenvalues    EBANDS =      -211.30948132
  atomic energy  EATOM  =       701.42297353
  ---------------------------------------------------
  free energy    TOTEN  =       -31.09605597 eV

  energy without entropy =      -31.09605597  energy(sigma->0) =      -31.09605597


--------------------------------------------------------------------------------------------------------




--------------------------------------- Iteration      1(   9)  ---------------------------------------


    POTLOK:  cpu time      0.7597: real time      0.7600
    SETDIJ:  cpu time      0.0016: real time      0.0016
    TRIAL :  cpu time      2.3420: real time      2.3432
    CORREC:  cpu time      2.8318: real time      2.8329
    CHARGE:  cpu time      1.3898: real time      1.3905
    --------------------------------------------
      LOOP:  cpu time      7.3428: real time      7.3580

 eigenvalue-minimisations  :     0
 total energy-change (2. order) :-0.2142175E+00  (-0.7562908E-01)
 number of electron      16.0000000 magnetization 
 augmentation part       -0.0719636 magnetization 

 Free energy of the ion-electron system (eV)
  ---------------------------------------------------
  alpha Z        PSCENC =         0.07253111
  Ewald energy   TEWEN  =       622.82150315
  -Hartree energ DENC   =     -1196.50105209
  -exchange      EXHF   =         0.00000000
  -V(xc)+E(xc)   XCENC  =        46.58623357
  PAW double counting   =      8572.65192691    -8564.63740454
  entropy T*S    EENTRO =        -0.00000000
  eigenvalues    EBANDS =      -213.72698507
  atomic energy  EATOM  =       701.42297353
  ---------------------------------------------------
  free energy    TOTEN  =       -31.31027343 eV

  energy without entropy =      -31.31027343  energy(sigma->0) =      -31.31027343


--------------------------------------------------------------------------------------------------------




--------------------------------------- Iteration      1(  10)  ---------------------------------------


    POTLOK:  cpu time      0.7677: real time      0.7677
    SETDIJ:  cpu time      0.0016: real time      0.0016
    TRIAL :  cpu time      2.3433: real time      2.3453
    CORREC:  cpu time      2.8342: real time      2.8357
    CHARGE:  cpu time      1.3977: real time      1.3980
    --------------------------------------------
      LOOP:  cpu time      7.3744: real time      7.3785

 eigenvalue-minimisations  :     0
 total energy-change (2. order) :-0.7476829E-01  (-0.2551122E-01)
 number of electron      16.0000000 magnetization 
 augmentation part       -0.0713151 magnetization 

 Free energy of the ion-electron system (eV)
  ---------------------------------------------------
  alpha Z        PSCENC =         0.07253111
  Ewald energy   TEWEN  =       622.82150315
  -Hartree energ DENC   =     -1194.66955600
  -exchange      EXHF   =         0.00000000
  -V(xc)+E(xc)   XCENC  =        46.49597810
  PAW double counting   =      8260.25424560    -8252.24646569
  entropy T*S    EENTRO =        -0.00000000
  eigenvalues    EBANDS =      -215.53625152
  atomic energy  EATOM  =       701.42297353
  ---------------------------------------------------
  free energy    TOTEN  =       -31.38504173 eV

  energy without entropy =      -31.38504173  energy(sigma->0) =      -31.38504173


--------------------------------------------------------------------------------------------------------




--------------------------------------- Iteration      1(  11)  ---------------------------------------


    POTLOK:  cpu time      0.7741: real time      0.7747
    SETDIJ:  cpu time      0.0017: real time      0.0017
    TRIAL :  cpu time      2.3419: real time      2.3433
    CORREC:  cpu time      2.8063: real time      2.8074
    CHARGE:  cpu time      1.3830: real time      1.3834
    --------------------------------------------
      LOOP:  cpu time      7.3274: real time      7.3409

 eigenvalue-minimisations  :     0
 total energy-change (2. order) :-0.2539961E-01  (-0.7676151E-02)
 number of electron      16.0000000 magnetization 
 augmentation part       -0.0714452 magnetization 

 Free energy of the ion-electron system (eV)
  ---------------------------------------------------
  alpha Z        PSCENC =         0.07253111
  Ewald energy   TEWEN  =       622.82150315
  -Hartree energ DENC   =     -1194.03515303
  -exchange      EXHF   =         0.00000000
  -V(xc)+E(xc)   XCENC  =        46.46496866
  PAW double counting   =      8026.65886818    -8018.65870398
  entropy T*S    EENTRO =        -0.00000000
  eigenvalues    EBANDS =      -216.15742896
  atomic energy  EATOM  =       701.42297353
  ---------------------------------------------------
  free energy    TOTEN  =       -31.41044134 eV

  energy without entropy =      -31.41044134  energy(sigma->0) =      -31.41044134


--------------------------------------------------------------------------------------------------------




--------------------------------------- Iteration      1(  12)  ---------------------------------------


    POTLOK:  cpu time      0.7584: real time      0.7589
    SETDIJ:  cpu time      0.0016: real time      0.0016
    TRIAL :  cpu time      2.3405: real time      2.3421
    CORREC:  cpu time      2.7685: real time      2.7692
    CHARGE:  cpu time      1.3921: real time      1.3929
    --------------------------------------------
      LOOP:  cpu time      7.2744: real time      7.2948

 eigenvalue-minimisations  :     0
 total energy-change (2. order) :-0.7671735E-02  (-0.2008804E-02)
 number of electron      16.0000000 magnetization 
 augmentation part       -0.0718244 magnetization 

 Free energy of the ion-electron system (eV)
  ---------------------------------------------------
  alpha Z        PSCENC =         0.07253111
  Ewald energy   TEWEN  =       622.82150315
  -Hartree energ DENC   =     -1193.40119976
  -exchange      EXHF   =         0.00000000
  -V(xc)+E(xc)   XCENC  =        46.43359850
  PAW double counting   =      7975.22417966    -7967.22498001
  entropy T*S    EENTRO =        -0.00000000
  eigenvalues    EBANDS =      -216.76671925
  atomic energy  EATOM  =       701.42297353
  ---------------------------------------------------
  free energy    TOTEN  =       -31.41811307 eV

  energy without entropy =      -31.41811307  energy(sigma->0) =      -31.41811307


--------------------------------------------------------------------------------------------------------




--------------------------------------- Iteration      1(  13)  ---------------------------------------


    POTLOK:  cpu time      0.7434: real time      0.7435
    SETDIJ:  cpu time      0.0016: real time      0.0016
    TRIAL :  cpu time      2.3424: real time      2.3446
    CORREC:  cpu time      2.7742: real time      2.7757
    CHARGE:  cpu time      1.3786: real time      1.3789
    --------------------------------------------
      LOOP:  cpu time      7.2531: real time      7.2733

 eigenvalue-minimisations  :     0
 total energy-change (2. order) :-0.2007634E-02  (-0.5597209E-03)
 number of electron      16.0000000 magnetization 
 augmentation part       -0.0720515 magnetization 

 Free energy of the ion-electron system (eV)
  ---------------------------------------------------
  alpha Z        PSCENC =         0.07253111
  Ewald energy   TEWEN  =       622.82150315
  -Hartree energ DENC   =     -1193.25987661
  -exchange      EXHF   =         0.00000000
  -V(xc)+E(xc)   XCENC  =        46.42730004
  PAW double counting   =      7990.25444682    -7982.25465173
  entropy T*S    EENTRO =        -0.00000000
  eigenvalues    EBANDS =      -216.90434701
  atomic energy  EATOM  =       701.42297353
  ---------------------------------------------------
  free energy    TOTEN  =       -31.42012070 eV

  energy without entropy =      -31.42012070  energy(sigma->0) =      -31.42012070


--------------------------------------------------------------------------------------------------------




--------------------------------------- Iteration      1(  14)  ---------------------------------------


    POTLOK:  cpu time      0.7342: real time      0.7348
    SETDIJ:  cpu time      0.0016: real time      0.0016
    TRIAL :  cpu time      2.3396: real time      2.3409
    CORREC:  cpu time      2.7798: real time      2.7810
    CHARGE:  cpu time      1.3958: real time      1.3962
    --------------------------------------------
      LOOP:  cpu time      7.2674: real time      7.2843

 eigenvalue-minimisations  :     0
 total energy-change (2. order) :-0.5587248E-03  (-0.1797325E-03)
 number of electron      16.0000000 magnetization 
 augmentation part       -0.0721657 magnetization 

 Free energy of the ion-electron system (eV)
  ---------------------------------------------------
  alpha Z        PSCENC =         0.07253111
  Ewald energy   TEWEN  =       622.82150315
  -Hartree energ DENC   =     -1193.33075258
  -exchange      EXHF   =         0.00000000
  -V(xc)+E(xc)   XCENC  =        46.43159571
  PAW double counting   =      8007.85658454    -7999.85656553
  entropy T*S    EENTRO =        -0.00000000
  eigenvalues    EBANDS =      -216.83854935
  atomic energy  EATOM  =       701.42297353
  ---------------------------------------------------
  free energy    TOTEN  =       -31.42067943 eV

  energy without entropy =      -31.42067943  energy(sigma->0) =      -31.42067943


--------------------------------------------------------------------------------------------------------




--------------------------------------- Iteration      1(  15)  ---------------------------------------


    POTLOK:  cpu time      0.7246: real time      0.7249
    SETDIJ:  cpu time      0.0015: real time      0.0015
    TRIAL :  cpu time      2.3439: real time      2.3453
    CORREC:  cpu time      2.7734: real time      2.7748
    CHARGE:  cpu time      1.4002: real time      1.4011
    --------------------------------------------
      LOOP:  cpu time      7.2739: real time      7.2783

 eigenvalue-minimisations  :     0
 total energy-change (2. order) :-0.1789675E-03  (-0.5953303E-04)
 number of electron      16.0000000 magnetization 
 augmentation part       -0.0721886 magnetization 

 Free energy of the ion-electron system (eV)
  ---------------------------------------------------
  alpha Z        PSCENC =         0.07253111
  Ewald energy   TEWEN  =       622.82150315
  -Hartree energ DENC   =     -1193.39003080
  -exchange      EXHF   =         0.00000000
  -V(xc)+E(xc)   XCENC  =        46.43422586
  PAW double counting   =      8016.80064183    -8008.80050372
  entropy T*S    EENTRO =        -0.00000000
  eigenvalues    EBANDS =      -216.78219936
  atomic energy  EATOM  =       701.42297353
  ---------------------------------------------------
  free energy    TOTEN  =       -31.42085840 eV

  energy without entropy =      -31.42085840  energy(sigma->0) =      -31.42085840


--------------------------------------------------------------------------------------------------------




--------------------------------------- Iteration      1(  16)  ---------------------------------------


    POTLOK:  cpu time      0.7186: real time      0.7186
    SETDIJ:  cpu time      0.0016: real time      0.0016
    TRIAL :  cpu time      2.3421: real time      2.3441
    CORREC:  cpu time      2.7539: real time      2.7549
    CHARGE:  cpu time      1.3859: real time      1.3866
    --------------------------------------------
      LOOP:  cpu time      7.2205: real time      7.2370

 eigenvalue-minimisations  :     0
 total energy-change (2. order) :-0.5938183E-04  (-0.1826173E-04)
 number of electron      16.0000000 magnetization 
 augmentation part       -0.0721646 magnetization 

 Free energy of the ion-electron system (eV)
  ---------------------------------------------------
  alpha Z        PSCENC =         0.07253111
  Ewald energy   TEWEN  =       622.82150315
  -Hartree energ DENC   =     -1193.42891969
  -exchange      EXHF   =         0.00000000
  -V(xc)+E(xc)   XCENC  =        46.43593659
  PAW double counting   =      8018.58983383    -8010.58971172
  entropy T*S    EENTRO =        -0.00000000
  eigenvalues    EBANDS =      -216.74506457
  atomic energy  EATOM  =       701.42297353
  ---------------------------------------------------
  free energy    TOTEN  =       -31.42091778 eV

  energy without entropy =      -31.42091778  energy(sigma->0) =      -31.42091778


--------------------------------------------------------------------------------------------------------




--------------------------------------- Iteration      1(  17)  ---------------------------------------


    POTLOK:  cpu time      0.7190: real time      0.7190
    SETDIJ:  cpu time      0.0013: real time      0.0018
    TRIAL :  cpu time      2.3401: real time      2.3420
    CORREC:  cpu time      2.7779: real time      2.7796
    CHARGE:  cpu time      1.3895: real time      1.3899
    --------------------------------------------
      LOOP:  cpu time      7.2411: real time      7.2621

 eigenvalue-minimisations  :     0
 total energy-change (2. order) :-0.1835214E-04  (-0.5085242E-05)
 number of electron      16.0000000 magnetization 
 augmentation part       -0.0721452 magnetization 

 Free energy of the ion-electron system (eV)
  ---------------------------------------------------
  alpha Z        PSCENC =         0.07253111
  Ewald energy   TEWEN  =       622.82150315
  -Hartree energ DENC   =     -1193.45530000
  -exchange      EXHF   =         0.00000000
  -V(xc)+E(xc)   XCENC  =        46.43717954
  PAW double counting   =      8018.26606793    -8010.26600661
  entropy T*S    EENTRO =        -0.00000000
  eigenvalues    EBANDS =      -216.71988477
  atomic energy  EATOM  =       701.42297353
  ---------------------------------------------------
  free energy    TOTEN  =       -31.42093613 eV

  energy without entropy =      -31.42093613  energy(sigma->0) =      -31.42093613


--------------------------------------------------------------------------------------------------------




--------------------------------------- Iteration      1(  18)  ---------------------------------------


    POTLOK:  cpu time      0.7221: real time      0.7225
    SETDIJ:  cpu time      0.0023: real time      0.0023
    TRIAL :  cpu time      2.3428: real time      2.3443
    CORREC:  cpu time      2.7753: real time      2.7765
    CHARGE:  cpu time      1.4127: real time      1.4131
    --------------------------------------------
      LOOP:  cpu time      7.2852: real time      7.2889

 eigenvalue-minimisations  :     0
 total energy-change (2. order) :-0.5163567E-05  (-0.1388770E-05)
 number of electron      16.0000000 magnetization 
 augmentation part       -0.0721365 magnetization 

 Free energy of the ion-electron system (eV)
  ---------------------------------------------------
  alpha Z        PSCENC =         0.07253111
  Ewald energy   TEWEN  =       622.82150315
  -Hartree energ DENC   =     -1193.46272983
  -exchange      EXHF   =         0.00000000
  -V(xc)+E(xc)   XCENC  =        46.43756809
  PAW double counting   =      8018.47031621    -8010.47026450
  entropy T*S    EENTRO =        -0.00000000
  eigenvalues    EBANDS =      -216.71283906
  atomic energy  EATOM  =       701.42297353
  ---------------------------------------------------
  free energy    TOTEN  =       -31.42094129 eV

  energy without entropy =      -31.42094129  energy(sigma->0) =      -31.42094129


--------------------------------------------------------------------------------------------------------




--------------------------------------- Iteration      1(  19)  ---------------------------------------


    POTLOK:  cpu time      0.7118: real time      0.7122
    SETDIJ:  cpu time      0.0016: real time      0.0016
    TRIAL :  cpu time      2.3436: real time      2.3449
    CORREC:  cpu time      2.7482: real time      2.7495
    CHARGE:  cpu time      1.3977: real time      1.3984
    --------------------------------------------
      LOOP:  cpu time      7.2187: real time      7.2402

 eigenvalue-minimisations  :     0
 total energy-change (2. order) :-0.1424070E-05  (-0.3736639E-06)
 number of electron      16.0000000 magnetization 
 augmentation part       -0.0721321 magnetization 

 Free energy of the ion-electron system (eV)
  ---------------------------------------------------
  alpha Z        PSCENC =         0.07253111
  Ewald energy   TEWEN  =       622.82150315
  -Hartree energ DENC   =     -1193.46301906
  -exchange      EXHF   =         0.00000000
  -V(xc)+E(xc)   XCENC  =        46.43761400
  PAW double counting   =      8018.99557519    -8010.99551378
  entropy T*S    EENTRO =        -0.00000000
  eigenvalues    EBANDS =      -216.71260686
  atomic energy  EATOM  =       701.42297353
  ---------------------------------------------------
  free energy    TOTEN  =       -31.42094272 eV

  energy without entropy =      -31.42094272  energy(sigma->0) =      -31.42094272


--------------------------------------------------------------------------------------------------------




--------------------------------------- Iteration      1(  20)  ---------------------------------------


    POTLOK:  cpu time      0.7112: real time      0.7113
    SETDIJ:  cpu time      0.0016: real time      0.0016
    TRIAL :  cpu time      2.3429: real time      2.3446
    CORREC:  cpu time      2.7664: real time      2.7671
    CHARGE:  cpu time      1.3961: real time      1.3969
    --------------------------------------------
      LOOP:  cpu time      7.2346: real time      7.2506

 eigenvalue-minimisations  :     0
 total energy-change (2. order) :-0.3868281E-06  (-0.1003195E-06)
 number of electron      16.0000000 magnetization 
 augmentation part       -0.0721299 magnetization 

 Free energy of the ion-electron system (eV)
  ---------------------------------------------------
  alpha Z        PSCENC =         0.07253111
  Ewald energy   TEWEN  =       622.82150315
  -Hartree energ DENC   =     -1193.46291111
  -exchange      EXHF   =         0.00000000
  -V(xc)+E(xc)   XCENC  =        46.43763277
  PAW double counting   =      8019.37102308    -8011.37095951
  entropy T*S    EENTRO =        -0.00000000
  eigenvalues    EBANDS =      -216.71273611
  atomic energy  EATOM  =       701.42297353
  ---------------------------------------------------
  free energy    TOTEN  =       -31.42094310 eV

  energy without entropy =      -31.42094310  energy(sigma->0) =      -31.42094310


--------------------------------------------------------------------------------------------------------




--------------------------------------- Iteration      1(  21)  ---------------------------------------


    POTLOK:  cpu time      0.7153: real time      0.7157
    SETDIJ:  cpu time      0.0016: real time      0.0016
    TRIAL :  cpu time      2.3434: real time      2.3450
    CORREC:  cpu time      2.7787: real time      2.7801
    CHARGE:  cpu time      1.3986: real time      1.3988
    --------------------------------------------
      LOOP:  cpu time      7.2508: real time      7.2704

 eigenvalue-minimisations  :     0
 total energy-change (2. order) :-0.1052340E-06  (-0.2677985E-07)
 number of electron      16.0000000 magnetization 
 augmentation part       -0.0721289 magnetization 

 Free energy of the ion-electron system (eV)
  ---------------------------------------------------
  alpha Z        PSCENC =         0.07253111
  Ewald energy   TEWEN  =       622.82150315
  -Hartree energ DENC   =     -1193.46220523
  -exchange      EXHF   =         0.00000000
  -V(xc)+E(xc)   XCENC  =        46.43760676
  PAW double counting   =      8019.52556094    -8011.52549785
  entropy T*S    EENTRO =        -0.00000000
  eigenvalues    EBANDS =      -216.71341562
  atomic energy  EATOM  =       701.42297353
  ---------------------------------------------------
  free energy    TOTEN  =       -31.42094321 eV

  energy without entropy =      -31.42094321  energy(sigma->0) =      -31.42094321


--------------------------------------------------------------------------------------------------------




--------------------------------------- Iteration      1(  22)  ---------------------------------------


    POTLOK:  cpu time      0.7168: real time      0.7173
    SETDIJ:  cpu time      0.0021: real time      0.0021
    TRIAL :  cpu time      2.3488: real time      2.3498
    CORREC:  cpu time      2.7562: real time      2.7573
    EDDIAG:  cpu time      1.0425: real time      1.0436
    CHARGE:  cpu time      1.3946: real time      1.3950
    --------------------------------------------
      LOOP:  cpu time      8.2733: real time      8.2949

 eigenvalue-minimisations  :     0
 total energy-change (2. order) :-0.2781780E-07  (-0.8315726E-08)
 number of electron      16.0000000 magnetization 
 augmentation part       -0.0721284 magnetization 

 Free energy of the ion-electron system (eV)
  ---------------------------------------------------
  alpha Z        PSCENC =         0.07253111
  Ewald energy   TEWEN  =       622.82150315
  -Hartree energ DENC   =     -1193.46164952
  -exchange      EXHF   =         0.00000000
  -V(xc)+E(xc)   XCENC  =        46.43757901
  PAW double counting   =      8019.54508664    -8011.54502477
  entropy T*S    EENTRO =        -0.00000000
  eigenvalues    EBANDS =      -216.71394239
  atomic energy  EATOM  =       701.42297353
  ---------------------------------------------------
  free energy    TOTEN  =       -31.42094324 eV

  energy without entropy =      -31.42094324  energy(sigma->0) =      -31.42094324


--------------------------------------------------------------------------------------------------------


  average scaling for gradient   1.6171


 average (electrostatic) potential at core
  the test charge radii are     0.5770  0.4325  0.5902
  (the norm of the test charge is              1.0000)
       1 -88.0440       2 -48.4903       3 -48.4863       4-105.5389       5-103.2533



 E-fermi :  -6.5476     XC(G=0):  -0.0987     alpha+bet : -0.0324

 Fermi energy:        -6.5476220685

 k-point     1 :       0.0000    0.0000    0.0000
  band No.  band energies     occupation 
      1     -24.3189      2.00000
      2     -21.9699      2.00000
      3     -15.0790      2.00000
      4     -14.0238      2.00000
      5      -9.8165      2.00000
      6      -8.4309      2.00000
      7      -8.1010      2.00000
      8      -6.6171      2.00000
      9      -1.3691      0.00000
     10      -0.5207      0.00000
     11       0.0352      0.00000
     12       0.1434      0.00000
     13       0.1662      0.00000
     14       0.1941      0.00000
     15       0.3182      0.00000
     16       0.3315      0.00000
     17       0.3882      0.00000
     18       0.4129      0.00000
     19       0.4446      0.00000
     20       0.4599      0.00000
     21       0.5948      0.00000
     22       0.6145      0.00000
     23       0.6188      0.00000
     24       0.6277      0.00000
     25       0.6341      0.00000
     26       0.6405      0.00000
     27       0.6458      0.00000
     28       0.6532      0.00000
     29       0.7319      0.00000
     30       0.7779      0.00000
     31       0.8214      0.00000
     32       0.8361      0.00000
     33       0.8829      0.00000
     34       0.9166      0.00000
     35       0.9206      0.00000
     36       0.9377      0.00000
     37       0.9573      0.00000
     38       1.0478      0.00000
     39       1.0779      0.00000
     40       1.1075      0.00000
     41       1.1321      0.00000
     42       1.1537      0.00000
     43       1.1882      0.00000
     44       1.3078      0.00000
     45       1.3204      0.00000
     46       1.3385      0.00000
     47       1.3503      0.00000
     48       1.4234      0.00000
     49       1.4296      0.00000
     50       1.4427      0.00000
     51       1.4649      0.00000
     52       1.4801      0.00000
     53       1.5346      0.00000
     54       1.5372      0.00000
     55       1.5446      0.00000
     56       1.5489      0.00000
     57       1.5536      0.00000
     58       1.5576      0.00000
     59       1.5642      0.00000
     60       1.5659      0.00000
     61       1.5693      0.00000
     62       1.5724      0.00000
     63       1.5772      0.00000
     64       1.5815      0.00000
     65       1.5879      0.00000
     66       1.5901      0.00000
     67       1.5923      0.00000
     68       1.7046      0.00000
     69       1.7113      0.00000
     70       1.7378      0.00000
     71       1.7431      0.00000
     72       1.7688      0.00000
     73       1.7717      0.00000
     74       1.7768      0.00000
     75       1.8212      0.00000
     76       1.8356      0.00000
     77       1.8429      0.00000
     78       1.8642      0.00000
     79       1.8670      0.00000
     80       1.8699      0.00000
     81       1.8712      0.00000
     82       1.8719      0.00000
     83       1.8767      0.00000
     84       1.8779      0.00000
     85       1.8820      0.00000
     86       1.8852      0.00000
     87       1.8865      0.00000
     88       1.8891      0.00000
     89       1.8904      0.00000
     90       1.8930      0.00000
     91       1.8987      0.00000
     92       2.1420      0.00000
     93       2.1942      0.00000
     94       2.2441      0.00000
     95       2.3067      0.00000
     96       2.3448      0.00000
     97       2.3929      0.00000
     98       2.4069      0.00000
     99       2.4261      0.00000
    100       2.4327      0.00000
    101       2.4528      0.00000
    102       2.4607      0.00000
    103       2.4667      0.00000
    104       2.5566      0.00000
    105       2.5767      0.00000
    106       2.5844      0.00000
    107       2.5912      0.00000
    108       2.6163      0.00000
    109       2.6679      0.00000
    110       2.6688      0.00000
    111       2.6827      0.00000
    112       2.6878      0.00000
    113       2.7163      0.00000
    114       2.7394      0.00000
    115       2.7479      0.00000
    116       2.7607      0.00000
    117       2.7789      0.00000
    118       2.7811      0.00000
    119       2.7853      0.00000
    120       2.7948      0.00000
    121       2.7983      0.00000
    122       2.8028      0.00000
    123       2.8046      0.00000
    124       2.8082      0.00000
    125       2.8132      0.00000
    126       2.8208      0.00000
    127       2.8225      0.00000
    128       2.9580      0.00000


--------------------------------------------------------------------------------------------------------


 soft charge-density along one line, spin component           1
         0         1         2         3         4         5         6         7         8         9
 total charge-density along one line

 pseudopotential strength for first ion, spin component:           1
 12.821  21.579   0.009  -0.016  -0.002   0.016  -0.029  -0.003
 21.579  36.316   0.015  -0.027  -0.003   0.027  -0.049  -0.005
  0.009   0.015  -3.109   0.001   0.000  -5.575   0.002   0.000
 -0.016  -0.027   0.001  -3.110  -0.000   0.002  -5.578  -0.000
 -0.002  -0.003   0.000  -0.000  -3.108   0.000  -0.000  -5.574
  0.016   0.027  -5.575   0.002   0.000  -9.974   0.004   0.000
 -0.029  -0.049   0.002  -5.578  -0.000   0.004  -9.980  -0.001
 -0.003  -0.005   0.000  -0.000  -5.574   0.000  -0.001  -9.972
 total augmentation occupancy for first ion, spin component:           1
  9.825  -3.725  -0.836   2.038  -0.042   0.360  -0.882   0.021
 -3.725   1.496   0.333  -0.853   0.033  -0.153   0.383  -0.012
 -0.836   0.333   5.815  -3.717  -0.168  -1.934   1.617   0.082
  2.038  -0.853  -3.717  11.421   0.310   1.617  -4.357  -0.138
 -0.042   0.033  -0.168   0.310   3.978   0.082  -0.138  -1.135
  0.360  -0.153  -1.934   1.617   0.082   0.668  -0.686  -0.035
 -0.882   0.383   1.617  -4.357  -0.138  -0.686   1.694   0.060
  0.021  -0.012   0.082  -0.138  -1.135  -0.035   0.060   0.329


------------------------ aborting loop because EDIFF is reached ----------------------------------------


    FORLOC:  cpu time      0.0292: real time      0.0292
    FORNL :  cpu time      0.1446: real time      0.1457
    FORCOR:  cpu time      0.5030: real time      0.5030
    OFIELD:  cpu time      0.0060: real time      0.0064

 ---------------------------------------------------------------------------------------------

         DFTD3 V3.0 Rev 1        
 IVDW         = 11
 DF rpbe      
 parameters
 VDW_S6       =    1.0000
 VDW_S8       =    0.5140
 VDW_SR       =    0.8720
 rs18     =    1.0000
 alpha6   =   14.0000
 alpha8   =   16.0000
 k1-k3    =   16.0000    1.3333   -4.0000
 VDW_RADIUS   =   50.2022 A
 VDW_CNRADIUS =   21.1671 A
 Edisp (eV)   -0.04691

 E6    (eV) :    -0.0417
 E8    (eV) :    -0.0052
 % E8        : 11.07
    FORVDW:  cpu time      0.0732: real time      0.0761

 VOLUME and BASIS-vectors are now :
 -----------------------------------------------------------------------------
  energy-cutoff  :     1000.00
  volume of cell :    10648.00
      direct lattice vectors                 reciprocal lattice vectors
    22.000000000  0.000000000  0.000000000     0.045454545  0.000000000  0.000000000
     0.000000000 22.000000000  0.000000000     0.000000000  0.045454545  0.000000000
     0.000000000  0.000000000 22.000000000     0.000000000  0.000000000  0.045454545

  length of vectors
    22.000000000 22.000000000 22.000000000     0.045454545  0.045454545  0.045454545


 FORCES acting on ions:
    Electron-Ion                     Ewald-Force                    Non-Local-Force
 -----------------------------------------------------------------------------------------------
   -.203E+01 -.123E+02 0.381E+02   0.314E+01 0.634E+01 -.273E+02   -.113E+01 0.647E+01 -.118E+02
   0.236E+02 0.373E+02 0.713E+02   -.257E+02 -.415E+02 -.771E+02   0.217E+01 0.413E+01 0.579E+01
   -.573E+02 -.546E+02 0.275E+02   0.630E+02 0.592E+02 -.291E+02   -.557E+01 -.465E+01 0.158E+01
   0.309E+02 -.823E+02 0.118E+03   -.477E+02 0.988E+02 -.121E+03   0.170E+02 -.166E+02 0.354E+01
   -.644E+01 0.106E+03 -.219E+03   0.733E+01 -.123E+03 0.255E+03   -.872E+00 0.167E+02 -.354E+02
 -----------------------------------------------------------------------------------------------
   -.116E+02 -.610E+01 0.363E+02   -.888E-15 0.000E+00 -.568E-13   0.116E+02 0.610E+01 -.363E+02


 POSITION                                       TOTAL-FORCE (eV/Angst)
 -----------------------------------------------------------------------------------
     10.84030     10.62328     11.45798         0.009598      0.203861     -0.361343
     10.47311     10.68276      9.49112        -0.008816     -0.058002     -0.065841
     11.52689     11.87916     10.06258         0.057917      0.028270     -0.024864
     10.74997     11.26105     10.27863        -0.075183      0.164957     -0.187849
     10.86924     10.12084     12.50888         0.016484     -0.339086      0.639897
 -----------------------------------------------------------------------------------
    total drift:                                0.000183      0.000031     -0.000495


--------------------------------------------------------------------------------------------------------



  FREE ENERGIE OF THE ION-ELECTRON SYSTEM (eV)
  ---------------------------------------------------
  free  energy   TOTEN  =       -31.46785645 eV

  energy  without entropy=      -31.46785645  energy(sigma->0) =      -31.46785645



--------------------------------------------------------------------------------------------------------


    POTLOK:  cpu time      0.7181: real time      0.7190


--------------------------------------------------------------------------------------------------------


 stress matrix after NEB project (eV)
      0.01198      0.01257      0.00609
      0.01257      0.02467     -0.01359
      0.00609     -0.01359      0.04795
  FORCES: max atom, RMS     0.724375    0.394370
  FORCE total and by dimension    0.881839    0.639897
  Stress total and by dimension    0.061734    0.047949
     LOOP+:  cpu time    155.4772: real time    155.8040
    4ORBIT:  cpu time      0.0000: real time      0.0000

 total amount of memory used by VASP MPI-rank0   556778. kBytes
=======================================================================

   base      :      30000. kBytes
   nonl-proj :      51980. kBytes
   fftplans  :     159096. kBytes
   grid      :     306524. kBytes
   one-center:          4. kBytes
   wavefun   :       9174. kBytes

  
  
 General timing and accounting informations for this job:
 ========================================================
  
                  Total CPU time used (sec):      196.661
                            User time (sec):      166.498
                          System time (sec):       30.163
                         Elapsed time (sec):      202.077
  
                   Maximum memory used (kb):      811464.
                   Average memory used (kb):          N/A
  
                          Minor page faults:      1146886
                          Major page faults:         1192
                 Voluntary context switches:         6951
