 vasp.6.4.1 05Apr23 (build Jun  6 2023 14:46:38) gamma-only                      
 executed on        HPECrayEX_GCC date 2024.08.21  09:00:22
 running  256 mpi-ranks, with    1 threads/rank, on    2 nodes
 distrk:  each k-point on  128 cores,    2 groups
 distr:  one band on NCORE=  32 cores,    4 groups


--------------------------------------------------------------------------------------------------------


 INCAR:
   ALGO = Conjugate
   KPAR = 2
   NCORE = 32
   ISMEAR = 0
   SIGMA = 0.01
   PREC = Accurate
   EDIFF = 1E-7
   ENCUT = 1000
   ISIF = 0
   GGA = RE
   IVDW = 11
   LWAVE = .FALSE.
   LCHARG = .FALSE.
   SYMPREC = 1E-7
   LWAVE = .FALSE.
   LCHARG = .FALSE.

 POTCAR:    PAW_PBE C_h 06Feb2004                 
 POTCAR:    PAW_PBE H_h 06Feb2004                 
 POTCAR:    PAW_PBE N_h 06Feb2004                 
 POTCAR:    PAW_PBE C_h 06Feb2004                 
   VRHFIN =C: s2p2                                                                                  
   LEXCH  = PE                                                                                      
   EATOM  =   147.1560 eV,   10.8157 Ry                                                             
                                                                                                    
   TITEL  = PAW_PBE C_h 06Feb2004                                                                   
   LULTRA =        F    use ultrasoft PP ?                                                          
   IUNSCR =        1    unscreen: 0-lin 1-nonlin 2-no                                               
   RPACOR =    0.800    partial core radius                                                         
   POMASS =   12.011; ZVAL   =    4.000    mass and valenz                                          
   RCORE  =    1.100    outmost cutoff radius                                                       
   RWIGS  =    1.630; RWIGS  =    0.863    wigner-seitz radius (au A)                               
   ENMAX  =  700.000; ENMIN  =  500.000 eV                                                          
   ICORE  =        2    local potential                                                             
   LCOR   =        T    correct aug charges                                                         
   LPAW   =        T    paw PP                                                                      
   EAUG   =  946.768                                                                                
   DEXC   =    0.000                                                                                
   RMAX   =    1.128    core radius for proj-oper                                                   
   RAUG   =    1.300    factor for augmentation sphere                                              
   RDEP   =    1.162    radius for radial grids                                                     
   RDEPT  =    1.088    core radius for aug-charge                                                  
                                                                                                    
   Atomic configuration                                                                             
    4 entries                                                                                       
     n  l   j            E        occ.                                                              
     1  0  0.50      -273.3789   2.0000                                                             
     2  0  0.50       -13.7508   2.0000                                                             
     2  1  0.50        -5.2854   2.0000                                                             
     3  2  1.50        -5.4423   0.0000                                                             
   Description                                                                                      
     l       E           TYP  RCUT    TYP  RCUT                                                     
     0    -13.7508458     23  1.100                                                                 
     0     -8.2022199     23  1.100                                                                 
     1     -5.2854383     23  1.100                                                                 
     1      1.1560700     23  1.100                                                                 
     2     -5.4423304      7  1.100                                                                 
  local pseudopotential read in
  partial core-charges read in
  partial kinetic energy density read in
  atomic valenz-charges read in
  non local Contribution for L=           0  read in
    real space projection operators read in
  non local Contribution for L=           0  read in
    real space projection operators read in
  non local Contribution for L=           1  read in
    real space projection operators read in
  non local Contribution for L=           1  read in
    real space projection operators read in
    PAW grid and wavefunctions read in

   number of l-projection  operators is LMAX  =           4
   number of lm-projection operators is LMMAX =           8

 POTCAR:    PAW_PBE H_h 06Feb2004                 
   VRHFIN =H: ultrasoft test                                                                        
   LEXCH  = PE                                                                                      
   EATOM  =    12.4884 eV,    0.9179 Ry                                                             
                                                                                                    
   TITEL  = PAW_PBE H_h 06Feb2004                                                                   
   LULTRA =        F    use ultrasoft PP ?                                                          
   IUNSCR =        0    unscreen: 0-lin 1-nonlin 2-no                                               
   RPACOR =    0.000    partial core radius                                                         
   POMASS =    1.000; ZVAL   =    1.000    mass and valenz                                          
   RCORE  =    0.800    outmost cutoff radius                                                       
   RWIGS  =    0.700; RWIGS  =    0.370    wigner-seitz radius (au A)                               
   ENMAX  =  700.000; ENMIN  =  350.000 eV                                                          
   RCLOC  =    0.701    cutoff for local pot                                                        
   LCOR   =        T    correct aug charges                                                         
   LPAW   =        T    paw PP                                                                      
   EAUG   = 1000.000                                                                                
   RMAX   =    0.819    core radius for proj-oper                                                   
   RAUG   =    1.000    factor for augmentation sphere                                              
   RDEP   =    0.817    radius for radial grids                                                     
   RDEPT  =    0.817    core radius for aug-charge                                                  
                                                                                                    
   Atomic configuration                                                                             
    2 entries                                                                                       
     n  l   j            E        occ.                                                              
     1  0  0.50        -6.4927   1.0000                                                             
     2  1  0.50        -3.4015   0.0000                                                             
   Description                                                                                      
     l       E           TYP  RCUT    TYP  RCUT                                                     
     0     -6.4927493     23  0.800                                                                 
     0      6.8029130     23  0.800                                                                 
     1     -6.8029130     23  0.800                                                                 
  local pseudopotential read in
  atomic valenz-charges read in
  non local Contribution for L=           0  read in
    real space projection operators read in
  non local Contribution for L=           0  read in
    real space projection operators read in
  non local Contribution for L=           1  read in
    real space projection operators read in
    PAW grid and wavefunctions read in

   number of l-projection  operators is LMAX  =           3
   number of lm-projection operators is LMMAX =           5

 POTCAR:    PAW_PBE N_h 06Feb2004                 
   VRHFIN =N: s2p3                                                                                  
   LEXCH  = PE                                                                                      
   EATOM  =   264.5486 eV,   19.4438 Ry                                                             
                                                                                                    
   TITEL  = PAW_PBE N_h 06Feb2004                                                                   
   LULTRA =        F    use ultrasoft PP ?                                                          
   IUNSCR =        1    unscreen: 0-lin 1-nonlin 2-no                                               
   RPACOR =    0.800    partial core radius                                                         
   POMASS =   14.001; ZVAL   =    5.000    mass and valenz                                          
   RCORE  =    1.100    outmost cutoff radius                                                       
   RWIGS  =    1.480; RWIGS  =    0.783    wigner-seitz radius (au A)                               
   ENMAX  =  700.000; ENMIN  =  500.000 eV                                                          
   ICORE  =        2    local potential                                                             
   LCOR   =        T    correct aug charges                                                         
   LPAW   =        T    paw PP                                                                      
   EAUG   =  904.640                                                                                
   DEXC   =    0.000                                                                                
   RMAX   =    1.127    core radius for proj-oper                                                   
   RAUG   =    1.300    factor for augmentation sphere                                              
   RDEP   =    1.115    radius for radial grids                                                     
   RDEPT  =    1.106    core radius for aug-charge                                                  
                                                                                                    
   Atomic configuration                                                                             
    4 entries                                                                                       
     n  l   j            E        occ.                                                              
     1  0  0.50      -384.7179   2.0000                                                             
     2  0  0.50       -18.5828   2.0000                                                             
     2  1  0.50        -7.0898   3.0000                                                             
     3  2  1.50        -6.8029   0.0000                                                             
   Description                                                                                      
     l       E           TYP  RCUT    TYP  RCUT                                                     
     0    -18.5828117     23  1.100                                                                 
     0    -15.0750597     23  1.100                                                                 
     1     -7.0897851     23  1.100                                                                 
     1     -1.9663412     23  1.100                                                                 
     2     -6.8029130      7  1.100                                                                 
  local pseudopotential read in
  partial core-charges read in
  partial kinetic energy density read in
  kinetic energy density of atom read in
  atomic valenz-charges read in
  non local Contribution for L=           0  read in
    real space projection operators read in
  non local Contribution for L=           0  read in
    real space projection operators read in
  non local Contribution for L=           1  read in
    real space projection operators read in
  non local Contribution for L=           1  read in
    real space projection operators read in
    PAW grid and wavefunctions read in

   number of l-projection  operators is LMAX  =           4
   number of lm-projection operators is LMMAX =           8

 -----------------------------------------------------------------------------
|                                                                             |
|               ----> ADVICE to this user running VASP <----                  |
|                                                                             |
|     You enforced a specific xc type in the INCAR file but a different       |
|     type was found in the POTCAR file.                                      |
|     I HOPE YOU KNOW WHAT YOU ARE DOING!                                     |
|                                                                             |
 -----------------------------------------------------------------------------

  PAW_PBE C_h 06Feb2004                 :
 energy of atom  1       EATOM= -147.1560
 kinetic energy error for atom=    0.0031 (will be added to EATOM!!)
  PAW_PBE H_h 06Feb2004                 :
 energy of atom  2       EATOM=  -12.4884
 kinetic energy error for atom=    0.0006 (will be added to EATOM!!)
  PAW_PBE N_h 06Feb2004                 :
 energy of atom  3       EATOM= -264.5486
 kinetic energy error for atom=    0.0081 (will be added to EATOM!!)


 POSCAR:  C  H  N
  positions in cartesian coordinates
  No initial velocities read in
 exchange correlation table for  LEXCH =       40
   RHO(1)=    0.500       N(1)  =     2000
   RHO(2)=  100.500       N(2)  =     4000

 VTST: version 4.1, (05/19/21)

 CHAIN: initializing optimizer
 
 OPT: Using VASP Dynamics algorithm
 CHAIN: Read ICHAIN            0

 POSCAR:  C  H  N
  positions in cartesian coordinates
  No initial velocities read in



--------------------------------------------------------------------------------------------------------


 ion  position               nearest neighbor table
   1  0.493  0.483  0.521-   5 1.17   4 1.34
   2  0.476  0.486  0.431-   4 1.02
   3  0.524  0.540  0.457-   4 1.02
   4  0.489  0.512  0.467-   2 1.02   3 1.02   1 1.34
   5  0.494  0.460  0.569-   1 1.17

  LATTYP: Found a simple cubic cell.
 ALAT       =    22.0000000000
  
  Lattice vectors:
  
 A1 = (  22.0000000000,   0.0000000000,   0.0000000000)
 A2 = (   0.0000000000,  22.0000000000,   0.0000000000)
 A3 = (   0.0000000000,   0.0000000000,  22.0000000000)


Analysis of symmetry for initial positions (statically):
=====================================================================
 Subroutine PRICEL returns:
 Original cell was already a primitive cell.
 

 Routine SETGRP: Setting up the symmetry group for a 
 simple cubic supercell.


 Subroutine GETGRP returns: Found  1 space group operations
 (whereof  1 operations were pure point group operations)
 out of a pool of 48 trial point group operations.


The static configuration has the point symmetry C_1 .


Analysis of symmetry for dynamics (positions and initial velocities):
=====================================================================
 Subroutine PRICEL returns:
 Original cell was already a primitive cell.
 

 Routine SETGRP: Setting up the symmetry group for a 
 simple cubic supercell.


 Subroutine GETGRP returns: Found  1 space group operations
 (whereof  1 operations were pure point group operations)
 out of a pool of 48 trial point group operations.


The dynamic configuration has the point symmetry C_1 .


 Subroutine INISYM returns: Found  1 space group operations
 (whereof  1 operations are pure point group operations),
 and found     1 'primitive' translations


----------------------------------------------------------------------------------------

                                     Primitive cell                                     

  volume of cell :   10648.0000

  direct lattice vectors                    reciprocal lattice vectors
    22.000000000  0.000000000  0.000000000     0.045454545  0.000000000  0.000000000
     0.000000000 22.000000000  0.000000000     0.000000000  0.045454545  0.000000000
     0.000000000  0.000000000 22.000000000     0.000000000  0.000000000  0.045454545

  length of vectors
    22.000000000 22.000000000 22.000000000     0.045454545  0.045454545  0.045454545

  position of ions in fractional coordinates (direct lattice)
     0.492741136  0.482876364  0.520817273
     0.476050682  0.485580000  0.431414545
     0.523949318  0.539961818  0.457390000
     0.488634773  0.511865909  0.467210455
     0.494056591  0.460038182  0.568585455

  ion indices of the primitive-cell ions
   primitive index   ion index
                 1           1
                 2           2
                 3           3
                 4           4
                 5           5

----------------------------------------------------------------------------------------



 KPOINTS: auto                                    

Automatic generation of k-mesh.
 Grid dimensions read from file:
 generate k-points for:    1    1    1

 Generating k-lattice:

  Cartesian coordinates                     Fractional coordinates (reciprocal lattice)
     0.045454545  0.000000000  0.000000000     1.000000000  0.000000000  0.000000000
     0.000000000  0.045454545  0.000000000     0.000000000  1.000000000  0.000000000
     0.000000000  0.000000000  0.045454545     0.000000000  0.000000000  1.000000000

  Length of vectors
     0.045454545  0.045454545  0.045454545

  Shift w.r.t. Gamma in fractional coordinates (k-lattice)
     0.000000000  0.000000000  0.000000000

 
 Subroutine IBZKPT returns following result:
 ===========================================
 
 Found      1 irreducible k-points:
 
 Following reciprocal coordinates:
            Coordinates               Weight
  0.000000  0.000000  0.000000      1.000000
 
 Following cartesian coordinates:
            Coordinates               Weight
  0.000000  0.000000  0.000000      1.000000
 


--------------------------------------------------------------------------------------------------------




 Dimension of arrays:
   k-points           NKPTS =      1   k-points in BZ     NKDIM =      1   number of bands    NBANDS=     12
   number of dos      NEDOS =    301   number of ions     NIONS =      5
   non local maximal  LDIM  =      4   non local SUM 2l+1 LMDIM =      8
   total plane-waves  NPLWV = ******
   max r-space proj   IRMAX =      1   max aug-charges    IRDMAX=   9419
   dimension x,y,z NGX =   240 NGY =  240 NGZ =  240
   dimension x,y,z NGXF=   480 NGYF=  480 NGZF=  480
   support grid    NGXF=   480 NGYF=  480 NGZF=  480
   ions per type =               1   2   2
   NGX,Y,Z   is equivalent  to a cutoff of  18.14, 18.14, 18.14 a.u.
   NGXF,Y,Z  is equivalent  to a cutoff of  36.27, 36.27, 36.27 a.u.

 SYSTEM =  unknown system                          
 POSCAR =   C  H  N                                

 Startparameter for this run:
   NWRITE =      2    write-flag & timer
   PREC   = accura    normal or accurate (medium, high low for compatibility)
   ISTART =      0    job   : 0-new  1-cont  2-samecut
   ICHARG =      2    charge: 1-file 2-atom 10-const
   ISPIN  =      1    spin polarized calculation?
   LNONCOLLINEAR =      F non collinear calculations
   LSORBIT =      F    spin-orbit coupling
   INIWAV =      1    electr: 0-lowe 1-rand  2-diag
   LASPH  =      F    aspherical Exc in radial PAW
 Electronic Relaxation 1
   ENCUT  = 1000.0 eV  73.50 Ry    8.57 a.u.  56.73 56.73 56.73*2*pi/ulx,y,z
   ENINI  = 1000.0     initial cutoff
   ENAUG  = 1000.0 eV  augmentation charge cutoff
   NELM   =     60;   NELMIN=  2; NELMDL= -5     # of ELM steps 
   EDIFF  = 0.1E-06   stopping-criterion for ELM
   LREAL  =      F    real-space projection
   NLSPLINE    = F    spline interpolate recip. space projectors
   LCOMPAT=      F    compatible to vasp.4.4
   GGA_COMPAT  = T    GGA compatible to vasp.4.4-vasp.4.6
   LMAXPAW     = -100 max onsite density
   LMAXMIX     =    2 max onsite mixed and CHGCAR
   VOSKOWN=      0    Vosko Wilk Nusair interpolation
   ROPT   =    0.00000   0.00000   0.00000
 Ionic relaxation
   EDIFFG = 0.1E-05   stopping-criterion for IOM
   NSW    =      0    number of steps for IOM
   NBLOCK =      1;   KBLOCK =      1    inner block; outer block 
   IBRION =     -1    ionic relax: 0-MD 1-quasi-New 2-CG
   NFREE  =      0    steps in history (QN), initial steepest desc. (CG)
   ISIF   =      0    stress and relaxation
   IWAVPR =     10    prediction:  0-non 1-charg 2-wave 3-comb
   ISYM   =      2    0-nonsym 1-usesym 2-fastsym
   LCORR  =      T    Harris-Foulkes like correction to forces

   POTIM  = 0.5000    time-step for ionic-motion
   TEIN   =    0.0    initial temperature
   TEBEG  =    0.0;   TEEND  =   0.0 temperature during run
   SMASS  =  -3.00    Nose mass-parameter (am)
   estimated Nose-frequenzy (Omega)   =  0.10E-29 period in steps = 0.13E+47 mass=  -0.111E-25a.u.
   SCALEE = 1.0000    scale energy and forces
   NPACO  =    256;   APACO  = 10.0  distance and # of slots for P.C.
   PSTRESS=    0.0 pullay stress

  Mass of Ions in am
   POMASS =  12.01  1.00 14.00
  Ionic Valenz
   ZVAL   =   4.00  1.00  5.00
  Atomic Wigner-Seitz radii
   RWIGS  =  -1.00 -1.00 -1.00
  virtual crystal weights 
   VCA    =   1.00  1.00  1.00
   NELECT =      16.0000    total number of electrons
   NUPDOWN=      -1.0000    fix difference up-down

 DOS related values:
   EMIN   =  10.00;   EMAX   =-10.00  energy-range for DOS
   EFERMI =   0.00;   METHOD = LEGACY      
   ISMEAR =     0;   SIGMA  =   0.01  broadening in eV -4-tet -1-fermi 0-gaus

 Electronic relaxation 2 (details)
   IALGO  =     58    algorithm
   LDIAG  =      T    sub-space diagonalisation (order eigenvalues)
   LSUBROT=      F    optimize rotation matrix (better conditioning)
   TURBO    =      0    0=normal 1=particle mesh
   IRESTART =      0    0=no restart 2=restart with 2 vectors
   NREBOOT  =      0    no. of reboots
   NMIN     =      0    reboot dimension
   EREF     =   0.00    reference energy to select bands
   IMIX   =      4    mixing-type and parameters
     AMIX     =   0.40;   BMIX     =  1.00
     AMIX_MAG =   1.60;   BMIX_MAG =  1.00
     AMIN     =   0.10
     WC   =   100.;   INIMIX=   1;  MIXPRE=   1;  MAXMIX= -45

 Intra band minimization:
   WEIMIN = 0.0000     energy-eigenvalue tresh-hold
   EBREAK =  0.21E-08  absolut break condition
   DEPER  =   0.30     relativ break condition  

   TIME   =   0.40     timestep for ELM

  volume/ion in A,a.u.               =    2129.60     14371.25
  Fermi-wavevector in a.u.,A,eV,Ry     =   0.187510  0.354343  0.478383  0.035160
  Thomas-Fermi vector in A             =   0.923351

 Write flags
   LWAVE        =      F    write WAVECAR
   LDOWNSAMPLE  =      F    k-point downsampling of WAVECAR
   LCHARG       =      F    write CHGCAR
   LVTOT        =      F    write LOCPOT, total local potential
   LVHAR        =      F    write LOCPOT, Hartree potential only
   LELF         =      F    write electronic localiz. function (ELF)
   LORBIT       =      0    0 simple, 1 ext, 2 COOP (PROOUT), +10 PAW based schemes


 Dipole corrections
   LMONO  =      F    monopole corrections only (constant potential shift)
   LDIPOL =      F    correct potential (dipole corrections)
   IDIPOL =      0    1-x, 2-y, 3-z, 4-all directions 
   EPSILON=  1.0000000 bulk dielectric constant

 Exchange correlation treatment:
   GGA     =    RE    GGA type
   LEXCH   =    40    internal setting for exchange type
   LIBXC   =     F    Libxc                    
   VOSKOWN =     0    Vosko Wilk Nusair interpolation
   LHFCALC =     F    Hartree Fock is set to
   LHFONE  =     F    Hartree Fock one center treatment
   AEXX    =    0.0000 exact exchange contribution

 Linear response parameters
   LEPSILON=     F    determine dielectric tensor
   LRPA    =     F    only Hartree local field effects (RPA)
   LNABLA  =     F    use nabla operator in PAW spheres
   LVEL    =     F    velocity operator in full k-point grid
   CSHIFT  =0.1000    complex shift for real part using Kramers Kronig
   OMEGAMAX=  -1.0    maximum frequency
   DEG_THRESHOLD= 0.2000000E-02 threshold for treating states as degnerate
   RTIME   =   -0.100 relaxation time in fs
  (WPLASMAI=    0.000 imaginary part of plasma frequency in eV, 0.658/RTIME)
   DFIELD  = 0.0000000 0.0000000 0.0000000 field for delta impulse in time

  Optional k-point grid parameters
   LKPOINTS_OPT  =     F    use optional k-point grid
   KPOINTS_OPT_MODE=     1    mode for optional k-point grid

 Orbital magnetization related:
   ORBITALMAG=     F  switch on orbital magnetization
   LCHIMAG   =     F  perturbation theory with respect to B field
   DQ        =  0.001000  dq finite difference perturbation B field
   LLRAUG    =     F  two centre corrections for induced B field
   LBONE     =     F  B-component reconstruction in AE one-centre
   LVGVCALC  =     T  calculate vGv susceptibility
   LVGVAPPL  =     F  apply vGv susceptibility instead of pGv for G=0

 Random number generation:
   RANDOM_GENERATOR = DEFAULT
   PCG_SEED         = not used


--------------------------------------------------------------------------------------------------------


 Static calculation
 charge density and potential will be updated during run
 non-spin polarized calculation
 Conjugate gradient for all bands (Freysoldt, et al. PRB 79, 241103 (2009))
 preconditioned conjugated gradient                                        
 perform sub-space diagonalisation
    before iterative eigenvector-optimisation
 modified Broyden-mixing scheme, WC =      100.0
 initial mixing is a Kerker type mixing with AMIX =  0.4000 and BMIX =      1.0000
 Hartree-type preconditioning will be used
 using additional bands            4
 reciprocal scheme for non local part
 use partial core corrections
 no Harris-corrections to forces 
 use gradient corrections 
 use of overlap-Matrix (Vanderbilt PP)
 Gauss-broadening in eV      SIGMA  =   0.01


--------------------------------------------------------------------------------------------------------


  energy-cutoff  :     1000.00
  volume of cell :    10648.00
      direct lattice vectors                 reciprocal lattice vectors
    22.000000000  0.000000000  0.000000000     0.045454545  0.000000000  0.000000000
     0.000000000 22.000000000  0.000000000     0.000000000  0.045454545  0.000000000
     0.000000000  0.000000000 22.000000000     0.000000000  0.000000000  0.045454545

  length of vectors
    22.000000000 22.000000000 22.000000000     0.045454545  0.045454545  0.045454545



 k-points in units of 2pi/SCALE and weight: auto                                    
   0.00000000  0.00000000  0.00000000       1.000

 k-points in reciprocal lattice and weights: auto                                    
   0.00000000  0.00000000  0.00000000       1.000

 position of ions in fractional coordinates (direct lattice) 
   0.49274114  0.48287636  0.52081727
   0.47605068  0.48558000  0.43141455
   0.52394932  0.53996182  0.45739000
   0.48863477  0.51186591  0.46721045
   0.49405659  0.46003818  0.56858545

 position of ions in cartesian coordinates  (Angst):
  10.84030500 10.62328000 11.45798000
  10.47311500 10.68276000  9.49112000
  11.52688500 11.87916000 10.06258000
  10.74996500 11.26105000 10.27863000
  10.86924500 10.12084000 12.50888000



--------------------------------------------------------------------------------------------------------


 use parallel FFT for orbitals z direction half grid
 k-point   1 :   0.0000 0.0000 0.0000  plane waves:  381993

 maximum and minimum number of plane-waves per node :     11948    11928

 maximum number of plane-waves:    381993
 maximum index in each direction: 
   IXMAX=   56   IYMAX=   56   IZMAX=   56
   IXMIN=  -56   IYMIN=  -56   IZMIN=    0


 parallel 3D FFT for wavefunctions:
    minimum data exchange during FFTs selected (reduces bandwidth)
 parallel 3D FFT for charge:
    minimum data exchange during FFTs selected (reduces bandwidth)


 total amount of memory used by VASP MPI-rank0   152675. kBytes
=======================================================================

   base      :      30000. kBytes
   nonl-proj :       3245. kBytes
   fftplans  :      40084. kBytes
   grid      :      77629. kBytes
   one-center:          1. kBytes
   wavefun   :       1716. kBytes

     INWAV:  cpu time      0.0001: real time      0.0001
 Broyden mixing: mesh for mixing (old mesh)
   NGX =113   NGY =113   NGZ =113
  (NGX  =480   NGY  =480   NGZ  =480)
  gives a total of ****** points

 initial charge density was supplied:
 charge density of overlapping atoms calculated
 number of electron      16.0000000 magnetization 
 keeping initial charge density in first step


--------------------------------------------------------------------------------------------------------


 Maximum index for augmentation-charges          216 (set IRDMAX)


--------------------------------------------------------------------------------------------------------


 First call to EWALD:  gamma=   0.081
 Maximum number of real-space cells 3x 3x 3
 Maximum number of reciprocal cells 3x 3x 3

    FEWALD:  cpu time      0.0025: real time      0.0025


--------------------------------------- Ionic step        1  -------------------------------------------




--------------------------------------- Iteration      1(   1)  ---------------------------------------


    POTLOK:  cpu time      1.4008: real time      1.4013
    SETDIJ:  cpu time      0.0157: real time      0.0163
    TRIAL :  cpu time      0.7949: real time      0.7962
    CORREC:  cpu time      0.0023: real time      0.0023
    --------------------------------------------
      LOOP:  cpu time      2.2281: real time      2.2306

 eigenvalue-minimisations  :    40
 total energy-change (2. order) : 0.1360458E+03  (-0.3265888E+03)
 number of electron      16.0000000 magnetization 
 augmentation part       16.0000000 magnetization 

 Free energy of the ion-electron system (eV)
  ---------------------------------------------------
  alpha Z        PSCENC =         0.07253111
  Ewald energy   TEWEN  =       622.82150315
  -Hartree energ DENC   =     -1130.17152709
  -exchange      EXHF   =         0.00000000
  -V(xc)+E(xc)   XCENC  =        43.35494571
  PAW double counting   =       531.41568878     -522.56646550
  entropy T*S    EENTRO =        -0.00000000
  eigenvalues    EBANDS =      -109.66680616
  atomic energy  EATOM  =       700.78592291
  ---------------------------------------------------
  free energy    TOTEN  =       136.04579290 eV

  energy without entropy =      136.04579290  energy(sigma->0) =      136.04579290


--------------------------------------------------------------------------------------------------------




--------------------------------------- Iteration      1(   2)  ---------------------------------------


    TRIAL :  cpu time      0.7554: real time      0.7559
    CORREC:  cpu time      0.0001: real time      0.0001
    --------------------------------------------
      LOOP:  cpu time      0.7689: real time      0.7838

 eigenvalue-minimisations  :    40
 total energy-change (2. order) :-0.7815621E+02  (-0.7470030E+02)
 number of electron      16.0000000 magnetization 
 augmentation part       16.0000000 magnetization 

 Free energy of the ion-electron system (eV)
  ---------------------------------------------------
  alpha Z        PSCENC =         0.07253111
  Ewald energy   TEWEN  =       622.82150315
  -Hartree energ DENC   =     -1130.17152709
  -exchange      EXHF   =         0.00000000
  -V(xc)+E(xc)   XCENC  =        43.35494571
  PAW double counting   =       531.41568878     -522.56646550
  entropy T*S    EENTRO =        -0.00000000
  eigenvalues    EBANDS =      -187.82301172
  atomic energy  EATOM  =       700.78592291
  ---------------------------------------------------
  free energy    TOTEN  =        57.88958734 eV

  energy without entropy =       57.88958734  energy(sigma->0) =       57.88958734


--------------------------------------------------------------------------------------------------------




--------------------------------------- Iteration      1(   3)  ---------------------------------------


    TRIAL :  cpu time      0.7579: real time      0.7582
    CORREC:  cpu time      0.0001: real time      0.0001
    --------------------------------------------
      LOOP:  cpu time      0.7702: real time      0.7872

 eigenvalue-minimisations  :    40
 total energy-change (2. order) :-0.7461343E+02  (-0.6658695E+02)
 number of electron      16.0000000 magnetization 
 augmentation part       16.0000000 magnetization 

 Free energy of the ion-electron system (eV)
  ---------------------------------------------------
  alpha Z        PSCENC =         0.07253111
  Ewald energy   TEWEN  =       622.82150315
  -Hartree energ DENC   =     -1130.17152709
  -exchange      EXHF   =         0.00000000
  -V(xc)+E(xc)   XCENC  =        43.35494571
  PAW double counting   =       531.41568878     -522.56646550
  entropy T*S    EENTRO =        -0.00000000
  eigenvalues    EBANDS =      -262.43644227
  atomic energy  EATOM  =       700.78592291
  ---------------------------------------------------
  free energy    TOTEN  =       -16.72384321 eV

  energy without entropy =      -16.72384321  energy(sigma->0) =      -16.72384321


--------------------------------------------------------------------------------------------------------




--------------------------------------- Iteration      1(   4)  ---------------------------------------


    TRIAL :  cpu time      0.5259: real time      0.5259
    CORREC:  cpu time      0.0001: real time      0.0001
    --------------------------------------------
      LOOP:  cpu time      0.5543: real time      0.5546

 eigenvalue-minimisations  :    24
 total energy-change (2. order) :-0.1766606E+02  (-0.1760529E+02)
 number of electron      16.0000000 magnetization 
 augmentation part       16.0000000 magnetization 

 Free energy of the ion-electron system (eV)
  ---------------------------------------------------
  alpha Z        PSCENC =         0.07253111
  Ewald energy   TEWEN  =       622.82150315
  -Hartree energ DENC   =     -1130.17152709
  -exchange      EXHF   =         0.00000000
  -V(xc)+E(xc)   XCENC  =        43.35494571
  PAW double counting   =       531.41568878     -522.56646550
  entropy T*S    EENTRO =        -0.00000000
  eigenvalues    EBANDS =      -280.10250098
  atomic energy  EATOM  =       700.78592291
  ---------------------------------------------------
  free energy    TOTEN  =       -34.38990192 eV

  energy without entropy =      -34.38990192  energy(sigma->0) =      -34.38990192


--------------------------------------------------------------------------------------------------------




--------------------------------------- Iteration      1(   5)  ---------------------------------------


    TRIAL :  cpu time      0.6395: real time      0.6401
    CORREC:  cpu time      0.0001: real time      0.0001
    CHARGE:  cpu time      0.2599: real time      0.2604
    --------------------------------------------
      LOOP:  cpu time      0.9127: real time      0.9300

 eigenvalue-minimisations  :    32
 total energy-change (2. order) :-0.9161877E+00  (-0.9046273E+00)
 number of electron      16.0000000 magnetization 
 augmentation part       -0.0457322 magnetization 

 Free energy of the ion-electron system (eV)
  ---------------------------------------------------
  alpha Z        PSCENC =         0.07253111
  Ewald energy   TEWEN  =       622.82150315
  -Hartree energ DENC   =     -1130.17152709
  -exchange      EXHF   =         0.00000000
  -V(xc)+E(xc)   XCENC  =        43.35494571
  PAW double counting   =       531.41568878     -522.56646550
  entropy T*S    EENTRO =        -0.00000000
  eigenvalues    EBANDS =      -281.01868868
  atomic energy  EATOM  =       700.78592291
  ---------------------------------------------------
  free energy    TOTEN  =       -35.30608962 eV

  energy without entropy =      -35.30608962  energy(sigma->0) =      -35.30608962


--------------------------------------------------------------------------------------------------------




--------------------------------------- Iteration      1(   6)  ---------------------------------------


    POTLOK:  cpu time      1.4407: real time      1.4415
    SETDIJ:  cpu time      0.0172: real time      0.0172
    TRIAL :  cpu time      0.3781: real time      0.3792
    CORREC:  cpu time      1.7856: real time      1.7873
    CHARGE:  cpu time      0.2158: real time      0.2158
    --------------------------------------------
      LOOP:  cpu time      3.8504: real time      3.8693

 eigenvalue-minimisations  :     0
 total energy-change (2. order) : 0.7635217E+01  (-0.3241680E+01)
 number of electron      16.0000000 magnetization 
 augmentation part       -0.0598278 magnetization 

 Free energy of the ion-electron system (eV)
  ---------------------------------------------------
  alpha Z        PSCENC =         0.07253111
  Ewald energy   TEWEN  =       622.82150315
  -Hartree energ DENC   =     -1253.36101248
  -exchange      EXHF   =         0.00000000
  -V(xc)+E(xc)   XCENC  =        49.48103477
  PAW double counting   =      5982.15604909    -5973.88855314
  entropy T*S    EENTRO =        -0.00000000
  eigenvalues    EBANDS =      -155.73834772
  atomic energy  EATOM  =       700.78592291
  ---------------------------------------------------
  free energy    TOTEN  =       -27.67087232 eV

  energy without entropy =      -27.67087232  energy(sigma->0) =      -27.67087232


--------------------------------------------------------------------------------------------------------




--------------------------------------- Iteration      1(   7)  ---------------------------------------


    POTLOK:  cpu time      1.4473: real time      1.4476
    SETDIJ:  cpu time      0.0164: real time      0.0164
    TRIAL :  cpu time      0.3660: real time      0.3665
    CORREC:  cpu time      1.7791: real time      1.7798
    CHARGE:  cpu time      0.2151: real time      0.2152
    --------------------------------------------
      LOOP:  cpu time      3.8531: real time      3.8550

 eigenvalue-minimisations  :     0
 total energy-change (2. order) :-0.3280975E+01  (-0.3546903E+00)
 number of electron      16.0000000 magnetization 
 augmentation part       -0.0728112 magnetization 

 Free energy of the ion-electron system (eV)
  ---------------------------------------------------
  alpha Z        PSCENC =         0.07253111
  Ewald energy   TEWEN  =       622.82150315
  -Hartree energ DENC   =     -1193.99932615
  -exchange      EXHF   =         0.00000000
  -V(xc)+E(xc)   XCENC  =        46.54645173
  PAW double counting   =      7669.03843985    -7660.49426411
  entropy T*S    EENTRO =        -0.00000000
  eigenvalues    EBANDS =      -215.72310539
  atomic energy  EATOM  =       700.78592291
  ---------------------------------------------------
  free energy    TOTEN  =       -30.95184690 eV

  energy without entropy =      -30.95184690  energy(sigma->0) =      -30.95184690


--------------------------------------------------------------------------------------------------------




--------------------------------------- Iteration      1(   8)  ---------------------------------------


    POTLOK:  cpu time      1.4490: real time      1.4496
    SETDIJ:  cpu time      0.0119: real time      0.0119
    TRIAL :  cpu time      0.3654: real time      0.3658
    CORREC:  cpu time      1.7780: real time      1.7784
    CHARGE:  cpu time      0.2161: real time      0.2165
    --------------------------------------------
      LOOP:  cpu time      3.8518: real time      3.8540

 eigenvalue-minimisations  :     0
 total energy-change (2. order) :-0.3547438E+00  (-0.1361762E+00)
 number of electron      16.0000000 magnetization 
 augmentation part       -0.0745910 magnetization 

 Free energy of the ion-electron system (eV)
  ---------------------------------------------------
  alpha Z        PSCENC =         0.07253111
  Ewald energy   TEWEN  =       622.82150315
  -Hartree energ DENC   =     -1195.09628846
  -exchange      EXHF   =         0.00000000
  -V(xc)+E(xc)   XCENC  =        46.57881607
  PAW double counting   =      8020.76156083    -8012.18372526
  entropy T*S    EENTRO =        -0.00000000
  eigenvalues    EBANDS =      -215.04691107
  atomic energy  EATOM  =       700.78592291
  ---------------------------------------------------
  free energy    TOTEN  =       -31.30659073 eV

  energy without entropy =      -31.30659073  energy(sigma->0) =      -31.30659073


--------------------------------------------------------------------------------------------------------




--------------------------------------- Iteration      1(   9)  ---------------------------------------


    POTLOK:  cpu time      1.4484: real time      1.4487
    SETDIJ:  cpu time      0.0124: real time      0.0124
    TRIAL :  cpu time      0.3667: real time      0.3667
    CORREC:  cpu time      1.7767: real time      1.7775
    CHARGE:  cpu time      0.2161: real time      0.2161
    --------------------------------------------
      LOOP:  cpu time      3.8374: real time      3.8507

 eigenvalue-minimisations  :     0
 total energy-change (2. order) :-0.1356014E+00  (-0.5427070E-01)
 number of electron      16.0000000 magnetization 
 augmentation part       -0.0730086 magnetization 

 Free energy of the ion-electron system (eV)
  ---------------------------------------------------
  alpha Z        PSCENC =         0.07253111
  Ewald energy   TEWEN  =       622.82150315
  -Hartree energ DENC   =     -1195.26337387
  -exchange      EXHF   =         0.00000000
  -V(xc)+E(xc)   XCENC  =        46.60113925
  PAW double counting   =      8110.57942554    -8101.98864565
  entropy T*S    EENTRO =        -0.00000000
  eigenvalues    EBANDS =      -215.05069453
  atomic energy  EATOM  =       700.78592291
  ---------------------------------------------------
  free energy    TOTEN  =       -31.44219210 eV

  energy without entropy =      -31.44219210  energy(sigma->0) =      -31.44219210


--------------------------------------------------------------------------------------------------------




--------------------------------------- Iteration      1(  10)  ---------------------------------------


    POTLOK:  cpu time      1.4436: real time      1.4445
    SETDIJ:  cpu time      0.0123: real time      0.0123
    TRIAL :  cpu time      0.3669: real time      0.3669
    CORREC:  cpu time      1.7630: real time      1.7638
    CHARGE:  cpu time      0.2161: real time      0.2161
    --------------------------------------------
      LOOP:  cpu time      3.8323: real time      3.8345

 eigenvalue-minimisations  :     0
 total energy-change (2. order) :-0.5398719E-01  (-0.1729684E-01)
 number of electron      16.0000000 magnetization 
 augmentation part       -0.0717584 magnetization 

 Free energy of the ion-electron system (eV)
  ---------------------------------------------------
  alpha Z        PSCENC =         0.07253111
  Ewald energy   TEWEN  =       622.82150315
  -Hartree energ DENC   =     -1194.21158446
  -exchange      EXHF   =         0.00000000
  -V(xc)+E(xc)   XCENC  =        46.56595406
  PAW double counting   =      7983.59594602    -7975.00421906
  entropy T*S    EENTRO =        -0.00000000
  eigenvalues    EBANDS =      -216.12223302
  atomic energy  EATOM  =       700.78592291
  ---------------------------------------------------
  free energy    TOTEN  =       -31.49617930 eV

  energy without entropy =      -31.49617930  energy(sigma->0) =      -31.49617930


--------------------------------------------------------------------------------------------------------




--------------------------------------- Iteration      1(  11)  ---------------------------------------


    POTLOK:  cpu time      1.4344: real time      1.4353
    SETDIJ:  cpu time      0.0120: real time      0.0120
    TRIAL :  cpu time      0.3669: real time      0.3669
    CORREC:  cpu time      1.7564: real time      1.7573
    CHARGE:  cpu time      0.2150: real time      0.2150
    --------------------------------------------
      LOOP:  cpu time      3.7998: real time      3.8182

 eigenvalue-minimisations  :     0
 total energy-change (2. order) :-0.1724773E-01  (-0.5344319E-02)
 number of electron      16.0000000 magnetization 
 augmentation part       -0.0709864 magnetization 

 Free energy of the ion-electron system (eV)
  ---------------------------------------------------
  alpha Z        PSCENC =         0.07253111
  Ewald energy   TEWEN  =       622.82150315
  -Hartree energ DENC   =     -1194.09582475
  -exchange      EXHF   =         0.00000000
  -V(xc)+E(xc)   XCENC  =        46.56000229
  PAW double counting   =      7840.97540358    -7832.38902571
  entropy T*S    EENTRO =        -0.00000000
  eigenvalues    EBANDS =      -216.24393960
  atomic energy  EATOM  =       700.78592291
  ---------------------------------------------------
  free energy    TOTEN  =       -31.51342702 eV

  energy without entropy =      -31.51342702  energy(sigma->0) =      -31.51342702


--------------------------------------------------------------------------------------------------------




--------------------------------------- Iteration      1(  12)  ---------------------------------------


    POTLOK:  cpu time      1.4343: real time      1.4352
    SETDIJ:  cpu time      0.0096: real time      0.0096
    TRIAL :  cpu time      0.3666: real time      0.3666
    CORREC:  cpu time      1.7432: real time      1.7439
    CHARGE:  cpu time      0.2142: real time      0.2142
    --------------------------------------------
      LOOP:  cpu time      3.7886: real time      3.8021

 eigenvalue-minimisations  :     0
 total energy-change (2. order) :-0.5332696E-02  (-0.1626083E-02)
 number of electron      16.0000000 magnetization 
 augmentation part       -0.0707647 magnetization 

 Free energy of the ion-electron system (eV)
  ---------------------------------------------------
  alpha Z        PSCENC =         0.07253111
  Ewald energy   TEWEN  =       622.82150315
  -Hartree energ DENC   =     -1193.93205235
  -exchange      EXHF   =         0.00000000
  -V(xc)+E(xc)   XCENC  =        46.54783481
  PAW double counting   =      7780.97253288    -7772.38889861
  entropy T*S    EENTRO =        -0.00000000
  eigenvalues    EBANDS =      -216.39813360
  atomic energy  EATOM  =       700.78592291
  ---------------------------------------------------
  free energy    TOTEN  =       -31.51875972 eV

  energy without entropy =      -31.51875972  energy(sigma->0) =      -31.51875972


--------------------------------------------------------------------------------------------------------




--------------------------------------- Iteration      1(  13)  ---------------------------------------


    POTLOK:  cpu time      1.4165: real time      1.4168
    SETDIJ:  cpu time      0.0165: real time      0.0165
    TRIAL :  cpu time      0.3708: real time      0.3712
    CORREC:  cpu time      1.7230: real time      1.7233
    CHARGE:  cpu time      0.2160: real time      0.2164
    --------------------------------------------
      LOOP:  cpu time      3.7585: real time      3.7768

 eigenvalue-minimisations  :     0
 total energy-change (2. order) :-0.1624952E-02  (-0.5177025E-03)
 number of electron      16.0000000 magnetization 
 augmentation part       -0.0707923 magnetization 

 Free energy of the ion-electron system (eV)
  ---------------------------------------------------
  alpha Z        PSCENC =         0.07253111
  Ewald energy   TEWEN  =       622.82150315
  -Hartree energ DENC   =     -1193.80386878
  -exchange      EXHF   =         0.00000000
  -V(xc)+E(xc)   XCENC  =        46.54102081
  PAW double counting   =      7776.03160774    -7767.44841484
  entropy T*S    EENTRO =        -0.00000000
  eigenvalues    EBANDS =      -216.52068675
  atomic energy  EATOM  =       700.78592291
  ---------------------------------------------------
  free energy    TOTEN  =       -31.52038467 eV

  energy without entropy =      -31.52038467  energy(sigma->0) =      -31.52038467


--------------------------------------------------------------------------------------------------------




--------------------------------------- Iteration      1(  14)  ---------------------------------------


    POTLOK:  cpu time      1.3977: real time      1.3984
    SETDIJ:  cpu time      0.0148: real time      0.0148
    TRIAL :  cpu time      0.3663: real time      0.3667
    CORREC:  cpu time      1.7163: real time      1.7169
    CHARGE:  cpu time      0.2156: real time      0.2157
    --------------------------------------------
      LOOP:  cpu time      3.7254: real time      3.7428

 eigenvalue-minimisations  :     0
 total energy-change (2. order) :-0.5175585E-03  (-0.1886441E-03)
 number of electron      16.0000000 magnetization 
 augmentation part       -0.0708369 magnetization 

 Free energy of the ion-electron system (eV)
  ---------------------------------------------------
  alpha Z        PSCENC =         0.07253111
  Ewald energy   TEWEN  =       622.82150315
  -Hartree energ DENC   =     -1193.82361431
  -exchange      EXHF   =         0.00000000
  -V(xc)+E(xc)   XCENC  =        46.54311373
  PAW double counting   =      7783.29164477    -7774.70851718
  entropy T*S    EENTRO =        -0.00000000
  eigenvalues    EBANDS =      -216.50348639
  atomic energy  EATOM  =       700.78592291
  ---------------------------------------------------
  free energy    TOTEN  =       -31.52090223 eV

  energy without entropy =      -31.52090223  energy(sigma->0) =      -31.52090223


--------------------------------------------------------------------------------------------------------




--------------------------------------- Iteration      1(  15)  ---------------------------------------


    POTLOK:  cpu time      1.3918: real time      1.3925
    SETDIJ:  cpu time      0.0130: real time      0.0130
    TRIAL :  cpu time      0.3661: real time      0.3661
    CORREC:  cpu time      1.7116: real time      1.7126
    CHARGE:  cpu time      0.2163: real time      0.2163
    --------------------------------------------
      LOOP:  cpu time      3.7297: real time      3.7318

 eigenvalue-minimisations  :     0
 total energy-change (2. order) :-0.1884986E-03  (-0.7583607E-04)
 number of electron      16.0000000 magnetization 
 augmentation part       -0.0708431 magnetization 

 Free energy of the ion-electron system (eV)
  ---------------------------------------------------
  alpha Z        PSCENC =         0.07253111
  Ewald energy   TEWEN  =       622.82150315
  -Hartree energ DENC   =     -1193.82805638
  -exchange      EXHF   =         0.00000000
  -V(xc)+E(xc)   XCENC  =        46.54322695
  PAW double counting   =      7787.60680684    -7779.02352029
  entropy T*S    EENTRO =        -0.00000000
  eigenvalues    EBANDS =      -216.49950501
  atomic energy  EATOM  =       700.78592291
  ---------------------------------------------------
  free energy    TOTEN  =       -31.52109073 eV

  energy without entropy =      -31.52109073  energy(sigma->0) =      -31.52109073


--------------------------------------------------------------------------------------------------------




--------------------------------------- Iteration      1(  16)  ---------------------------------------


    POTLOK:  cpu time      1.3929: real time      1.3945
    SETDIJ:  cpu time      0.0072: real time      0.0072
    TRIAL :  cpu time      0.3668: real time      0.3668
    CORREC:  cpu time      1.7124: real time      1.7136
    CHARGE:  cpu time      0.2154: real time      0.2154
    --------------------------------------------
      LOOP:  cpu time      3.7127: real time      3.7292

 eigenvalue-minimisations  :     0
 total energy-change (2. order) :-0.7589552E-04  (-0.3193040E-04)
 number of electron      16.0000000 magnetization 
 augmentation part       -0.0708405 magnetization 

 Free energy of the ion-electron system (eV)
  ---------------------------------------------------
  alpha Z        PSCENC =         0.07253111
  Ewald energy   TEWEN  =       622.82150315
  -Hartree energ DENC   =     -1193.83257586
  -exchange      EXHF   =         0.00000000
  -V(xc)+E(xc)   XCENC  =        46.54294381
  PAW double counting   =      7786.61964603    -7778.03630295
  entropy T*S    EENTRO =        -0.00000000
  eigenvalues    EBANDS =      -216.49483481
  atomic energy  EATOM  =       700.78592291
  ---------------------------------------------------
  free energy    TOTEN  =       -31.52116662 eV

  energy without entropy =      -31.52116662  energy(sigma->0) =      -31.52116662


--------------------------------------------------------------------------------------------------------




--------------------------------------- Iteration      1(  17)  ---------------------------------------


    POTLOK:  cpu time      1.3837: real time      1.3839
    SETDIJ:  cpu time      0.0102: real time      0.0102
    TRIAL :  cpu time      0.3675: real time      0.3679
    CORREC:  cpu time      1.7116: real time      1.7119
    CHARGE:  cpu time      0.2165: real time      0.2167
    --------------------------------------------
      LOOP:  cpu time      3.7068: real time      3.7238

 eigenvalue-minimisations  :     0
 total energy-change (2. order) :-0.3188511E-04  (-0.1311000E-04)
 number of electron      16.0000000 magnetization 
 augmentation part       -0.0708478 magnetization 

 Free energy of the ion-electron system (eV)
  ---------------------------------------------------
  alpha Z        PSCENC =         0.07253111
  Ewald energy   TEWEN  =       622.82150315
  -Hartree energ DENC   =     -1193.85074288
  -exchange      EXHF   =         0.00000000
  -V(xc)+E(xc)   XCENC  =        46.54377258
  PAW double counting   =      7784.23406122    -7775.65081205
  entropy T*S    EENTRO =        -0.00000000
  eigenvalues    EBANDS =      -216.47743454
  atomic energy  EATOM  =       700.78592291
  ---------------------------------------------------
  free energy    TOTEN  =       -31.52119851 eV

  energy without entropy =      -31.52119851  energy(sigma->0) =      -31.52119851


--------------------------------------------------------------------------------------------------------




--------------------------------------- Iteration      1(  18)  ---------------------------------------


    POTLOK:  cpu time      1.3801: real time      1.3805
    SETDIJ:  cpu time      0.0123: real time      0.0123
    TRIAL :  cpu time      0.3668: real time      0.3668
    CORREC:  cpu time      1.7115: real time      1.7123
    CHARGE:  cpu time      0.2159: real time      0.2160
    --------------------------------------------
      LOOP:  cpu time      3.7169: real time      3.7184

 eigenvalue-minimisations  :     0
 total energy-change (2. order) :-0.1308875E-04  (-0.5101116E-05)
 number of electron      16.0000000 magnetization 
 augmentation part       -0.0708543 magnetization 

 Free energy of the ion-electron system (eV)
  ---------------------------------------------------
  alpha Z        PSCENC =         0.07253111
  Ewald energy   TEWEN  =       622.82150315
  -Hartree energ DENC   =     -1193.84908759
  -exchange      EXHF   =         0.00000000
  -V(xc)+E(xc)   XCENC  =        46.54354830
  PAW double counting   =      7784.53146525    -7775.94820656
  entropy T*S    EENTRO =        -0.00000000
  eigenvalues    EBANDS =      -216.47888817
  atomic energy  EATOM  =       700.78592291
  ---------------------------------------------------
  free energy    TOTEN  =       -31.52121160 eV

  energy without entropy =      -31.52121160  energy(sigma->0) =      -31.52121160


--------------------------------------------------------------------------------------------------------




--------------------------------------- Iteration      1(  19)  ---------------------------------------


    POTLOK:  cpu time      1.3797: real time      1.3807
    SETDIJ:  cpu time      0.0128: real time      0.0128
    TRIAL :  cpu time      0.3662: real time      0.3662
    CORREC:  cpu time      1.7122: real time      1.7133
    CHARGE:  cpu time      0.2153: real time      0.2155
    --------------------------------------------
      LOOP:  cpu time      3.7013: real time      3.7193

 eigenvalue-minimisations  :     0
 total energy-change (2. order) :-0.5045214E-05  (-0.1609320E-05)
 number of electron      16.0000000 magnetization 
 augmentation part       -0.0708577 magnetization 

 Free energy of the ion-electron system (eV)
  ---------------------------------------------------
  alpha Z        PSCENC =         0.07253111
  Ewald energy   TEWEN  =       622.82150315
  -Hartree energ DENC   =     -1193.85605986
  -exchange      EXHF   =         0.00000000
  -V(xc)+E(xc)   XCENC  =        46.54386155
  PAW double counting   =      7786.48068615    -7777.89742389
  entropy T*S    EENTRO =        -0.00000000
  eigenvalues    EBANDS =      -216.47223774
  atomic energy  EATOM  =       700.78592291
  ---------------------------------------------------
  free energy    TOTEN  =       -31.52121664 eV

  energy without entropy =      -31.52121664  energy(sigma->0) =      -31.52121664


--------------------------------------------------------------------------------------------------------




--------------------------------------- Iteration      1(  20)  ---------------------------------------


    POTLOK:  cpu time      1.3804: real time      1.3810
    SETDIJ:  cpu time      0.0114: real time      0.0116
    TRIAL :  cpu time      0.3670: real time      0.3670
    CORREC:  cpu time      1.7101: real time      1.7113
    CHARGE:  cpu time      0.2145: real time      0.2145
    --------------------------------------------
      LOOP:  cpu time      3.6996: real time      3.7174

 eigenvalue-minimisations  :     0
 total energy-change (2. order) :-0.1601434E-05  (-0.5245825E-06)
 number of electron      16.0000000 magnetization 
 augmentation part       -0.0708568 magnetization 

 Free energy of the ion-electron system (eV)
  ---------------------------------------------------
  alpha Z        PSCENC =         0.07253111
  Ewald energy   TEWEN  =       622.82150315
  -Hartree energ DENC   =     -1193.85343691
  -exchange      EXHF   =         0.00000000
  -V(xc)+E(xc)   XCENC  =        46.54380056
  PAW double counting   =      7787.96757586    -7779.38428858
  entropy T*S    EENTRO =        -0.00000000
  eigenvalues    EBANDS =      -216.47482633
  atomic energy  EATOM  =       700.78592291
  ---------------------------------------------------
  free energy    TOTEN  =       -31.52121824 eV

  energy without entropy =      -31.52121824  energy(sigma->0) =      -31.52121824


--------------------------------------------------------------------------------------------------------




--------------------------------------- Iteration      1(  21)  ---------------------------------------


    POTLOK:  cpu time      1.3802: real time      1.3808
    SETDIJ:  cpu time      0.0145: real time      0.0145
    TRIAL :  cpu time      0.3679: real time      0.3683
    CORREC:  cpu time      1.7107: real time      1.7114
    CHARGE:  cpu time      0.2157: real time      0.2163
    --------------------------------------------
      LOOP:  cpu time      3.7060: real time      3.7238

 eigenvalue-minimisations  :     0
 total energy-change (2. order) :-0.5302309E-06  (-0.1745878E-06)
 number of electron      16.0000000 magnetization 
 augmentation part       -0.0708556 magnetization 

 Free energy of the ion-electron system (eV)
  ---------------------------------------------------
  alpha Z        PSCENC =         0.07253111
  Ewald energy   TEWEN  =       622.82150315
  -Hartree energ DENC   =     -1193.85316943
  -exchange      EXHF   =         0.00000000
  -V(xc)+E(xc)   XCENC  =        46.54379879
  PAW double counting   =      7788.38331750    -7779.80002583
  entropy T*S    EENTRO =        -0.00000000
  eigenvalues    EBANDS =      -216.47509697
  atomic energy  EATOM  =       700.78592291
  ---------------------------------------------------
  free energy    TOTEN  =       -31.52121877 eV

  energy without entropy =      -31.52121877  energy(sigma->0) =      -31.52121877


--------------------------------------------------------------------------------------------------------




--------------------------------------- Iteration      1(  22)  ---------------------------------------


    POTLOK:  cpu time      1.3864: real time      1.3871
    SETDIJ:  cpu time      0.0105: real time      0.0105
    TRIAL :  cpu time      0.3667: real time      0.3667
    CORREC:  cpu time      1.7138: real time      1.7152
    CHARGE:  cpu time      0.2149: real time      0.2150
    --------------------------------------------
      LOOP:  cpu time      3.7069: real time      3.7251

 eigenvalue-minimisations  :     0
 total energy-change (2. order) :-0.1807948E-06  (-0.5541581E-07)
 number of electron      16.0000000 magnetization 
 augmentation part       -0.0708552 magnetization 

 Free energy of the ion-electron system (eV)
  ---------------------------------------------------
  alpha Z        PSCENC =         0.07253111
  Ewald energy   TEWEN  =       622.82150315
  -Hartree energ DENC   =     -1193.85280371
  -exchange      EXHF   =         0.00000000
  -V(xc)+E(xc)   XCENC  =        46.54377694
  PAW double counting   =      7788.20560799    -7779.62231658
  entropy T*S    EENTRO =        -0.00000000
  eigenvalues    EBANDS =      -216.47544075
  atomic energy  EATOM  =       700.78592291
  ---------------------------------------------------
  free energy    TOTEN  =       -31.52121895 eV

  energy without entropy =      -31.52121895  energy(sigma->0) =      -31.52121895


--------------------------------------------------------------------------------------------------------




--------------------------------------- Iteration      1(  23)  ---------------------------------------


    POTLOK:  cpu time      1.3803: real time      1.3813
    SETDIJ:  cpu time      0.0141: real time      0.0141
    TRIAL :  cpu time      0.3668: real time      0.3668
    CORREC:  cpu time      1.7074: real time      1.7085
    EDDIAG:  cpu time      0.1615: real time      0.1618
    CHARGE:  cpu time      0.2154: real time      0.2154
    --------------------------------------------
      LOOP:  cpu time      3.8639: real time      3.8838

 eigenvalue-minimisations  :     0
 total energy-change (2. order) :-0.5749371E-07  (-0.1898784E-07)
 number of electron      16.0000000 magnetization 
 augmentation part       -0.0708551 magnetization 

 Free energy of the ion-electron system (eV)
  ---------------------------------------------------
  alpha Z        PSCENC =         0.07253111
  Ewald energy   TEWEN  =       622.82150315
  -Hartree energ DENC   =     -1193.85237084
  -exchange      EXHF   =         0.00000000
  -V(xc)+E(xc)   XCENC  =        46.54375218
  PAW double counting   =      7787.93841309    -7779.35512084
  entropy T*S    EENTRO =        -0.00000000
  eigenvalues    EBANDS =      -216.47584977
  atomic energy  EATOM  =       700.78592291
  ---------------------------------------------------
  free energy    TOTEN  =       -31.52121901 eV

  energy without entropy =      -31.52121901  energy(sigma->0) =      -31.52121901


--------------------------------------------------------------------------------------------------------


  average scaling for gradient   0.8605


 average (electrostatic) potential at core
  the test charge radii are     0.5770  0.4325  0.5902
  (the norm of the test charge is              1.0000)
       1 -87.9818       2 -48.3912       3 -48.3872       4-105.4802       5-103.2005



 E-fermi :  -6.5621     XC(G=0):  -0.1026     alpha+bet : -0.0324

 Fermi energy:        -6.5620935087

 k-point     1 :       0.0000    0.0000    0.0000
  band No.  band energies     occupation 
      1     -24.2903      2.00000
      2     -21.9437      2.00000
      3     -15.0657      2.00000
      4     -14.0112      2.00000
      5      -9.8092      2.00000
      6      -8.4148      2.00000
      7      -8.0938      2.00000
      8      -6.6090      2.00000
      9      -1.3173      0.00000
     10      -0.5077      0.00000
     11       0.1324      0.00000
     12       0.1747      0.00000


--------------------------------------------------------------------------------------------------------


 soft charge-density along one line, spin component           1
         0         1         2         3         4         5         6         7         8         9
 total charge-density along one line

 pseudopotential strength for first ion, spin component:           1
 12.814  21.567   0.009  -0.016  -0.002   0.016  -0.029  -0.003
 21.567  36.295   0.015  -0.027  -0.003   0.027  -0.048  -0.005
  0.009   0.015  -3.129   0.001   0.000  -5.610   0.002   0.000
 -0.016  -0.027   0.001  -3.130  -0.000   0.002  -5.613  -0.000
 -0.002  -0.003   0.000  -0.000  -3.128   0.000  -0.000  -5.609
  0.016   0.027  -5.610   0.002   0.000 -10.037   0.004   0.000
 -0.029  -0.048   0.002  -5.613  -0.000   0.004 -10.043  -0.001
 -0.003  -0.005   0.000  -0.000  -5.609   0.000  -0.001 -10.035
 total augmentation occupancy for first ion, spin component:           1
  9.659  -3.648  -0.824   2.012  -0.043   0.354  -0.870   0.021
 -3.648   1.463   0.328  -0.840   0.033  -0.151   0.377  -0.012
 -0.824   0.328   5.712  -3.681  -0.167  -1.887   1.598   0.081
  2.012  -0.840  -3.681  11.263   0.307   1.598  -4.282  -0.137
 -0.043   0.033  -0.167   0.307   3.892   0.081  -0.137  -1.097
  0.354  -0.151  -1.887   1.598   0.081   0.649  -0.676  -0.034
 -0.870   0.377   1.598  -4.282  -0.137  -0.676   1.660   0.059
  0.021  -0.012   0.081  -0.137  -1.097  -0.034   0.059   0.314


------------------------ aborting loop because EDIFF is reached ----------------------------------------


    FORLOC:  cpu time      0.0595: real time      0.0595
    FORNL :  cpu time      0.0158: real time      0.0158
    FORCOR:  cpu time      1.2296: real time      1.2302
    OFIELD:  cpu time      0.0095: real time      0.0102

 ---------------------------------------------------------------------------------------------

         DFTD3 V3.0 Rev 1        
 IVDW         = 11
 DF revpbe    
 parameters
 VDW_S6       =    1.0000
 VDW_S8       =    1.0100
 VDW_SR       =    0.9230
 rs18     =    1.0000
 alpha6   =   14.0000
 alpha8   =   16.0000
 k1-k3    =   16.0000    1.3333   -4.0000
 VDW_RADIUS   =   50.2022 A
 VDW_CNRADIUS =   21.1671 A
 Edisp (eV)   -0.03701

 E6    (eV) :    -0.0268
 E8    (eV) :    -0.0102
 % E8        : 27.56
    FORVDW:  cpu time      0.0682: real time      0.0690

 VOLUME and BASIS-vectors are now :
 -----------------------------------------------------------------------------
  energy-cutoff  :     1000.00
  volume of cell :    10648.00
      direct lattice vectors                 reciprocal lattice vectors
    22.000000000  0.000000000  0.000000000     0.045454545  0.000000000  0.000000000
     0.000000000 22.000000000  0.000000000     0.000000000  0.045454545  0.000000000
     0.000000000  0.000000000 22.000000000     0.000000000  0.000000000  0.045454545

  length of vectors
    22.000000000 22.000000000 22.000000000     0.045454545  0.045454545  0.045454545


 FORCES acting on ions:
    Electron-Ion                     Ewald-Force                    Non-Local-Force
 -----------------------------------------------------------------------------------------------
   -.203E+01 -.123E+02 0.381E+02   0.314E+01 0.634E+01 -.273E+02   -.113E+01 0.646E+01 -.118E+02
   0.236E+02 0.373E+02 0.713E+02   -.257E+02 -.415E+02 -.771E+02   0.216E+01 0.413E+01 0.578E+01
   -.574E+02 -.546E+02 0.275E+02   0.630E+02 0.592E+02 -.291E+02   -.556E+01 -.464E+01 0.158E+01
   0.309E+02 -.823E+02 0.118E+03   -.477E+02 0.988E+02 -.121E+03   0.169E+02 -.166E+02 0.357E+01
   -.645E+01 0.106E+03 -.219E+03   0.733E+01 -.123E+03 0.255E+03   -.870E+00 0.167E+02 -.354E+02
 -----------------------------------------------------------------------------------------------
   -.115E+02 -.610E+01 0.362E+02   -.888E-15 0.000E+00 -.568E-13   0.115E+02 0.610E+01 -.362E+02


 POSITION                                       TOTAL-FORCE (eV/Angst)
 -----------------------------------------------------------------------------------
     10.84030     10.62328     11.45798         0.006223      0.197469     -0.337493
     10.47311     10.68276      9.49112        -0.005578     -0.052068     -0.048536
     11.52689     11.87916     10.06258         0.046263      0.017229     -0.015627
     10.74997     11.26105     10.27863        -0.061998      0.131554     -0.141950
     10.86924     10.12084     12.50888         0.015091     -0.294185      0.543606
 -----------------------------------------------------------------------------------
    total drift:                                0.000007      0.000029     -0.000306


--------------------------------------------------------------------------------------------------------



  FREE ENERGIE OF THE ION-ELECTRON SYSTEM (eV)
  ---------------------------------------------------
  free  energy   TOTEN  =       -31.55823153 eV

  energy  without entropy=      -31.55823153  energy(sigma->0) =      -31.55823153



--------------------------------------------------------------------------------------------------------


    POTLOK:  cpu time      1.4054: real time      1.4061


--------------------------------------------------------------------------------------------------------


 stress matrix after NEB project (eV)
      0.00560      0.00424      0.00600
      0.00424      0.01401     -0.00922
      0.00600     -0.00922      0.02294
  FORCES: max atom, RMS     0.618288    0.341846
  FORCE total and by dimension    0.764391    0.543606
  Stress total and by dimension    0.032124    0.022939
     LOOP+:  cpu time     75.9181: real time     76.2127
    4ORBIT:  cpu time      0.0000: real time      0.0000

 total amount of memory used by VASP MPI-rank0   152675. kBytes
=======================================================================

   base      :      30000. kBytes
   nonl-proj :       3245. kBytes
   fftplans  :      40084. kBytes
   grid      :      77629. kBytes
   one-center:          1. kBytes
   wavefun   :       1716. kBytes

  
  
 General timing and accounting informations for this job:
 ========================================================
  
                  Total CPU time used (sec):       98.103
                            User time (sec):       95.103
                          System time (sec):        3.000
                         Elapsed time (sec):      101.309
  
                   Maximum memory used (kb):      380076.
                   Average memory used (kb):          N/A
  
                          Minor page faults:       172615
                          Major page faults:         1170
                 Voluntary context switches:         3378
