 vasp.6.4.1 05Apr23 (build Jun  6 2023 14:46:38) gamma-only                      
 executed on        HPECrayEX_GCC date 2024.08.21  10:34:15
 running  256 mpi-ranks, with    1 threads/rank, on    2 nodes
 distrk:  each k-point on  128 cores,    2 groups
 distr:  one band on NCORE=  32 cores,    4 groups


--------------------------------------------------------------------------------------------------------


 INCAR:
   ALGO = Conjugate
   KPAR = 2
   NCORE = 32
   ISMEAR = 0
   SIGMA = 0.01
   PREC = Accurate
   EDIFF = 1E-7
   ENCUT = 1000
   ISIF = 0
   METAGGA = RSCAN
   LASPH = .TRUE.
   SYMPREC = 1E-7
   LWAVE = .FALSE.
   LCHARG = .FALSE.
   LWAVE = .FALSE.
   LCHARG = .FALSE.

 POTCAR:    PAW_PBE C_h 06Feb2004                 
 POTCAR:    PAW_PBE H_h 06Feb2004                 
 POTCAR:    PAW_PBE N_h 06Feb2004                 
 POTCAR:    PAW_PBE C_h 06Feb2004                 
   VRHFIN =C: s2p2                                                                                  
   LEXCH  = PE                                                                                      
   EATOM  =   147.1560 eV,   10.8157 Ry                                                             
                                                                                                    
   TITEL  = PAW_PBE C_h 06Feb2004                                                                   
   LULTRA =        F    use ultrasoft PP ?                                                          
   IUNSCR =        1    unscreen: 0-lin 1-nonlin 2-no                                               
   RPACOR =    0.800    partial core radius                                                         
   POMASS =   12.011; ZVAL   =    4.000    mass and valenz                                          
   RCORE  =    1.100    outmost cutoff radius                                                       
   RWIGS  =    1.630; RWIGS  =    0.863    wigner-seitz radius (au A)                               
   ENMAX  =  700.000; ENMIN  =  500.000 eV                                                          
   ICORE  =        2    local potential                                                             
   LCOR   =        T    correct aug charges                                                         
   LPAW   =        T    paw PP                                                                      
   EAUG   =  946.768                                                                                
   DEXC   =    0.000                                                                                
   RMAX   =    1.128    core radius for proj-oper                                                   
   RAUG   =    1.300    factor for augmentation sphere                                              
   RDEP   =    1.162    radius for radial grids                                                     
   RDEPT  =    1.088    core radius for aug-charge                                                  
                                                                                                    
   Atomic configuration                                                                             
    4 entries                                                                                       
     n  l   j            E        occ.                                                              
     1  0  0.50      -273.3789   2.0000                                                             
     2  0  0.50       -13.7508   2.0000                                                             
     2  1  0.50        -5.2854   2.0000                                                             
     3  2  1.50        -5.4423   0.0000                                                             
   Description                                                                                      
     l       E           TYP  RCUT    TYP  RCUT                                                     
     0    -13.7508458     23  1.100                                                                 
     0     -8.2022199     23  1.100                                                                 
     1     -5.2854383     23  1.100                                                                 
     1      1.1560700     23  1.100                                                                 
     2     -5.4423304      7  1.100                                                                 
  local pseudopotential read in
  partial core-charges read in
  partial kinetic energy density read in
  atomic valenz-charges read in
  non local Contribution for L=           0  read in
    real space projection operators read in
  non local Contribution for L=           0  read in
    real space projection operators read in
  non local Contribution for L=           1  read in
    real space projection operators read in
  non local Contribution for L=           1  read in
    real space projection operators read in
    PAW grid and wavefunctions read in

   number of l-projection  operators is LMAX  =           4
   number of lm-projection operators is LMMAX =           8

 POTCAR:    PAW_PBE H_h 06Feb2004                 
   VRHFIN =H: ultrasoft test                                                                        
   LEXCH  = PE                                                                                      
   EATOM  =    12.4884 eV,    0.9179 Ry                                                             
                                                                                                    
   TITEL  = PAW_PBE H_h 06Feb2004                                                                   
   LULTRA =        F    use ultrasoft PP ?                                                          
   IUNSCR =        0    unscreen: 0-lin 1-nonlin 2-no                                               
   RPACOR =    0.000    partial core radius                                                         
   POMASS =    1.000; ZVAL   =    1.000    mass and valenz                                          
   RCORE  =    0.800    outmost cutoff radius                                                       
   RWIGS  =    0.700; RWIGS  =    0.370    wigner-seitz radius (au A)                               
   ENMAX  =  700.000; ENMIN  =  350.000 eV                                                          
   RCLOC  =    0.701    cutoff for local pot                                                        
   LCOR   =        T    correct aug charges                                                         
   LPAW   =        T    paw PP                                                                      
   EAUG   = 1000.000                                                                                
   RMAX   =    0.819    core radius for proj-oper                                                   
   RAUG   =    1.000    factor for augmentation sphere                                              
   RDEP   =    0.817    radius for radial grids                                                     
   RDEPT  =    0.817    core radius for aug-charge                                                  
                                                                                                    
   Atomic configuration                                                                             
    2 entries                                                                                       
     n  l   j            E        occ.                                                              
     1  0  0.50        -6.4927   1.0000                                                             
     2  1  0.50        -3.4015   0.0000                                                             
   Description                                                                                      
     l       E           TYP  RCUT    TYP  RCUT                                                     
     0     -6.4927493     23  0.800                                                                 
     0      6.8029130     23  0.800                                                                 
     1     -6.8029130     23  0.800                                                                 
  local pseudopotential read in
  atomic valenz-charges read in
  non local Contribution for L=           0  read in
    real space projection operators read in
  non local Contribution for L=           0  read in
    real space projection operators read in
  non local Contribution for L=           1  read in
    real space projection operators read in
    PAW grid and wavefunctions read in

   number of l-projection  operators is LMAX  =           3
   number of lm-projection operators is LMMAX =           5

 POTCAR:    PAW_PBE N_h 06Feb2004                 
   VRHFIN =N: s2p3                                                                                  
   LEXCH  = PE                                                                                      
   EATOM  =   264.5486 eV,   19.4438 Ry                                                             
                                                                                                    
   TITEL  = PAW_PBE N_h 06Feb2004                                                                   
   LULTRA =        F    use ultrasoft PP ?                                                          
   IUNSCR =        1    unscreen: 0-lin 1-nonlin 2-no                                               
   RPACOR =    0.800    partial core radius                                                         
   POMASS =   14.001; ZVAL   =    5.000    mass and valenz                                          
   RCORE  =    1.100    outmost cutoff radius                                                       
   RWIGS  =    1.480; RWIGS  =    0.783    wigner-seitz radius (au A)                               
   ENMAX  =  700.000; ENMIN  =  500.000 eV                                                          
   ICORE  =        2    local potential                                                             
   LCOR   =        T    correct aug charges                                                         
   LPAW   =        T    paw PP                                                                      
   EAUG   =  904.640                                                                                
   DEXC   =    0.000                                                                                
   RMAX   =    1.127    core radius for proj-oper                                                   
   RAUG   =    1.300    factor for augmentation sphere                                              
   RDEP   =    1.115    radius for radial grids                                                     
   RDEPT  =    1.106    core radius for aug-charge                                                  
                                                                                                    
   Atomic configuration                                                                             
    4 entries                                                                                       
     n  l   j            E        occ.                                                              
     1  0  0.50      -384.7179   2.0000                                                             
     2  0  0.50       -18.5828   2.0000                                                             
     2  1  0.50        -7.0898   3.0000                                                             
     3  2  1.50        -6.8029   0.0000                                                             
   Description                                                                                      
     l       E           TYP  RCUT    TYP  RCUT                                                     
     0    -18.5828117     23  1.100                                                                 
     0    -15.0750597     23  1.100                                                                 
     1     -7.0897851     23  1.100                                                                 
     1     -1.9663412     23  1.100                                                                 
     2     -6.8029130      7  1.100                                                                 
  local pseudopotential read in
  partial core-charges read in
  partial kinetic energy density read in
  kinetic energy density of atom read in
  atomic valenz-charges read in
  non local Contribution for L=           0  read in
    real space projection operators read in
  non local Contribution for L=           0  read in
    real space projection operators read in
  non local Contribution for L=           1  read in
    real space projection operators read in
  non local Contribution for L=           1  read in
    real space projection operators read in
    PAW grid and wavefunctions read in

   number of l-projection  operators is LMAX  =           4
   number of lm-projection operators is LMMAX =           8

  PAW_PBE C_h 06Feb2004                 :
 energy of atom  1       EATOM= -147.1560
 kinetic energy error for atom=    0.0031 (will be added to EATOM!!)
  PAW_PBE H_h 06Feb2004                 :
 energy of atom  2       EATOM=  -12.4884
 kinetic energy error for atom=    0.0006 (will be added to EATOM!!)
  PAW_PBE N_h 06Feb2004                 :
 energy of atom  3       EATOM= -264.5486
 kinetic energy error for atom=    0.0081 (will be added to EATOM!!)


 POSCAR:  C  H  N
  positions in cartesian coordinates
  No initial velocities read in

 METAGGA = RSCAN                                       LMAXTAU =  6    LMIXTAU =  F

 exchange correlation table for  LEXCH =        8
   RHO(1)=    0.500       N(1)  =     2000
   RHO(2)=  100.500       N(2)  =     4000

 VTST: version 4.1, (05/19/21)

 CHAIN: initializing optimizer
 
 OPT: Using VASP Dynamics algorithm
 CHAIN: Read ICHAIN            0

 POSCAR:  C  H  N
  positions in cartesian coordinates
  No initial velocities read in



--------------------------------------------------------------------------------------------------------


 ion  position               nearest neighbor table
   1  0.493  0.483  0.521-   5 1.17   4 1.34
   2  0.476  0.486  0.431-   4 1.02
   3  0.524  0.540  0.457-   4 1.02
   4  0.489  0.512  0.467-   2 1.02   3 1.02   1 1.34
   5  0.494  0.460  0.569-   1 1.17

  LATTYP: Found a simple cubic cell.
 ALAT       =    22.0000000000
  
  Lattice vectors:
  
 A1 = (  22.0000000000,   0.0000000000,   0.0000000000)
 A2 = (   0.0000000000,  22.0000000000,   0.0000000000)
 A3 = (   0.0000000000,   0.0000000000,  22.0000000000)


Analysis of symmetry for initial positions (statically):
=====================================================================
 Subroutine PRICEL returns:
 Original cell was already a primitive cell.
 

 Routine SETGRP: Setting up the symmetry group for a 
 simple cubic supercell.


 Subroutine GETGRP returns: Found  1 space group operations
 (whereof  1 operations were pure point group operations)
 out of a pool of 48 trial point group operations.


The static configuration has the point symmetry C_1 .


Analysis of symmetry for dynamics (positions and initial velocities):
=====================================================================
 Subroutine PRICEL returns:
 Original cell was already a primitive cell.
 

 Routine SETGRP: Setting up the symmetry group for a 
 simple cubic supercell.


 Subroutine GETGRP returns: Found  1 space group operations
 (whereof  1 operations were pure point group operations)
 out of a pool of 48 trial point group operations.


The dynamic configuration has the point symmetry C_1 .


 Subroutine INISYM returns: Found  1 space group operations
 (whereof  1 operations are pure point group operations),
 and found     1 'primitive' translations


----------------------------------------------------------------------------------------

                                     Primitive cell                                     

  volume of cell :   10648.0000

  direct lattice vectors                    reciprocal lattice vectors
    22.000000000  0.000000000  0.000000000     0.045454545  0.000000000  0.000000000
     0.000000000 22.000000000  0.000000000     0.000000000  0.045454545  0.000000000
     0.000000000  0.000000000 22.000000000     0.000000000  0.000000000  0.045454545

  length of vectors
    22.000000000 22.000000000 22.000000000     0.045454545  0.045454545  0.045454545

  position of ions in fractional coordinates (direct lattice)
     0.492741136  0.482876364  0.520817273
     0.476050682  0.485580000  0.431414545
     0.523949318  0.539961818  0.457390000
     0.488634773  0.511865909  0.467210455
     0.494056591  0.460038182  0.568585455

  ion indices of the primitive-cell ions
   primitive index   ion index
                 1           1
                 2           2
                 3           3
                 4           4
                 5           5

----------------------------------------------------------------------------------------



 KPOINTS: auto                                    

Automatic generation of k-mesh.
 Grid dimensions read from file:
 generate k-points for:    1    1    1

 Generating k-lattice:

  Cartesian coordinates                     Fractional coordinates (reciprocal lattice)
     0.045454545  0.000000000  0.000000000     1.000000000  0.000000000  0.000000000
     0.000000000  0.045454545  0.000000000     0.000000000  1.000000000  0.000000000
     0.000000000  0.000000000  0.045454545     0.000000000  0.000000000  1.000000000

  Length of vectors
     0.045454545  0.045454545  0.045454545

  Shift w.r.t. Gamma in fractional coordinates (k-lattice)
     0.000000000  0.000000000  0.000000000

 
 Subroutine IBZKPT returns following result:
 ===========================================
 
 Found      1 irreducible k-points:
 
 Following reciprocal coordinates:
            Coordinates               Weight
  0.000000  0.000000  0.000000      1.000000
 
 Following cartesian coordinates:
            Coordinates               Weight
  0.000000  0.000000  0.000000      1.000000
 


--------------------------------------------------------------------------------------------------------




 Dimension of arrays:
   k-points           NKPTS =      1   k-points in BZ     NKDIM =      1   number of bands    NBANDS=     12
   number of dos      NEDOS =    301   number of ions     NIONS =      5
   non local maximal  LDIM  =      4   non local SUM 2l+1 LMDIM =      8
   total plane-waves  NPLWV = ******
   max r-space proj   IRMAX =      1   max aug-charges    IRDMAX=   9419
   dimension x,y,z NGX =   240 NGY =  240 NGZ =  240
   dimension x,y,z NGXF=   480 NGYF=  480 NGZF=  480
   support grid    NGXF=   480 NGYF=  480 NGZF=  480
   ions per type =               1   2   2
   NGX,Y,Z   is equivalent  to a cutoff of  18.14, 18.14, 18.14 a.u.
   NGXF,Y,Z  is equivalent  to a cutoff of  36.27, 36.27, 36.27 a.u.

 SYSTEM =  unknown system                          
 POSCAR =   C  H  N                                

 Startparameter for this run:
   NWRITE =      2    write-flag & timer
   PREC   = accura    normal or accurate (medium, high low for compatibility)
   ISTART =      0    job   : 0-new  1-cont  2-samecut
   ICHARG =      2    charge: 1-file 2-atom 10-const
   ISPIN  =      1    spin polarized calculation?
   LNONCOLLINEAR =      F non collinear calculations
   LSORBIT =      F    spin-orbit coupling
   INIWAV =      1    electr: 0-lowe 1-rand  2-diag
   LASPH  =      T    aspherical Exc in radial PAW
 Electronic Relaxation 1
   ENCUT  = 1000.0 eV  73.50 Ry    8.57 a.u.  56.73 56.73 56.73*2*pi/ulx,y,z
   ENINI  = 1000.0     initial cutoff
   ENAUG  = 1000.0 eV  augmentation charge cutoff
   NELM   =     60;   NELMIN=  2; NELMDL= -5     # of ELM steps 
   EDIFF  = 0.1E-06   stopping-criterion for ELM
   LREAL  =      F    real-space projection
   NLSPLINE    = F    spline interpolate recip. space projectors
   LCOMPAT=      F    compatible to vasp.4.4
   GGA_COMPAT  = T    GGA compatible to vasp.4.4-vasp.4.6
   LMAXPAW     = -100 max onsite density
   LMAXMIX     =    2 max onsite mixed and CHGCAR
   VOSKOWN=      0    Vosko Wilk Nusair interpolation
   ROPT   =    0.00000   0.00000   0.00000
 Ionic relaxation
   EDIFFG = 0.1E-05   stopping-criterion for IOM
   NSW    =      0    number of steps for IOM
   NBLOCK =      1;   KBLOCK =      1    inner block; outer block 
   IBRION =     -1    ionic relax: 0-MD 1-quasi-New 2-CG
   NFREE  =      0    steps in history (QN), initial steepest desc. (CG)
   ISIF   =      0    stress and relaxation
   IWAVPR =     10    prediction:  0-non 1-charg 2-wave 3-comb
   ISYM   =      2    0-nonsym 1-usesym 2-fastsym
   LCORR  =      T    Harris-Foulkes like correction to forces

   POTIM  = 0.5000    time-step for ionic-motion
   TEIN   =    0.0    initial temperature
   TEBEG  =    0.0;   TEEND  =   0.0 temperature during run
   SMASS  =  -3.00    Nose mass-parameter (am)
   estimated Nose-frequenzy (Omega)   =  0.10E-29 period in steps = 0.13E+47 mass=  -0.111E-25a.u.
   SCALEE = 1.0000    scale energy and forces
   NPACO  =    256;   APACO  = 10.0  distance and # of slots for P.C.
   PSTRESS=    0.0 pullay stress

  Mass of Ions in am
   POMASS =  12.01  1.00 14.00
  Ionic Valenz
   ZVAL   =   4.00  1.00  5.00
  Atomic Wigner-Seitz radii
   RWIGS  =  -1.00 -1.00 -1.00
  virtual crystal weights 
   VCA    =   1.00  1.00  1.00
   NELECT =      16.0000    total number of electrons
   NUPDOWN=      -1.0000    fix difference up-down

 DOS related values:
   EMIN   =  10.00;   EMAX   =-10.00  energy-range for DOS
   EFERMI =   0.00;   METHOD = LEGACY      
   ISMEAR =     0;   SIGMA  =   0.01  broadening in eV -4-tet -1-fermi 0-gaus

 Electronic relaxation 2 (details)
   IALGO  =     58    algorithm
   LDIAG  =      T    sub-space diagonalisation (order eigenvalues)
   LSUBROT=      F    optimize rotation matrix (better conditioning)
   TURBO    =      0    0=normal 1=particle mesh
   IRESTART =      0    0=no restart 2=restart with 2 vectors
   NREBOOT  =      0    no. of reboots
   NMIN     =      0    reboot dimension
   EREF     =   0.00    reference energy to select bands
   IMIX   =      4    mixing-type and parameters
     AMIX     =   0.40;   BMIX     =  1.00
     AMIX_MAG =   1.60;   BMIX_MAG =  1.00
     AMIN     =   0.10
     WC   =   100.;   INIMIX=   1;  MIXPRE=   1;  MAXMIX= -45

 Intra band minimization:
   WEIMIN = 0.0000     energy-eigenvalue tresh-hold
   EBREAK =  0.21E-08  absolut break condition
   DEPER  =   0.30     relativ break condition  

   TIME   =   0.40     timestep for ELM

  volume/ion in A,a.u.               =    2129.60     14371.25
  Fermi-wavevector in a.u.,A,eV,Ry     =   0.187510  0.354343  0.478383  0.035160
  Thomas-Fermi vector in A             =   0.923351

 Write flags
   LWAVE        =      F    write WAVECAR
   LDOWNSAMPLE  =      F    k-point downsampling of WAVECAR
   LCHARG       =      F    write CHGCAR
   LVTOT        =      F    write LOCPOT, total local potential
   LVHAR        =      F    write LOCPOT, Hartree potential only
   LELF         =      F    write electronic localiz. function (ELF)
   LORBIT       =      0    0 simple, 1 ext, 2 COOP (PROOUT), +10 PAW based schemes


 Dipole corrections
   LMONO  =      F    monopole corrections only (constant potential shift)
   LDIPOL =      F    correct potential (dipole corrections)
   IDIPOL =      0    1-x, 2-y, 3-z, 4-all directions 
   EPSILON=  1.0000000 bulk dielectric constant

 Exchange correlation treatment:
   GGA     =    --    GGA type
   LEXCH   =     8    internal setting for exchange type
   LIBXC   =     F    Libxc                    
   VOSKOWN =     0    Vosko Wilk Nusair interpolation
   LHFCALC =     F    Hartree Fock is set to
   LHFONE  =     F    Hartree Fock one center treatment
   AEXX    =    0.0000 exact exchange contribution

 Linear response parameters
   LEPSILON=     F    determine dielectric tensor
   LRPA    =     F    only Hartree local field effects (RPA)
   LNABLA  =     F    use nabla operator in PAW spheres
   LVEL    =     F    velocity operator in full k-point grid
   CSHIFT  =0.1000    complex shift for real part using Kramers Kronig
   OMEGAMAX=  -1.0    maximum frequency
   DEG_THRESHOLD= 0.2000000E-02 threshold for treating states as degnerate
   RTIME   =   -0.100 relaxation time in fs
  (WPLASMAI=    0.000 imaginary part of plasma frequency in eV, 0.658/RTIME)
   DFIELD  = 0.0000000 0.0000000 0.0000000 field for delta impulse in time

  Optional k-point grid parameters
   LKPOINTS_OPT  =     F    use optional k-point grid
   KPOINTS_OPT_MODE=     1    mode for optional k-point grid

 Orbital magnetization related:
   ORBITALMAG=     F  switch on orbital magnetization
   LCHIMAG   =     F  perturbation theory with respect to B field
   DQ        =  0.001000  dq finite difference perturbation B field
   LLRAUG    =     F  two centre corrections for induced B field
   LBONE     =     F  B-component reconstruction in AE one-centre
   LVGVCALC  =     T  calculate vGv susceptibility
   LVGVAPPL  =     F  apply vGv susceptibility instead of pGv for G=0

 Random number generation:
   RANDOM_GENERATOR = DEFAULT
   PCG_SEED         = not used


--------------------------------------------------------------------------------------------------------


 Static calculation
 charge density and potential will be updated during run
 non-spin polarized calculation
 Conjugate gradient for all bands (Freysoldt, et al. PRB 79, 241103 (2009))
 preconditioned conjugated gradient                                        
 perform sub-space diagonalisation
    before iterative eigenvector-optimisation
 modified Broyden-mixing scheme, WC =      100.0
 initial mixing is a Kerker type mixing with AMIX =  0.4000 and BMIX =      1.0000
 Hartree-type preconditioning will be used
 using additional bands            4
 reciprocal scheme for non local part
 use partial core corrections
 no Harris-corrections to forces 
 use gradient corrections 
 use of overlap-Matrix (Vanderbilt PP)
 Gauss-broadening in eV      SIGMA  =   0.01


--------------------------------------------------------------------------------------------------------


  energy-cutoff  :     1000.00
  volume of cell :    10648.00
      direct lattice vectors                 reciprocal lattice vectors
    22.000000000  0.000000000  0.000000000     0.045454545  0.000000000  0.000000000
     0.000000000 22.000000000  0.000000000     0.000000000  0.045454545  0.000000000
     0.000000000  0.000000000 22.000000000     0.000000000  0.000000000  0.045454545

  length of vectors
    22.000000000 22.000000000 22.000000000     0.045454545  0.045454545  0.045454545



 k-points in units of 2pi/SCALE and weight: auto                                    
   0.00000000  0.00000000  0.00000000       1.000

 k-points in reciprocal lattice and weights: auto                                    
   0.00000000  0.00000000  0.00000000       1.000

 position of ions in fractional coordinates (direct lattice) 
   0.49274114  0.48287636  0.52081727
   0.47605068  0.48558000  0.43141455
   0.52394932  0.53996182  0.45739000
   0.48863477  0.51186591  0.46721045
   0.49405659  0.46003818  0.56858545

 position of ions in cartesian coordinates  (Angst):
  10.84030500 10.62328000 11.45798000
  10.47311500 10.68276000  9.49112000
  11.52688500 11.87916000 10.06258000
  10.74996500 11.26105000 10.27863000
  10.86924500 10.12084000 12.50888000



--------------------------------------------------------------------------------------------------------


 use parallel FFT for orbitals z direction half grid
 k-point   1 :   0.0000 0.0000 0.0000  plane waves:  381993

 maximum and minimum number of plane-waves per node :     11948    11928

 maximum number of plane-waves:    381993
 maximum index in each direction: 
   IXMAX=   56   IYMAX=   56   IZMAX=   56
   IXMIN=  -56   IYMIN=  -56   IZMIN=    0


 parallel 3D FFT for wavefunctions:
    minimum data exchange during FFTs selected (reduces bandwidth)
 parallel 3D FFT for charge:
    minimum data exchange during FFTs selected (reduces bandwidth)


 total amount of memory used by VASP MPI-rank0   174824. kBytes
=======================================================================

   base      :      30000. kBytes
   nonl-proj :       3245. kBytes
   fftplans  :      40084. kBytes
   grid      :      99778. kBytes
   one-center:          1. kBytes
   wavefun   :       1716. kBytes

     INWAV:  cpu time      0.0000: real time      0.0000
 Broyden mixing: mesh for mixing (old mesh)
   NGX =113   NGY =113   NGZ =113
  (NGX  =480   NGY  =480   NGZ  =480)
  gives a total of ****** points

 initial charge density was supplied:
 charge density of overlapping atoms calculated
 number of electron      16.0000000 magnetization 
 keeping initial charge density in first step


--------------------------------------------------------------------------------------------------------


 Maximum index for augmentation-charges          216 (set IRDMAX)


--------------------------------------------------------------------------------------------------------


 First call to EWALD:  gamma=   0.081
 Maximum number of real-space cells 3x 3x 3
 Maximum number of reciprocal cells 3x 3x 3

    FEWALD:  cpu time      0.0034: real time      0.0034


--------------------------------------- Ionic step        1  -------------------------------------------




--------------------------------------- Iteration      1(   1)  ---------------------------------------


    POTLOK:  cpu time      3.6071: real time      3.6084
    SETDIJ:  cpu time      0.3341: real time      0.3348
    TRIAL :  cpu time      3.4220: real time      3.4249
    CORREC:  cpu time      0.0005: real time      0.0005
    --------------------------------------------
      LOOP:  cpu time      7.3781: real time      7.3830

 eigenvalue-minimisations  :    40
 total energy-change (2. order) : 0.1307795E+03  (-0.3361857E+03)
 number of electron      16.0000000 magnetization 
 augmentation part       16.0000000 magnetization 

 Free energy of the ion-electron system (eV)
  ---------------------------------------------------
  alpha Z        PSCENC =         0.07253111
  Ewald energy   TEWEN  =       622.82150315
  -Hartree energ DENC   =     -1130.17152709
  -exchange      EXHF   =         0.00000000
  -V(xc)+E(xc)   XCENC  =        57.07248141
  PAW double counting   =       518.24077567     -517.29246024
  entropy T*S    EENTRO =        -0.00000000
  eigenvalues    EBANDS =      -121.17326811
  atomic energy  EATOM  =       701.20945335
  ---------------------------------------------------
  free energy    TOTEN  =       130.77948925 eV

  energy without entropy =      130.77948925  energy(sigma->0) =      130.77948925


--------------------------------------------------------------------------------------------------------




--------------------------------------- Iteration      1(   2)  ---------------------------------------


    TRIAL :  cpu time      2.9772: real time      2.9785
    CORREC:  cpu time      0.0001: real time      0.0001
    --------------------------------------------
      LOOP:  cpu time      3.0035: real time      3.0049

 eigenvalue-minimisations  :    32
 total energy-change (2. order) :-0.7309704E+02  (-0.6815602E+02)
 number of electron      16.0000000 magnetization 
 augmentation part       16.0000000 magnetization 

 Free energy of the ion-electron system (eV)
  ---------------------------------------------------
  alpha Z        PSCENC =         0.07253111
  Ewald energy   TEWEN  =       622.82150315
  -Hartree energ DENC   =     -1130.17152709
  -exchange      EXHF   =         0.00000000
  -V(xc)+E(xc)   XCENC  =        57.07248141
  PAW double counting   =       518.24077567     -517.29246024
  entropy T*S    EENTRO =        -0.00000000
  eigenvalues    EBANDS =      -194.27030790
  atomic energy  EATOM  =       701.20945335
  ---------------------------------------------------
  free energy    TOTEN  =        57.68244946 eV

  energy without entropy =       57.68244946  energy(sigma->0) =       57.68244946


--------------------------------------------------------------------------------------------------------




--------------------------------------- Iteration      1(   3)  ---------------------------------------


    TRIAL :  cpu time      3.8403: real time      3.8422
    CORREC:  cpu time      0.0001: real time      0.0001
    --------------------------------------------
      LOOP:  cpu time      3.8524: real time      3.8710

 eigenvalue-minimisations  :    48
 total energy-change (2. order) :-0.8698971E+02  (-0.8265785E+02)
 number of electron      16.0000000 magnetization 
 augmentation part       16.0000000 magnetization 

 Free energy of the ion-electron system (eV)
  ---------------------------------------------------
  alpha Z        PSCENC =         0.07253111
  Ewald energy   TEWEN  =       622.82150315
  -Hartree energ DENC   =     -1130.17152709
  -exchange      EXHF   =         0.00000000
  -V(xc)+E(xc)   XCENC  =        57.07248141
  PAW double counting   =       518.24077567     -517.29246024
  entropy T*S    EENTRO =        -0.00000000
  eigenvalues    EBANDS =      -281.26001993
  atomic energy  EATOM  =       701.20945335
  ---------------------------------------------------
  free energy    TOTEN  =       -29.30726257 eV

  energy without entropy =      -29.30726257  energy(sigma->0) =      -29.30726257


--------------------------------------------------------------------------------------------------------




--------------------------------------- Iteration      1(   4)  ---------------------------------------


    TRIAL :  cpu time      2.5286: real time      2.5295
    CORREC:  cpu time      0.0001: real time      0.0001
    --------------------------------------------
      LOOP:  cpu time      2.5575: real time      2.5585

 eigenvalue-minimisations  :    24
 total energy-change (2. order) :-0.1375513E+02  (-0.1366855E+02)
 number of electron      16.0000000 magnetization 
 augmentation part       16.0000000 magnetization 

 Free energy of the ion-electron system (eV)
  ---------------------------------------------------
  alpha Z        PSCENC =         0.07253111
  Ewald energy   TEWEN  =       622.82150315
  -Hartree energ DENC   =     -1130.17152709
  -exchange      EXHF   =         0.00000000
  -V(xc)+E(xc)   XCENC  =        57.07248141
  PAW double counting   =       518.24077567     -517.29246024
  entropy T*S    EENTRO =        -0.00000000
  eigenvalues    EBANDS =      -295.01515189
  atomic energy  EATOM  =       701.20945335
  ---------------------------------------------------
  free energy    TOTEN  =       -43.06239454 eV

  energy without entropy =      -43.06239454  energy(sigma->0) =      -43.06239454


--------------------------------------------------------------------------------------------------------




--------------------------------------- Iteration      1(   5)  ---------------------------------------


    TRIAL :  cpu time      2.9794: real time      2.9808
    CORREC:  cpu time      0.0001: real time      0.0001
    CHARGE:  cpu time      0.6837: real time      0.6843
    --------------------------------------------
      LOOP:  cpu time      3.6757: real time      3.6928

 eigenvalue-minimisations  :    32
 total energy-change (2. order) :-0.8596747E+00  (-0.8561076E+00)
 number of electron      16.0000000 magnetization 
 augmentation part       -0.0561810 magnetization 

 Free energy of the ion-electron system (eV)
  ---------------------------------------------------
  alpha Z        PSCENC =         0.07253111
  Ewald energy   TEWEN  =       622.82150315
  -Hartree energ DENC   =     -1130.17152709
  -exchange      EXHF   =         0.00000000
  -V(xc)+E(xc)   XCENC  =        57.07248141
  PAW double counting   =       518.24077567     -517.29246024
  entropy T*S    EENTRO =        -0.00000000
  eigenvalues    EBANDS =      -295.87482658
  atomic energy  EATOM  =       701.20945335
  ---------------------------------------------------
  free energy    TOTEN  =       -43.92206922 eV

  energy without entropy =      -43.92206922  energy(sigma->0) =      -43.92206922


--------------------------------------------------------------------------------------------------------




--------------------------------------- Iteration      1(   6)  ---------------------------------------


    POTLOK:  cpu time      3.5662: real time      3.5675
    SETDIJ:  cpu time      0.3265: real time      0.3265
    TRIAL :  cpu time      2.4983: real time      2.5003
    CORREC:  cpu time      5.1807: real time      5.1846
    CHARGE:  cpu time      0.6383: real time      0.6384
    --------------------------------------------
      LOOP:  cpu time     12.2271: real time     12.2489

 eigenvalue-minimisations  :     0
 total energy-change (2. order) : 0.1188273E+02  (-0.3110159E+01)
 number of electron      16.0000000 magnetization 
 augmentation part       -0.0679190 magnetization 

 Free energy of the ion-electron system (eV)
  ---------------------------------------------------
  alpha Z        PSCENC =         0.07253111
  Ewald energy   TEWEN  =       622.82150315
  -Hartree energ DENC   =     -1252.26886588
  -exchange      EXHF   =         0.00000000
  -V(xc)+E(xc)   XCENC  =        65.71036133
  PAW double counting   =      5744.90473648    -5744.99842337
  entropy T*S    EENTRO =        -0.00000000
  eigenvalues    EBANDS =      -169.49063472
  atomic energy  EATOM  =       701.20945335
  ---------------------------------------------------
  free energy    TOTEN  =       -32.03933855 eV

  energy without entropy =      -32.03933855  energy(sigma->0) =      -32.03933855


--------------------------------------------------------------------------------------------------------




--------------------------------------- Iteration      1(   7)  ---------------------------------------


    POTLOK:  cpu time      3.5460: real time      3.5480
    SETDIJ:  cpu time      0.3295: real time      0.3295
    TRIAL :  cpu time      2.4904: real time      2.4919
    CORREC:  cpu time      5.2282: real time      5.2309
    CHARGE:  cpu time      0.6399: real time      0.6404
    --------------------------------------------
      LOOP:  cpu time     12.2667: real time     12.2734

 eigenvalue-minimisations  :     0
 total energy-change (2. order) :-0.3136740E+01  (-0.3901480E+00)
 number of electron      16.0000000 magnetization 
 augmentation part       -0.0808143 magnetization 

 Free energy of the ion-electron system (eV)
  ---------------------------------------------------
  alpha Z        PSCENC =         0.07253111
  Ewald energy   TEWEN  =       622.82150315
  -Hartree energ DENC   =     -1195.52617137
  -exchange      EXHF   =         0.00000000
  -V(xc)+E(xc)   XCENC  =        61.91830660
  PAW double counting   =      7738.95268654    -7738.45383923
  entropy T*S    EENTRO =        -0.00000000
  eigenvalues    EBANDS =      -226.17054832
  atomic energy  EATOM  =       701.20945335
  ---------------------------------------------------
  free energy    TOTEN  =       -35.17607817 eV

  energy without entropy =      -35.17607817  energy(sigma->0) =      -35.17607817


--------------------------------------------------------------------------------------------------------




--------------------------------------- Iteration      1(   8)  ---------------------------------------


    POTLOK:  cpu time      3.5528: real time      3.5544
    SETDIJ:  cpu time      0.3223: real time      0.3223
    TRIAL :  cpu time      2.4854: real time      2.4868
    CORREC:  cpu time      5.1854: real time      5.1879
    CHARGE:  cpu time      0.6389: real time      0.6395
    --------------------------------------------
      LOOP:  cpu time     12.2202: real time     12.2264

 eigenvalue-minimisations  :     0
 total energy-change (2. order) :-0.3907189E+00  (-0.1695342E+00)
 number of electron      16.0000000 magnetization 
 augmentation part       -0.0816672 magnetization 

 Free energy of the ion-electron system (eV)
  ---------------------------------------------------
  alpha Z        PSCENC =         0.07253111
  Ewald energy   TEWEN  =       622.82150315
  -Hartree energ DENC   =     -1196.23214409
  -exchange      EXHF   =         0.00000000
  -V(xc)+E(xc)   XCENC  =        61.86428810
  PAW double counting   =      8646.40030430    -8645.82419812
  entropy T*S    EENTRO =        -0.00000000
  eigenvalues    EBANDS =      -225.87853490
  atomic energy  EATOM  =       701.20945335
  ---------------------------------------------------
  free energy    TOTEN  =       -35.56679712 eV

  energy without entropy =      -35.56679712  energy(sigma->0) =      -35.56679712


--------------------------------------------------------------------------------------------------------




--------------------------------------- Iteration      1(   9)  ---------------------------------------


    POTLOK:  cpu time      3.5586: real time      3.5600
    SETDIJ:  cpu time      0.3251: real time      0.3253
    TRIAL :  cpu time      2.4880: real time      2.4891
    CORREC:  cpu time      5.1926: real time      5.1949
    CHARGE:  cpu time      0.6378: real time      0.6381
    --------------------------------------------
      LOOP:  cpu time     12.2172: real time     12.2392

 eigenvalue-minimisations  :     0
 total energy-change (2. order) :-0.1681908E+00  (-0.6481585E-01)
 number of electron      16.0000000 magnetization 
 augmentation part       -0.0791207 magnetization 

 Free energy of the ion-electron system (eV)
  ---------------------------------------------------
  alpha Z        PSCENC =         0.07253111
  Ewald energy   TEWEN  =       622.82150315
  -Hartree energ DENC   =     -1196.49372206
  -exchange      EXHF   =         0.00000000
  -V(xc)+E(xc)   XCENC  =        61.86188209
  PAW double counting   =      9263.18937217    -9262.57719200
  entropy T*S    EENTRO =        -0.00000000
  eigenvalues    EBANDS =      -225.81881568
  atomic energy  EATOM  =       701.20945335
  ---------------------------------------------------
  free energy    TOTEN  =       -35.73498788 eV

  energy without entropy =      -35.73498788  energy(sigma->0) =      -35.73498788


--------------------------------------------------------------------------------------------------------




--------------------------------------- Iteration      1(  10)  ---------------------------------------


    POTLOK:  cpu time      3.5676: real time      3.5694
    SETDIJ:  cpu time      0.3263: real time      0.3263
    TRIAL :  cpu time      2.4876: real time      2.4888
    CORREC:  cpu time      5.2051: real time      5.2083
    CHARGE:  cpu time      0.6405: real time      0.6405
    --------------------------------------------
      LOOP:  cpu time     12.2588: real time     12.2650

 eigenvalue-minimisations  :     0
 total energy-change (2. order) :-0.6462018E-01  (-0.2194466E-01)
 number of electron      16.0000000 magnetization 
 augmentation part       -0.0772905 magnetization 

 Free energy of the ion-electron system (eV)
  ---------------------------------------------------
  alpha Z        PSCENC =         0.07253111
  Ewald energy   TEWEN  =       622.82150315
  -Hartree energ DENC   =     -1195.48506450
  -exchange      EXHF   =         0.00000000
  -V(xc)+E(xc)   XCENC  =        61.82791765
  PAW double counting   =      9330.11004999    -9329.49574072
  entropy T*S    EENTRO =        -0.00000000
  eigenvalues    EBANDS =      -226.86025809
  atomic energy  EATOM  =       701.20945335
  ---------------------------------------------------
  free energy    TOTEN  =       -35.79960806 eV

  energy without entropy =      -35.79960806  energy(sigma->0) =      -35.79960806


--------------------------------------------------------------------------------------------------------




--------------------------------------- Iteration      1(  11)  ---------------------------------------


    POTLOK:  cpu time      3.5728: real time      3.5748
    SETDIJ:  cpu time      0.3274: real time      0.3274
    TRIAL :  cpu time      2.4855: real time      2.4869
    CORREC:  cpu time      5.2076: real time      5.2101
    CHARGE:  cpu time      0.6389: real time      0.6393
    --------------------------------------------
      LOOP:  cpu time     12.2482: real time     12.2699

 eigenvalue-minimisations  :     0
 total energy-change (2. order) :-0.2189254E-01  (-0.6962365E-02)
 number of electron      16.0000000 magnetization 
 augmentation part       -0.0761596 magnetization 

 Free energy of the ion-electron system (eV)
  ---------------------------------------------------
  alpha Z        PSCENC =         0.07253111
  Ewald energy   TEWEN  =       622.82150315
  -Hartree energ DENC   =     -1195.10919544
  -exchange      EXHF   =         0.00000000
  -V(xc)+E(xc)   XCENC  =        61.82391229
  PAW double counting   =      9153.98228455    -9153.38108714
  entropy T*S    EENTRO =        -0.00000000
  eigenvalues    EBANDS =      -227.24090247
  atomic energy  EATOM  =       701.20945335
  ---------------------------------------------------
  free energy    TOTEN  =       -35.82150060 eV

  energy without entropy =      -35.82150060  energy(sigma->0) =      -35.82150060


--------------------------------------------------------------------------------------------------------




--------------------------------------- Iteration      1(  12)  ---------------------------------------


    POTLOK:  cpu time      3.5756: real time      3.5775
    SETDIJ:  cpu time      0.3230: real time      0.3233
    TRIAL :  cpu time      2.4855: real time      2.4867
    CORREC:  cpu time      5.1997: real time      5.2021
    CHARGE:  cpu time      0.6381: real time      0.6386
    --------------------------------------------
      LOOP:  cpu time     12.2417: real time     12.2600

 eigenvalue-minimisations  :     0
 total energy-change (2. order) :-0.6948881E-02  (-0.2098025E-02)
 number of electron      16.0000000 magnetization 
 augmentation part       -0.0758727 magnetization 

 Free energy of the ion-electron system (eV)
  ---------------------------------------------------
  alpha Z        PSCENC =         0.07253111
  Ewald energy   TEWEN  =       622.82150315
  -Hartree energ DENC   =     -1194.88125120
  -exchange      EXHF   =         0.00000000
  -V(xc)+E(xc)   XCENC  =        61.81285094
  PAW double counting   =      9013.72911292    -9013.13538310
  entropy T*S    EENTRO =        -0.00000000
  eigenvalues    EBANDS =      -227.45726664
  atomic energy  EATOM  =       701.20945335
  ---------------------------------------------------
  free energy    TOTEN  =       -35.82844948 eV

  energy without entropy =      -35.82844948  energy(sigma->0) =      -35.82844948


--------------------------------------------------------------------------------------------------------




--------------------------------------- Iteration      1(  13)  ---------------------------------------


    POTLOK:  cpu time      3.5790: real time      3.5804
    SETDIJ:  cpu time      0.3265: real time      0.3268
    TRIAL :  cpu time      2.4874: real time      2.4885
    CORREC:  cpu time      5.2092: real time      5.2116
    CHARGE:  cpu time      0.6364: real time      0.6369
    --------------------------------------------
      LOOP:  cpu time     12.2543: real time     12.2751

 eigenvalue-minimisations  :     0
 total energy-change (2. order) :-0.2097145E-02  (-0.6343925E-03)
 number of electron      16.0000000 magnetization 
 augmentation part       -0.0759575 magnetization 

 Free energy of the ion-electron system (eV)
  ---------------------------------------------------
  alpha Z        PSCENC =         0.07253111
  Ewald energy   TEWEN  =       622.82150315
  -Hartree energ DENC   =     -1194.78915459
  -exchange      EXHF   =         0.00000000
  -V(xc)+E(xc)   XCENC  =        61.80704417
  PAW double counting   =      8955.94545699    -8955.35337324
  entropy T*S    EENTRO =        -0.00000000
  eigenvalues    EBANDS =      -227.54400756
  atomic energy  EATOM  =       701.20945335
  ---------------------------------------------------
  free energy    TOTEN  =       -35.83054662 eV

  energy without entropy =      -35.83054662  energy(sigma->0) =      -35.83054662


--------------------------------------------------------------------------------------------------------




--------------------------------------- Iteration      1(  14)  ---------------------------------------


    POTLOK:  cpu time      3.5809: real time      3.5826
    SETDIJ:  cpu time      0.3255: real time      0.3255
    TRIAL :  cpu time      2.4887: real time      2.4902
    CORREC:  cpu time      5.2069: real time      5.2093
    CHARGE:  cpu time      0.6400: real time      0.6400
    --------------------------------------------
      LOOP:  cpu time     12.2616: real time     12.2794

 eigenvalue-minimisations  :     0
 total energy-change (2. order) :-0.6339899E-03  (-0.1953027E-03)
 number of electron      16.0000000 magnetization 
 augmentation part       -0.0760602 magnetization 

 Free energy of the ion-electron system (eV)
  ---------------------------------------------------
  alpha Z        PSCENC =         0.07253111
  Ewald energy   TEWEN  =       622.82150315
  -Hartree energ DENC   =     -1194.78184009
  -exchange      EXHF   =         0.00000000
  -V(xc)+E(xc)   XCENC  =        61.80695140
  PAW double counting   =      8940.61201703    -8940.01970594
  entropy T*S    EENTRO =        -0.00000000
  eigenvalues    EBANDS =      -227.55209061
  atomic energy  EATOM  =       701.20945335
  ---------------------------------------------------
  free energy    TOTEN  =       -35.83118061 eV

  energy without entropy =      -35.83118061  energy(sigma->0) =      -35.83118061


--------------------------------------------------------------------------------------------------------




--------------------------------------- Iteration      1(  15)  ---------------------------------------


    POTLOK:  cpu time      3.5786: real time      3.5810
    SETDIJ:  cpu time      0.3249: real time      0.3249
    TRIAL :  cpu time      2.4854: real time      2.4871
    CORREC:  cpu time      5.2045: real time      5.2072
    CHARGE:  cpu time      0.6383: real time      0.6390
    --------------------------------------------
      LOOP:  cpu time     12.2619: real time     12.2693

 eigenvalue-minimisations  :     0
 total energy-change (2. order) :-0.1948942E-03  (-0.6444913E-04)
 number of electron      16.0000000 magnetization 
 augmentation part       -0.0761084 magnetization 

 Free energy of the ion-electron system (eV)
  ---------------------------------------------------
  alpha Z        PSCENC =         0.07253111
  Ewald energy   TEWEN  =       622.82150315
  -Hartree energ DENC   =     -1194.79510628
  -exchange      EXHF   =         0.00000000
  -V(xc)+E(xc)   XCENC  =        61.80752816
  PAW double counting   =      8937.26158691    -8936.66886882
  entropy T*S    EENTRO =        -0.00000000
  eigenvalues    EBANDS =      -227.54000308
  atomic energy  EATOM  =       701.20945335
  ---------------------------------------------------
  free energy    TOTEN  =       -35.83137551 eV

  energy without entropy =      -35.83137551  energy(sigma->0) =      -35.83137551


--------------------------------------------------------------------------------------------------------




--------------------------------------- Iteration      1(  16)  ---------------------------------------


    POTLOK:  cpu time      3.5780: real time      3.5797
    SETDIJ:  cpu time      0.3241: real time      0.3244
    TRIAL :  cpu time      2.4911: real time      2.4924
    CORREC:  cpu time      5.2101: real time      5.2122
    CHARGE:  cpu time      0.6385: real time      0.6392
    --------------------------------------------
      LOOP:  cpu time     12.2582: real time     12.2796

 eigenvalue-minimisations  :     0
 total energy-change (2. order) :-0.6426754E-04  (-0.2480605E-04)
 number of electron      16.0000000 magnetization 
 augmentation part       -0.0761250 magnetization 

 Free energy of the ion-electron system (eV)
  ---------------------------------------------------
  alpha Z        PSCENC =         0.07253111
  Ewald energy   TEWEN  =       622.82150315
  -Hartree energ DENC   =     -1194.79235915
  -exchange      EXHF   =         0.00000000
  -V(xc)+E(xc)   XCENC  =        61.80689158
  PAW double counting   =      8934.95531933    -8934.36230456
  entropy T*S    EENTRO =        -0.00000000
  eigenvalues    EBANDS =      -227.54247457
  atomic energy  EATOM  =       701.20945335
  ---------------------------------------------------
  free energy    TOTEN  =       -35.83143977 eV

  energy without entropy =      -35.83143977  energy(sigma->0) =      -35.83143977


--------------------------------------------------------------------------------------------------------




--------------------------------------- Iteration      1(  17)  ---------------------------------------


    POTLOK:  cpu time      3.5799: real time      3.5819
    SETDIJ:  cpu time      0.3302: real time      0.3302
    TRIAL :  cpu time      2.4850: real time      2.4862
    CORREC:  cpu time      5.2089: real time      5.2117
    CHARGE:  cpu time      0.6383: real time      0.6383
    --------------------------------------------
      LOOP:  cpu time     12.2604: real time     12.2816

 eigenvalue-minimisations  :     0
 total energy-change (2. order) :-0.2467782E-04  (-0.1069265E-04)
 number of electron      16.0000000 magnetization 
 augmentation part       -0.0761278 magnetization 

 Free energy of the ion-electron system (eV)
  ---------------------------------------------------
  alpha Z        PSCENC =         0.07253111
  Ewald energy   TEWEN  =       622.82150315
  -Hartree energ DENC   =     -1194.80118491
  -exchange      EXHF   =         0.00000000
  -V(xc)+E(xc)   XCENC  =        61.80726275
  PAW double counting   =      8932.70411072    -8932.11113097
  entropy T*S    EENTRO =        -0.00000000
  eigenvalues    EBANDS =      -227.53400963
  atomic energy  EATOM  =       701.20945335
  ---------------------------------------------------
  free energy    TOTEN  =       -35.83146445 eV

  energy without entropy =      -35.83146445  energy(sigma->0) =      -35.83146445


--------------------------------------------------------------------------------------------------------




--------------------------------------- Iteration      1(  18)  ---------------------------------------


    POTLOK:  cpu time      3.5765: real time      3.5784
    SETDIJ:  cpu time      0.3232: real time      0.3232
    TRIAL :  cpu time      2.4885: real time      2.4903
    CORREC:  cpu time      5.2069: real time      5.2095
    CHARGE:  cpu time      0.6388: real time      0.6388
    --------------------------------------------
      LOOP:  cpu time     12.2498: real time     12.2712

 eigenvalue-minimisations  :     0
 total energy-change (2. order) :-0.1063780E-04  (-0.4608904E-05)
 number of electron      16.0000000 magnetization 
 augmentation part       -0.0761265 magnetization 

 Free energy of the ion-electron system (eV)
  ---------------------------------------------------
  alpha Z        PSCENC =         0.07253111
  Ewald energy   TEWEN  =       622.82150315
  -Hartree energ DENC   =     -1194.80974210
  -exchange      EXHF   =         0.00000000
  -V(xc)+E(xc)   XCENC  =        61.80769243
  PAW double counting   =      8932.71692121    -8932.12403436
  entropy T*S    EENTRO =        -0.00000000
  eigenvalues    EBANDS =      -227.52579988
  atomic energy  EATOM  =       701.20945335
  ---------------------------------------------------
  free energy    TOTEN  =       -35.83147509 eV

  energy without entropy =      -35.83147509  energy(sigma->0) =      -35.83147509


--------------------------------------------------------------------------------------------------------




--------------------------------------- Iteration      1(  19)  ---------------------------------------


    POTLOK:  cpu time      3.5785: real time      3.5802
    SETDIJ:  cpu time      0.3318: real time      0.3318
    TRIAL :  cpu time      2.4854: real time      2.4872
    CORREC:  cpu time      5.2086: real time      5.2115
    CHARGE:  cpu time      0.6388: real time      0.6396
    --------------------------------------------
      LOOP:  cpu time     12.2612: real time     12.2809

 eigenvalue-minimisations  :     0
 total energy-change (2. order) :-0.4635882E-05  (-0.1768848E-05)
 number of electron      16.0000000 magnetization 
 augmentation part       -0.0761246 magnetization 

 Free energy of the ion-electron system (eV)
  ---------------------------------------------------
  alpha Z        PSCENC =         0.07253111
  Ewald energy   TEWEN  =       622.82150315
  -Hartree energ DENC   =     -1194.81019927
  -exchange      EXHF   =         0.00000000
  -V(xc)+E(xc)   XCENC  =        61.80764960
  PAW double counting   =      8935.08186857    -8934.48897439
  entropy T*S    EENTRO =        -0.00000000
  eigenvalues    EBANDS =      -227.52531184
  atomic energy  EATOM  =       701.20945335
  ---------------------------------------------------
  free energy    TOTEN  =       -35.83147973 eV

  energy without entropy =      -35.83147973  energy(sigma->0) =      -35.83147973


--------------------------------------------------------------------------------------------------------




--------------------------------------- Iteration      1(  20)  ---------------------------------------


    POTLOK:  cpu time      3.5728: real time      3.5743
    SETDIJ:  cpu time      0.3322: real time      0.3326
    TRIAL :  cpu time      2.4849: real time      2.4862
    CORREC:  cpu time      5.2133: real time      5.2158
    CHARGE:  cpu time      0.6390: real time      0.6393
    --------------------------------------------
      LOOP:  cpu time     12.2564: real time     12.2786

 eigenvalue-minimisations  :     0
 total energy-change (2. order) :-0.1793318E-05  (-0.6489279E-06)
 number of electron      16.0000000 magnetization 
 augmentation part       -0.0761226 magnetization 

 Free energy of the ion-electron system (eV)
  ---------------------------------------------------
  alpha Z        PSCENC =         0.07253111
  Ewald energy   TEWEN  =       622.82150315
  -Hartree energ DENC   =     -1194.81077470
  -exchange      EXHF   =         0.00000000
  -V(xc)+E(xc)   XCENC  =        61.80774571
  PAW double counting   =      8937.47519032    -8936.88228853
  entropy T*S    EENTRO =        -0.00000000
  eigenvalues    EBANDS =      -227.52484193
  atomic energy  EATOM  =       701.20945335
  ---------------------------------------------------
  free energy    TOTEN  =       -35.83148152 eV

  energy without entropy =      -35.83148152  energy(sigma->0) =      -35.83148152


--------------------------------------------------------------------------------------------------------




--------------------------------------- Iteration      1(  21)  ---------------------------------------


    POTLOK:  cpu time      3.5773: real time      3.5792
    SETDIJ:  cpu time      0.3239: real time      0.3240
    TRIAL :  cpu time      2.4867: real time      2.4877
    CORREC:  cpu time      5.2110: real time      5.2138
    CHARGE:  cpu time      0.6382: real time      0.6383
    --------------------------------------------
      LOOP:  cpu time     12.2699: real time     12.2758

 eigenvalue-minimisations  :     0
 total energy-change (2. order) :-0.6687169E-06  (-0.2333046E-06)
 number of electron      16.0000000 magnetization 
 augmentation part       -0.0761209 magnetization 

 Free energy of the ion-electron system (eV)
  ---------------------------------------------------
  alpha Z        PSCENC =         0.07253111
  Ewald energy   TEWEN  =       622.82150315
  -Hartree energ DENC   =     -1194.80979727
  -exchange      EXHF   =         0.00000000
  -V(xc)+E(xc)   XCENC  =        61.80771528
  PAW double counting   =      8938.74061877    -8938.14769783
  entropy T*S    EENTRO =        -0.00000000
  eigenvalues    EBANDS =      -227.52580875
  atomic energy  EATOM  =       701.20945335
  ---------------------------------------------------
  free energy    TOTEN  =       -35.83148219 eV

  energy without entropy =      -35.83148219  energy(sigma->0) =      -35.83148219


--------------------------------------------------------------------------------------------------------




--------------------------------------- Iteration      1(  22)  ---------------------------------------


    POTLOK:  cpu time      3.5774: real time      3.5793
    SETDIJ:  cpu time      0.3448: real time      0.3448
    TRIAL :  cpu time      2.4929: real time      2.4946
    CORREC:  cpu time      5.2104: real time      5.2132
    CHARGE:  cpu time      0.6385: real time      0.6394
    --------------------------------------------
      LOOP:  cpu time     12.2775: real time     12.3025

 eigenvalue-minimisations  :     0
 total energy-change (2. order) :-0.2426332E-06  (-0.8525623E-07)
 number of electron      16.0000000 magnetization 
 augmentation part       -0.0761200 magnetization 

 Free energy of the ion-electron system (eV)
  ---------------------------------------------------
  alpha Z        PSCENC =         0.07253111
  Ewald energy   TEWEN  =       622.82150315
  -Hartree energ DENC   =     -1194.80917567
  -exchange      EXHF   =         0.00000000
  -V(xc)+E(xc)   XCENC  =        61.80767964
  PAW double counting   =      8938.95222880    -8938.35929842
  entropy T*S    EENTRO =        -0.00000000
  eigenvalues    EBANDS =      -227.52640439
  atomic energy  EATOM  =       701.20945335
  ---------------------------------------------------
  free energy    TOTEN  =       -35.83148243 eV

  energy without entropy =      -35.83148243  energy(sigma->0) =      -35.83148243


--------------------------------------------------------------------------------------------------------




--------------------------------------- Iteration      1(  23)  ---------------------------------------


    POTLOK:  cpu time      3.5776: real time      3.5791
    SETDIJ:  cpu time      0.3256: real time      0.3259
    TRIAL :  cpu time      2.4920: real time      2.4932
    CORREC:  cpu time      5.2092: real time      5.2119
    EDDIAG:  cpu time      0.6477: real time      0.6486
    CHARGE:  cpu time      0.6389: real time      0.6393
    --------------------------------------------
      LOOP:  cpu time     12.9074: real time     12.9301

 eigenvalue-minimisations  :     0
 total energy-change (2. order) :-0.8799361E-07  (-0.3084425E-07)
 number of electron      16.0000000 magnetization 
 augmentation part       -0.0761200 magnetization 

 Free energy of the ion-electron system (eV)
  ---------------------------------------------------
  alpha Z        PSCENC =         0.07253111
  Ewald energy   TEWEN  =       622.82150315
  -Hartree energ DENC   =     -1194.80897420
  -exchange      EXHF   =         0.00000000
  -V(xc)+E(xc)   XCENC  =        61.80767388
  PAW double counting   =      8938.68674375    -8938.09381376
  entropy T*S    EENTRO =        -0.00000000
  eigenvalues    EBANDS =      -227.52659979
  atomic energy  EATOM  =       701.20945335
  ---------------------------------------------------
  free energy    TOTEN  =       -35.83148252 eV

  energy without entropy =      -35.83148252  energy(sigma->0) =      -35.83148252


--------------------------------------------------------------------------------------------------------


  average scaling for gradient   0.8950


 average (electrostatic) potential at core
  the test charge radii are     0.5770  0.4325  0.5902
  (the norm of the test charge is              1.0000)
       1 -90.2378       2 -50.7222       3 -50.7182       4-108.3836       5-106.0092



 E-fermi :  -6.8700     XC(G=0):  -0.0721     alpha+bet : -0.0324

 Fermi energy:        -6.8699912550

 k-point     1 :       0.0000    0.0000    0.0000
  band No.  band energies     occupation 
      1     -25.5623      2.00000
      2     -23.1424      2.00000
      3     -15.7276      2.00000
      4     -14.5745      2.00000
      5     -10.3318      2.00000
      6      -8.9884      2.00000
      7      -8.4513      2.00000
      8      -6.9850      2.00000
      9      -0.7995      0.00000
     10      -0.2365      0.00000
     11       0.3433      0.00000
     12       0.3774      0.00000


--------------------------------------------------------------------------------------------------------


 soft charge-density along one line, spin component           1
         0         1         2         3         4         5         6         7         8         9
 total charge-density along one line

 pseudopotential strength for first ion, spin component:           1
 12.737  21.434   0.008  -0.014  -0.002   0.014  -0.025  -0.003
 21.434  36.065   0.013  -0.023  -0.003   0.024  -0.043  -0.005
  0.008   0.013  -3.269  -0.002   0.001  -5.859  -0.002   0.001
 -0.014  -0.023  -0.002  -3.266   0.000  -0.002  -5.854   0.000
 -0.002  -0.003   0.001   0.000  -3.270   0.001   0.000  -5.860
  0.014   0.024  -5.859  -0.002   0.001 -10.479  -0.004   0.002
 -0.025  -0.043  -0.002  -5.854   0.000  -0.004 -10.472   0.000
 -0.003  -0.005   0.001   0.000  -5.860   0.002   0.000 -10.481
 total augmentation occupancy for first ion, spin component:           1
 10.887  -4.230  -0.767   1.918  -0.055   0.326  -0.827   0.028
 -4.230   1.721   0.298  -0.794   0.039  -0.137   0.358  -0.016
 -0.767   0.298   6.064  -3.789  -0.173  -2.055   1.651   0.086
  1.918  -0.794  -3.789  11.774   0.317   1.651  -4.527  -0.141
 -0.055   0.039  -0.173   0.317   4.191   0.086  -0.141  -1.240
  0.326  -0.137  -2.055   1.651   0.086   0.720  -0.705  -0.037
 -0.827   0.358   1.651  -4.527  -0.141  -0.705   1.772   0.062
  0.028  -0.016   0.086  -0.141  -1.240  -0.037   0.062   0.372


------------------------ aborting loop because EDIFF is reached ----------------------------------------


    FORLOC:  cpu time      0.0605: real time      0.0606
    FORNL :  cpu time      0.0150: real time      0.0153
    FORCOR:  cpu time      3.3455: real time      3.3472
    OFIELD:  cpu time      0.0096: real time      0.0098

 VOLUME and BASIS-vectors are now :
 -----------------------------------------------------------------------------
  energy-cutoff  :     1000.00
  volume of cell :    10648.00
      direct lattice vectors                 reciprocal lattice vectors
    22.000000000  0.000000000  0.000000000     0.045454545  0.000000000  0.000000000
     0.000000000 22.000000000  0.000000000     0.000000000  0.045454545  0.000000000
     0.000000000  0.000000000 22.000000000     0.000000000  0.000000000  0.045454545

  length of vectors
    22.000000000 22.000000000 22.000000000     0.045454545  0.045454545  0.045454545


 FORCES acting on ions:
    Electron-Ion                     Ewald-Force                    Non-Local-Force
 -----------------------------------------------------------------------------------------------
   -.200E+01 -.127E+02 0.389E+02   0.314E+01 0.634E+01 -.273E+02   -.114E+01 0.640E+01 -.116E+02
   0.236E+02 0.375E+02 0.715E+02   -.257E+02 -.415E+02 -.771E+02   0.219E+01 0.418E+01 0.587E+01
   -.576E+02 -.548E+02 0.276E+02   0.630E+02 0.592E+02 -.291E+02   -.564E+01 -.471E+01 0.161E+01
   0.305E+02 -.819E+02 0.118E+03   -.477E+02 0.988E+02 -.121E+03   0.173E+02 -.171E+02 0.389E+01
   -.646E+01 0.106E+03 -.219E+03   0.733E+01 -.123E+03 0.255E+03   -.889E+00 0.173E+02 -.367E+02
 -----------------------------------------------------------------------------------------------
   -.118E+02 -.614E+01 0.369E+02   -.888E-15 0.000E+00 -.568E-13   0.118E+02 0.614E+01 -.369E+02


 POSITION                                       TOTAL-FORCE (eV/Angst)
 -----------------------------------------------------------------------------------
     10.84030     10.62328     11.45798         0.008109     -0.131741      0.417554
     10.47311     10.68276      9.49112         0.092478      0.140585      0.268067
     11.52689     11.87916     10.06258        -0.233855     -0.219193      0.094994
     10.74997     11.26105     10.27863         0.158799     -0.185837      0.119770
     10.86924     10.12084     12.50888        -0.025530      0.396186     -0.900385
 -----------------------------------------------------------------------------------
    total drift:                               -0.000197      0.000203     -0.000682


--------------------------------------------------------------------------------------------------------



  FREE ENERGIE OF THE ION-ELECTRON SYSTEM (eV)
  ---------------------------------------------------
  free  energy   TOTEN  =       -35.83148252 eV

  energy  without entropy=      -35.83148252  energy(sigma->0) =      -35.83148252



--------------------------------------------------------------------------------------------------------


    POTLOK:  cpu time      3.9184: real time      3.9204


--------------------------------------------------------------------------------------------------------


 stress matrix after NEB project (eV)
      0.00000      0.00000      0.00000
      0.00000      0.00000      0.00000
      0.00000      0.00000      0.00000
  FORCES: max atom, RMS     0.984027    0.537794
  FORCE total and by dimension    1.202544    0.900385
  Stress total and by dimension    0.000000    0.000000
     LOOP+:  cpu time    249.0538: real time    249.4275
    4ORBIT:  cpu time      0.0000: real time      0.0000

 total amount of memory used by VASP MPI-rank0   174824. kBytes
=======================================================================

   base      :      30000. kBytes
   nonl-proj :       3245. kBytes
   fftplans  :      40084. kBytes
   grid      :      99778. kBytes
   one-center:          1. kBytes
   wavefun   :       1716. kBytes

  
  
 General timing and accounting informations for this job:
 ========================================================
  
                  Total CPU time used (sec):      271.234
                            User time (sec):      255.752
                          System time (sec):       15.482
                         Elapsed time (sec):      275.089
  
                   Maximum memory used (kb):      435388.
                   Average memory used (kb):          N/A
  
                          Minor page faults:       280775
                          Major page faults:         1155
                 Voluntary context switches:         3914
