 vasp.6.4.1 05Apr23 (build Jun  6 2023 14:46:38) gamma-only                      
 executed on        HPECrayEX_GCC date 2024.08.21  08:45:50
 running  256 mpi-ranks, with    1 threads/rank, on    2 nodes
 distrk:  each k-point on  256 cores,    1 groups
 distr:  one band on NCORE=   2 cores,  128 groups


--------------------------------------------------------------------------------------------------------


 INCAR:
   ALGO = Conjugate
   NCORE = 2
   PREC = Accurate
   EDIFF = 1E-7
   ENCUT = 1000
   ISMEAR = 0
   SIGMA = 0.01
   ISIF = 0
   SYMPREC = 1E-7
   IVDW = 11
   LWAVE = .FALSE.
   LCHARG = .FALSE.
   LWAVE = .FALSE.
   LCHARG = .FALSE.

 POTCAR:    PAW_PBE C_h 06Feb2004                 
 POTCAR:    PAW_PBE H_h 06Feb2004                 
 POTCAR:    PAW_PBE N_h 06Feb2004                 
 POTCAR:    PAW_PBE C_h 06Feb2004                 
   VRHFIN =C: s2p2                                                                                  
   LEXCH  = PE                                                                                      
   EATOM  =   147.1560 eV,   10.8157 Ry                                                             
                                                                                                    
   TITEL  = PAW_PBE C_h 06Feb2004                                                                   
   LULTRA =        F    use ultrasoft PP ?                                                          
   IUNSCR =        1    unscreen: 0-lin 1-nonlin 2-no                                               
   RPACOR =    0.800    partial core radius                                                         
   POMASS =   12.011; ZVAL   =    4.000    mass and valenz                                          
   RCORE  =    1.100    outmost cutoff radius                                                       
   RWIGS  =    1.630; RWIGS  =    0.863    wigner-seitz radius (au A)                               
   ENMAX  =  700.000; ENMIN  =  500.000 eV                                                          
   ICORE  =        2    local potential                                                             
   LCOR   =        T    correct aug charges                                                         
   LPAW   =        T    paw PP                                                                      
   EAUG   =  946.768                                                                                
   DEXC   =    0.000                                                                                
   RMAX   =    1.128    core radius for proj-oper                                                   
   RAUG   =    1.300    factor for augmentation sphere                                              
   RDEP   =    1.162    radius for radial grids                                                     
   RDEPT  =    1.088    core radius for aug-charge                                                  
                                                                                                    
   Atomic configuration                                                                             
    4 entries                                                                                       
     n  l   j            E        occ.                                                              
     1  0  0.50      -273.3789   2.0000                                                             
     2  0  0.50       -13.7508   2.0000                                                             
     2  1  0.50        -5.2854   2.0000                                                             
     3  2  1.50        -5.4423   0.0000                                                             
   Description                                                                                      
     l       E           TYP  RCUT    TYP  RCUT                                                     
     0    -13.7508458     23  1.100                                                                 
     0     -8.2022199     23  1.100                                                                 
     1     -5.2854383     23  1.100                                                                 
     1      1.1560700     23  1.100                                                                 
     2     -5.4423304      7  1.100                                                                 
  local pseudopotential read in
  partial core-charges read in
  partial kinetic energy density read in
  atomic valenz-charges read in
  non local Contribution for L=           0  read in
    real space projection operators read in
  non local Contribution for L=           0  read in
    real space projection operators read in
  non local Contribution for L=           1  read in
    real space projection operators read in
  non local Contribution for L=           1  read in
    real space projection operators read in
    PAW grid and wavefunctions read in

   number of l-projection  operators is LMAX  =           4
   number of lm-projection operators is LMMAX =           8

 POTCAR:    PAW_PBE H_h 06Feb2004                 
   VRHFIN =H: ultrasoft test                                                                        
   LEXCH  = PE                                                                                      
   EATOM  =    12.4884 eV,    0.9179 Ry                                                             
                                                                                                    
   TITEL  = PAW_PBE H_h 06Feb2004                                                                   
   LULTRA =        F    use ultrasoft PP ?                                                          
   IUNSCR =        0    unscreen: 0-lin 1-nonlin 2-no                                               
   RPACOR =    0.000    partial core radius                                                         
   POMASS =    1.000; ZVAL   =    1.000    mass and valenz                                          
   RCORE  =    0.800    outmost cutoff radius                                                       
   RWIGS  =    0.700; RWIGS  =    0.370    wigner-seitz radius (au A)                               
   ENMAX  =  700.000; ENMIN  =  350.000 eV                                                          
   RCLOC  =    0.701    cutoff for local pot                                                        
   LCOR   =        T    correct aug charges                                                         
   LPAW   =        T    paw PP                                                                      
   EAUG   = 1000.000                                                                                
   RMAX   =    0.819    core radius for proj-oper                                                   
   RAUG   =    1.000    factor for augmentation sphere                                              
   RDEP   =    0.817    radius for radial grids                                                     
   RDEPT  =    0.817    core radius for aug-charge                                                  
                                                                                                    
   Atomic configuration                                                                             
    2 entries                                                                                       
     n  l   j            E        occ.                                                              
     1  0  0.50        -6.4927   1.0000                                                             
     2  1  0.50        -3.4015   0.0000                                                             
   Description                                                                                      
     l       E           TYP  RCUT    TYP  RCUT                                                     
     0     -6.4927493     23  0.800                                                                 
     0      6.8029130     23  0.800                                                                 
     1     -6.8029130     23  0.800                                                                 
  local pseudopotential read in
  atomic valenz-charges read in
  non local Contribution for L=           0  read in
    real space projection operators read in
  non local Contribution for L=           0  read in
    real space projection operators read in
  non local Contribution for L=           1  read in
    real space projection operators read in
    PAW grid and wavefunctions read in

   number of l-projection  operators is LMAX  =           3
   number of lm-projection operators is LMMAX =           5

 POTCAR:    PAW_PBE N_h 06Feb2004                 
   VRHFIN =N: s2p3                                                                                  
   LEXCH  = PE                                                                                      
   EATOM  =   264.5486 eV,   19.4438 Ry                                                             
                                                                                                    
   TITEL  = PAW_PBE N_h 06Feb2004                                                                   
   LULTRA =        F    use ultrasoft PP ?                                                          
   IUNSCR =        1    unscreen: 0-lin 1-nonlin 2-no                                               
   RPACOR =    0.800    partial core radius                                                         
   POMASS =   14.001; ZVAL   =    5.000    mass and valenz                                          
   RCORE  =    1.100    outmost cutoff radius                                                       
   RWIGS  =    1.480; RWIGS  =    0.783    wigner-seitz radius (au A)                               
   ENMAX  =  700.000; ENMIN  =  500.000 eV                                                          
   ICORE  =        2    local potential                                                             
   LCOR   =        T    correct aug charges                                                         
   LPAW   =        T    paw PP                                                                      
   EAUG   =  904.640                                                                                
   DEXC   =    0.000                                                                                
   RMAX   =    1.127    core radius for proj-oper                                                   
   RAUG   =    1.300    factor for augmentation sphere                                              
   RDEP   =    1.115    radius for radial grids                                                     
   RDEPT  =    1.106    core radius for aug-charge                                                  
                                                                                                    
   Atomic configuration                                                                             
    4 entries                                                                                       
     n  l   j            E        occ.                                                              
     1  0  0.50      -384.7179   2.0000                                                             
     2  0  0.50       -18.5828   2.0000                                                             
     2  1  0.50        -7.0898   3.0000                                                             
     3  2  1.50        -6.8029   0.0000                                                             
   Description                                                                                      
     l       E           TYP  RCUT    TYP  RCUT                                                     
     0    -18.5828117     23  1.100                                                                 
     0    -15.0750597     23  1.100                                                                 
     1     -7.0897851     23  1.100                                                                 
     1     -1.9663412     23  1.100                                                                 
     2     -6.8029130      7  1.100                                                                 
  local pseudopotential read in
  partial core-charges read in
  partial kinetic energy density read in
  kinetic energy density of atom read in
  atomic valenz-charges read in
  non local Contribution for L=           0  read in
    real space projection operators read in
  non local Contribution for L=           0  read in
    real space projection operators read in
  non local Contribution for L=           1  read in
    real space projection operators read in
  non local Contribution for L=           1  read in
    real space projection operators read in
    PAW grid and wavefunctions read in

   number of l-projection  operators is LMAX  =           4
   number of lm-projection operators is LMMAX =           8

  PAW_PBE C_h 06Feb2004                 :
 energy of atom  1       EATOM= -147.1560
 kinetic energy error for atom=    0.0031 (will be added to EATOM!!)
  PAW_PBE H_h 06Feb2004                 :
 energy of atom  2       EATOM=  -12.4884
 kinetic energy error for atom=    0.0006 (will be added to EATOM!!)
  PAW_PBE N_h 06Feb2004                 :
 energy of atom  3       EATOM= -264.5486
 kinetic energy error for atom=    0.0081 (will be added to EATOM!!)


 POSCAR:  C  H  N
  positions in cartesian coordinates
  No initial velocities read in
 exchange correlation table for  LEXCH =        8
   RHO(1)=    0.500       N(1)  =     2000
   RHO(2)=  100.500       N(2)  =     4000

 VTST: version 4.1, (05/19/21)

 CHAIN: initializing optimizer
 
 OPT: Using VASP Dynamics algorithm
 CHAIN: Read ICHAIN            0

 POSCAR:  C  H  N
  positions in cartesian coordinates
  No initial velocities read in



--------------------------------------------------------------------------------------------------------


 ion  position               nearest neighbor table
   1  0.493  0.483  0.521-   5 1.17   4 1.34
   2  0.476  0.486  0.431-   4 1.02
   3  0.524  0.540  0.457-   4 1.02
   4  0.489  0.512  0.467-   2 1.02   3 1.02   1 1.34
   5  0.494  0.460  0.569-   1 1.17

  LATTYP: Found a simple cubic cell.
 ALAT       =    22.0000000000
  
  Lattice vectors:
  
 A1 = (  22.0000000000,   0.0000000000,   0.0000000000)
 A2 = (   0.0000000000,  22.0000000000,   0.0000000000)
 A3 = (   0.0000000000,   0.0000000000,  22.0000000000)


Analysis of symmetry for initial positions (statically):
=====================================================================
 Subroutine PRICEL returns:
 Original cell was already a primitive cell.
 

 Routine SETGRP: Setting up the symmetry group for a 
 simple cubic supercell.


 Subroutine GETGRP returns: Found  1 space group operations
 (whereof  1 operations were pure point group operations)
 out of a pool of 48 trial point group operations.


The static configuration has the point symmetry C_1 .


Analysis of symmetry for dynamics (positions and initial velocities):
=====================================================================
 Subroutine PRICEL returns:
 Original cell was already a primitive cell.
 

 Routine SETGRP: Setting up the symmetry group for a 
 simple cubic supercell.


 Subroutine GETGRP returns: Found  1 space group operations
 (whereof  1 operations were pure point group operations)
 out of a pool of 48 trial point group operations.


The dynamic configuration has the point symmetry C_1 .


 Subroutine INISYM returns: Found  1 space group operations
 (whereof  1 operations are pure point group operations),
 and found     1 'primitive' translations


----------------------------------------------------------------------------------------

                                     Primitive cell                                     

  volume of cell :   10648.0000

  direct lattice vectors                    reciprocal lattice vectors
    22.000000000  0.000000000  0.000000000     0.045454545  0.000000000  0.000000000
     0.000000000 22.000000000  0.000000000     0.000000000  0.045454545  0.000000000
     0.000000000  0.000000000 22.000000000     0.000000000  0.000000000  0.045454545

  length of vectors
    22.000000000 22.000000000 22.000000000     0.045454545  0.045454545  0.045454545

  position of ions in fractional coordinates (direct lattice)
     0.492741136  0.482876364  0.520817273
     0.476050682  0.485580000  0.431414545
     0.523949318  0.539961818  0.457390000
     0.488634773  0.511865909  0.467210455
     0.494056591  0.460038182  0.568585455

  ion indices of the primitive-cell ions
   primitive index   ion index
                 1           1
                 2           2
                 3           3
                 4           4
                 5           5

----------------------------------------------------------------------------------------



 KPOINTS: auto                                    

Automatic generation of k-mesh.
 Grid dimensions read from file:
 generate k-points for:    1    1    1

 Generating k-lattice:

  Cartesian coordinates                     Fractional coordinates (reciprocal lattice)
     0.045454545  0.000000000  0.000000000     1.000000000  0.000000000  0.000000000
     0.000000000  0.045454545  0.000000000     0.000000000  1.000000000  0.000000000
     0.000000000  0.000000000  0.045454545     0.000000000  0.000000000  1.000000000

  Length of vectors
     0.045454545  0.045454545  0.045454545

  Shift w.r.t. Gamma in fractional coordinates (k-lattice)
     0.000000000  0.000000000  0.000000000

 
 Subroutine IBZKPT returns following result:
 ===========================================
 
 Found      1 irreducible k-points:
 
 Following reciprocal coordinates:
            Coordinates               Weight
  0.000000  0.000000  0.000000      1.000000
 
 Following cartesian coordinates:
            Coordinates               Weight
  0.000000  0.000000  0.000000      1.000000
 


--------------------------------------------------------------------------------------------------------




 Dimension of arrays:
   k-points           NKPTS =      1   k-points in BZ     NKDIM =      1   number of bands    NBANDS=    128
   number of dos      NEDOS =    301   number of ions     NIONS =      5
   non local maximal  LDIM  =      4   non local SUM 2l+1 LMDIM =      8
   total plane-waves  NPLWV = ******
   max r-space proj   IRMAX =      1   max aug-charges    IRDMAX=   9419
   dimension x,y,z NGX =   240 NGY =  240 NGZ =  240
   dimension x,y,z NGXF=   480 NGYF=  480 NGZF=  480
   support grid    NGXF=   480 NGYF=  480 NGZF=  480
   ions per type =               1   2   2
   NGX,Y,Z   is equivalent  to a cutoff of  18.14, 18.14, 18.14 a.u.
   NGXF,Y,Z  is equivalent  to a cutoff of  36.27, 36.27, 36.27 a.u.

 SYSTEM =  unknown system                          
 POSCAR =   C  H  N                                

 Startparameter for this run:
   NWRITE =      2    write-flag & timer
   PREC   = accura    normal or accurate (medium, high low for compatibility)
   ISTART =      0    job   : 0-new  1-cont  2-samecut
   ICHARG =      2    charge: 1-file 2-atom 10-const
   ISPIN  =      1    spin polarized calculation?
   LNONCOLLINEAR =      F non collinear calculations
   LSORBIT =      F    spin-orbit coupling
   INIWAV =      1    electr: 0-lowe 1-rand  2-diag
   LASPH  =      F    aspherical Exc in radial PAW
 Electronic Relaxation 1
   ENCUT  = 1000.0 eV  73.50 Ry    8.57 a.u.  56.73 56.73 56.73*2*pi/ulx,y,z
   ENINI  = 1000.0     initial cutoff
   ENAUG  = 1000.0 eV  augmentation charge cutoff
   NELM   =     60;   NELMIN=  2; NELMDL= -5     # of ELM steps 
   EDIFF  = 0.1E-06   stopping-criterion for ELM
   LREAL  =      F    real-space projection
   NLSPLINE    = F    spline interpolate recip. space projectors
   LCOMPAT=      F    compatible to vasp.4.4
   GGA_COMPAT  = T    GGA compatible to vasp.4.4-vasp.4.6
   LMAXPAW     = -100 max onsite density
   LMAXMIX     =    2 max onsite mixed and CHGCAR
   VOSKOWN=      0    Vosko Wilk Nusair interpolation
   ROPT   =    0.00000   0.00000   0.00000
 Ionic relaxation
   EDIFFG = 0.1E-05   stopping-criterion for IOM
   NSW    =      0    number of steps for IOM
   NBLOCK =      1;   KBLOCK =      1    inner block; outer block 
   IBRION =     -1    ionic relax: 0-MD 1-quasi-New 2-CG
   NFREE  =      0    steps in history (QN), initial steepest desc. (CG)
   ISIF   =      0    stress and relaxation
   IWAVPR =     10    prediction:  0-non 1-charg 2-wave 3-comb
   ISYM   =      2    0-nonsym 1-usesym 2-fastsym
   LCORR  =      T    Harris-Foulkes like correction to forces

   POTIM  = 0.5000    time-step for ionic-motion
   TEIN   =    0.0    initial temperature
   TEBEG  =    0.0;   TEEND  =   0.0 temperature during run
   SMASS  =  -3.00    Nose mass-parameter (am)
   estimated Nose-frequenzy (Omega)   =  0.10E-29 period in steps = 0.13E+47 mass=  -0.111E-25a.u.
   SCALEE = 1.0000    scale energy and forces
   NPACO  =    256;   APACO  = 10.0  distance and # of slots for P.C.
   PSTRESS=    0.0 pullay stress

  Mass of Ions in am
   POMASS =  12.01  1.00 14.00
  Ionic Valenz
   ZVAL   =   4.00  1.00  5.00
  Atomic Wigner-Seitz radii
   RWIGS  =  -1.00 -1.00 -1.00
  virtual crystal weights 
   VCA    =   1.00  1.00  1.00
   NELECT =      16.0000    total number of electrons
   NUPDOWN=      -1.0000    fix difference up-down

 DOS related values:
   EMIN   =  10.00;   EMAX   =-10.00  energy-range for DOS
   EFERMI =   0.00;   METHOD = LEGACY      
   ISMEAR =     0;   SIGMA  =   0.01  broadening in eV -4-tet -1-fermi 0-gaus

 Electronic relaxation 2 (details)
   IALGO  =     58    algorithm
   LDIAG  =      T    sub-space diagonalisation (order eigenvalues)
   LSUBROT=      F    optimize rotation matrix (better conditioning)
   TURBO    =      0    0=normal 1=particle mesh
   IRESTART =      0    0=no restart 2=restart with 2 vectors
   NREBOOT  =      0    no. of reboots
   NMIN     =      0    reboot dimension
   EREF     =   0.00    reference energy to select bands
   IMIX   =      4    mixing-type and parameters
     AMIX     =   0.40;   BMIX     =  1.00
     AMIX_MAG =   1.60;   BMIX_MAG =  1.00
     AMIN     =   0.10
     WC   =   100.;   INIMIX=   1;  MIXPRE=   1;  MAXMIX= -45

 Intra band minimization:
   WEIMIN = 0.0000     energy-eigenvalue tresh-hold
   EBREAK =  0.20E-09  absolut break condition
   DEPER  =   0.30     relativ break condition  

   TIME   =   0.40     timestep for ELM

  volume/ion in A,a.u.               =    2129.60     14371.25
  Fermi-wavevector in a.u.,A,eV,Ry     =   0.187510  0.354343  0.478383  0.035160
  Thomas-Fermi vector in A             =   0.923351

 Write flags
   LWAVE        =      F    write WAVECAR
   LDOWNSAMPLE  =      F    k-point downsampling of WAVECAR
   LCHARG       =      F    write CHGCAR
   LVTOT        =      F    write LOCPOT, total local potential
   LVHAR        =      F    write LOCPOT, Hartree potential only
   LELF         =      F    write electronic localiz. function (ELF)
   LORBIT       =      0    0 simple, 1 ext, 2 COOP (PROOUT), +10 PAW based schemes


 Dipole corrections
   LMONO  =      F    monopole corrections only (constant potential shift)
   LDIPOL =      F    correct potential (dipole corrections)
   IDIPOL =      0    1-x, 2-y, 3-z, 4-all directions 
   EPSILON=  1.0000000 bulk dielectric constant

 Exchange correlation treatment:
   GGA     =    --    GGA type
   LEXCH   =     8    internal setting for exchange type
   LIBXC   =     F    Libxc                    
   VOSKOWN =     0    Vosko Wilk Nusair interpolation
   LHFCALC =     F    Hartree Fock is set to
   LHFONE  =     F    Hartree Fock one center treatment
   AEXX    =    0.0000 exact exchange contribution

 Linear response parameters
   LEPSILON=     F    determine dielectric tensor
   LRPA    =     F    only Hartree local field effects (RPA)
   LNABLA  =     F    use nabla operator in PAW spheres
   LVEL    =     F    velocity operator in full k-point grid
   CSHIFT  =0.1000    complex shift for real part using Kramers Kronig
   OMEGAMAX=  -1.0    maximum frequency
   DEG_THRESHOLD= 0.2000000E-02 threshold for treating states as degnerate
   RTIME   =   -0.100 relaxation time in fs
  (WPLASMAI=    0.000 imaginary part of plasma frequency in eV, 0.658/RTIME)
   DFIELD  = 0.0000000 0.0000000 0.0000000 field for delta impulse in time

  Optional k-point grid parameters
   LKPOINTS_OPT  =     F    use optional k-point grid
   KPOINTS_OPT_MODE=     1    mode for optional k-point grid

 Orbital magnetization related:
   ORBITALMAG=     F  switch on orbital magnetization
   LCHIMAG   =     F  perturbation theory with respect to B field
   DQ        =  0.001000  dq finite difference perturbation B field
   LLRAUG    =     F  two centre corrections for induced B field
   LBONE     =     F  B-component reconstruction in AE one-centre
   LVGVCALC  =     T  calculate vGv susceptibility
   LVGVAPPL  =     F  apply vGv susceptibility instead of pGv for G=0

 Random number generation:
   RANDOM_GENERATOR = DEFAULT
   PCG_SEED         = not used


--------------------------------------------------------------------------------------------------------


 Static calculation
 charge density and potential will be updated during run
 non-spin polarized calculation
 Conjugate gradient for all bands (Freysoldt, et al. PRB 79, 241103 (2009))
 preconditioned conjugated gradient                                        
 perform sub-space diagonalisation
    before iterative eigenvector-optimisation
 modified Broyden-mixing scheme, WC =      100.0
 initial mixing is a Kerker type mixing with AMIX =  0.4000 and BMIX =      1.0000
 Hartree-type preconditioning will be used
 using additional bands          120
 reciprocal scheme for non local part
 use partial core corrections
 no Harris-corrections to forces 
 use gradient corrections 
 use of overlap-Matrix (Vanderbilt PP)
 Gauss-broadening in eV      SIGMA  =   0.01


--------------------------------------------------------------------------------------------------------


  energy-cutoff  :     1000.00
  volume of cell :    10648.00
      direct lattice vectors                 reciprocal lattice vectors
    22.000000000  0.000000000  0.000000000     0.045454545  0.000000000  0.000000000
     0.000000000 22.000000000  0.000000000     0.000000000  0.045454545  0.000000000
     0.000000000  0.000000000 22.000000000     0.000000000  0.000000000  0.045454545

  length of vectors
    22.000000000 22.000000000 22.000000000     0.045454545  0.045454545  0.045454545



 k-points in units of 2pi/SCALE and weight: auto                                    
   0.00000000  0.00000000  0.00000000       1.000

 k-points in reciprocal lattice and weights: auto                                    
   0.00000000  0.00000000  0.00000000       1.000

 position of ions in fractional coordinates (direct lattice) 
   0.49274114  0.48287636  0.52081727
   0.47605068  0.48558000  0.43141455
   0.52394932  0.53996182  0.45739000
   0.48863477  0.51186591  0.46721045
   0.49405659  0.46003818  0.56858545

 position of ions in cartesian coordinates  (Angst):
  10.84030500 10.62328000 11.45798000
  10.47311500 10.68276000  9.49112000
  11.52688500 11.87916000 10.06258000
  10.74996500 11.26105000 10.27863000
  10.86924500 10.12084000 12.50888000



--------------------------------------------------------------------------------------------------------


 use parallel FFT for orbitals z direction half grid
 k-point   1 :   0.0000 0.0000 0.0000  plane waves:  381993

 maximum and minimum number of plane-waves per node :    191003   190990

 maximum number of plane-waves:    381993
 maximum index in each direction: 
   IXMAX=   56   IYMAX=   56   IZMAX=   56
   IXMIN=  -56   IYMIN=  -56   IZMIN=    0


 parallel 3D FFT for wavefunctions:
    minimum data exchange during FFTs selected (reduces bandwidth)
 parallel 3D FFT for charge:
    minimum data exchange during FFTs selected (reduces bandwidth)


 total amount of memory used by VASP MPI-rank0   556778. kBytes
=======================================================================

   base      :      30000. kBytes
   nonl-proj :      51980. kBytes
   fftplans  :     159096. kBytes
   grid      :     306524. kBytes
   one-center:          4. kBytes
   wavefun   :       9174. kBytes

     INWAV:  cpu time      0.0001: real time      0.0001
 Broyden mixing: mesh for mixing (old mesh)
   NGX =113   NGY =113   NGZ =113
  (NGX  =480   NGY  =480   NGZ  =480)
  gives a total of ****** points

 initial charge density was supplied:
 charge density of overlapping atoms calculated
 number of electron      16.0000000 magnetization 
 keeping initial charge density in first step


--------------------------------------------------------------------------------------------------------


 Maximum index for augmentation-charges          216 (set IRDMAX)


--------------------------------------------------------------------------------------------------------


 First call to EWALD:  gamma=   0.081
 Maximum number of real-space cells 3x 3x 3
 Maximum number of reciprocal cells 3x 3x 3

    FEWALD:  cpu time      0.0012: real time      0.0012


--------------------------------------- Ionic step        1  -------------------------------------------




--------------------------------------- Iteration      1(   1)  ---------------------------------------


    POTLOK:  cpu time      1.1062: real time      1.1079
    SETDIJ:  cpu time      0.0092: real time      0.0098
    TRIAL :  cpu time      3.9844: real time      3.9918
    CORREC:  cpu time      0.0019: real time      0.0019
    --------------------------------------------
      LOOP:  cpu time      5.1154: real time      5.1250

 eigenvalue-minimisations  :   256
 total energy-change (2. order) : 0.1874717E+03  (-0.5741308E+03)
 number of electron      16.0000000 magnetization 
 augmentation part       16.0000000 magnetization 

 Free energy of the ion-electron system (eV)
  ---------------------------------------------------
  alpha Z        PSCENC =         0.07253111
  Ewald energy   TEWEN  =       622.82150315
  -Hartree energ DENC   =     -1130.17152709
  -exchange      EXHF   =         0.00000000
  -V(xc)+E(xc)   XCENC  =        43.89839350
  PAW double counting   =       530.80982706     -522.91954841
  entropy T*S    EENTRO =        -0.00000000
  eigenvalues    EBANDS =       -58.24889166
  atomic energy  EATOM  =       701.20945335
  ---------------------------------------------------
  free energy    TOTEN  =       187.47174101 eV

  energy without entropy =      187.47174101  energy(sigma->0) =      187.47174101


--------------------------------------------------------------------------------------------------------




--------------------------------------- Iteration      1(   2)  ---------------------------------------


    TRIAL :  cpu time      3.9581: real time      3.9613
    CORREC:  cpu time      0.0002: real time      0.0002
    --------------------------------------------
      LOOP:  cpu time      3.9736: real time      3.9899

 eigenvalue-minimisations  :   256
 total energy-change (2. order) :-0.1234767E+03  (-0.1234767E+03)
 number of electron      16.0000000 magnetization 
 augmentation part       16.0000000 magnetization 

 Free energy of the ion-electron system (eV)
  ---------------------------------------------------
  alpha Z        PSCENC =         0.07253111
  Ewald energy   TEWEN  =       622.82150315
  -Hartree energ DENC   =     -1130.17152709
  -exchange      EXHF   =         0.00000000
  -V(xc)+E(xc)   XCENC  =        43.89839350
  PAW double counting   =       530.80982706     -522.91954841
  entropy T*S    EENTRO =        -0.00000000
  eigenvalues    EBANDS =      -181.72554806
  atomic energy  EATOM  =       701.20945335
  ---------------------------------------------------
  free energy    TOTEN  =        63.99508461 eV

  energy without entropy =       63.99508461  energy(sigma->0) =       63.99508461


--------------------------------------------------------------------------------------------------------




--------------------------------------- Iteration      1(   3)  ---------------------------------------


    TRIAL :  cpu time      7.2665: real time      7.2718
    CORREC:  cpu time      0.0002: real time      0.0002
    --------------------------------------------
      LOOP:  cpu time      7.2810: real time      7.3029

 eigenvalue-minimisations  :   512
 total energy-change (2. order) :-0.9981454E+02  (-0.9981454E+02)
 number of electron      16.0000000 magnetization 
 augmentation part       16.0000000 magnetization 

 Free energy of the ion-electron system (eV)
  ---------------------------------------------------
  alpha Z        PSCENC =         0.07253111
  Ewald energy   TEWEN  =       622.82150315
  -Hartree energ DENC   =     -1130.17152709
  -exchange      EXHF   =         0.00000000
  -V(xc)+E(xc)   XCENC  =        43.89839350
  PAW double counting   =       530.80982706     -522.91954841
  entropy T*S    EENTRO =        -0.00000000
  eigenvalues    EBANDS =      -281.54009007
  atomic energy  EATOM  =       701.20945335
  ---------------------------------------------------
  free energy    TOTEN  =       -35.81945740 eV

  energy without entropy =      -35.81945740  energy(sigma->0) =      -35.81945740


--------------------------------------------------------------------------------------------------------




--------------------------------------- Iteration      1(   4)  ---------------------------------------


    TRIAL :  cpu time      3.9358: real time      3.9376
    CORREC:  cpu time      0.0002: real time      0.0002
    --------------------------------------------
      LOOP:  cpu time      3.9520: real time      3.9673

 eigenvalue-minimisations  :   256
 total energy-change (2. order) :-0.1878107E+00  (-0.1878107E+00)
 number of electron      16.0000000 magnetization 
 augmentation part       16.0000000 magnetization 

 Free energy of the ion-electron system (eV)
  ---------------------------------------------------
  alpha Z        PSCENC =         0.07253111
  Ewald energy   TEWEN  =       622.82150315
  -Hartree energ DENC   =     -1130.17152709
  -exchange      EXHF   =         0.00000000
  -V(xc)+E(xc)   XCENC  =        43.89839350
  PAW double counting   =       530.80982706     -522.91954841
  entropy T*S    EENTRO =        -0.00000000
  eigenvalues    EBANDS =      -281.72790075
  atomic energy  EATOM  =       701.20945335
  ---------------------------------------------------
  free energy    TOTEN  =       -36.00726807 eV

  energy without entropy =      -36.00726807  energy(sigma->0) =      -36.00726807


--------------------------------------------------------------------------------------------------------




--------------------------------------- Iteration      1(   5)  ---------------------------------------


    TRIAL :  cpu time      3.9486: real time      3.9506
    CORREC:  cpu time      0.0002: real time      0.0002
    CHARGE:  cpu time      1.4185: real time      1.4216
    --------------------------------------------
      LOOP:  cpu time      5.3858: real time      5.4021

 eigenvalue-minimisations  :   256
 total energy-change (2. order) :-0.8543539E-03  (-0.8543568E-03)
 number of electron      16.0000000 magnetization 
 augmentation part       -0.0374101 magnetization 

 Free energy of the ion-electron system (eV)
  ---------------------------------------------------
  alpha Z        PSCENC =         0.07253111
  Ewald energy   TEWEN  =       622.82150315
  -Hartree energ DENC   =     -1130.17152709
  -exchange      EXHF   =         0.00000000
  -V(xc)+E(xc)   XCENC  =        43.89839350
  PAW double counting   =       530.80982706     -522.91954841
  entropy T*S    EENTRO =        -0.00000000
  eigenvalues    EBANDS =      -281.72875510
  atomic energy  EATOM  =       701.20945335
  ---------------------------------------------------
  free energy    TOTEN  =       -36.00812243 eV

  energy without entropy =      -36.00812243  energy(sigma->0) =      -36.00812243


--------------------------------------------------------------------------------------------------------




--------------------------------------- Iteration      1(   6)  ---------------------------------------


    POTLOK:  cpu time      0.7396: real time      0.7406
    SETDIJ:  cpu time      0.0016: real time      0.0016
    TRIAL :  cpu time      2.3993: real time      2.4038
    CORREC:  cpu time      2.8085: real time      2.8102
    CHARGE:  cpu time      1.3976: real time      1.3983
    --------------------------------------------
      LOOP:  cpu time      7.3608: real time      7.3837

 eigenvalue-minimisations  :     0
 total energy-change (2. order) : 0.8555006E+01  (-0.3775743E+01)
 number of electron      16.0000000 magnetization 
 augmentation part       -0.0586207 magnetization 

 Free energy of the ion-electron system (eV)
  ---------------------------------------------------
  alpha Z        PSCENC =         0.07253111
  Ewald energy   TEWEN  =       622.82150315
  -Hartree energ DENC   =     -1256.95579386
  -exchange      EXHF   =         0.00000000
  -V(xc)+E(xc)   XCENC  =        50.32103595
  PAW double counting   =      5288.36790251    -5281.32226171
  entropy T*S    EENTRO =        -0.00000000
  eigenvalues    EBANDS =      -151.96748709
  atomic energy  EATOM  =       701.20945335
  ---------------------------------------------------
  free energy    TOTEN  =       -27.45311659 eV

  energy without entropy =      -27.45311659  energy(sigma->0) =      -27.45311659


--------------------------------------------------------------------------------------------------------




--------------------------------------- Iteration      1(   7)  ---------------------------------------


    POTLOK:  cpu time      0.7425: real time      0.7428
    SETDIJ:  cpu time      0.0016: real time      0.0016
    TRIAL :  cpu time      2.3446: real time      2.3458
    CORREC:  cpu time      2.7916: real time      2.7929
    CHARGE:  cpu time      1.4108: real time      1.4115
    --------------------------------------------
      LOOP:  cpu time      7.3206: real time      7.3243

 eigenvalue-minimisations  :     0
 total energy-change (2. order) :-0.3784430E+01  (-0.4841083E+00)
 number of electron      16.0000000 magnetization 
 augmentation part       -0.0695636 magnetization 

 Free energy of the ion-electron system (eV)
  ---------------------------------------------------
  alpha Z        PSCENC =         0.07253111
  Ewald energy   TEWEN  =       622.82150315
  -Hartree energ DENC   =     -1199.72156181
  -exchange      EXHF   =         0.00000000
  -V(xc)+E(xc)   XCENC  =        47.41678989
  PAW double counting   =      7116.27124300    -7108.82022632
  entropy T*S    EENTRO =        -0.00000000
  eigenvalues    EBANDS =      -210.48727861
  atomic energy  EATOM  =       701.20945335
  ---------------------------------------------------
  free energy    TOTEN  =       -31.23754624 eV

  energy without entropy =      -31.23754624  energy(sigma->0) =      -31.23754624


--------------------------------------------------------------------------------------------------------




--------------------------------------- Iteration      1(   8)  ---------------------------------------


    POTLOK:  cpu time      0.7421: real time      0.7421
    SETDIJ:  cpu time      0.0016: real time      0.0016
    TRIAL :  cpu time      2.3428: real time      2.3446
    CORREC:  cpu time      2.7928: real time      2.7943
    CHARGE:  cpu time      1.3967: real time      1.3971
    --------------------------------------------
      LOOP:  cpu time      7.2900: real time      7.3098

 eigenvalue-minimisations  :     0
 total energy-change (2. order) :-0.4854262E+00  (-0.2213705E+00)
 number of electron      16.0000000 magnetization 
 augmentation part       -0.0693360 magnetization 

 Free energy of the ion-electron system (eV)
  ---------------------------------------------------
  alpha Z        PSCENC =         0.07253111
  Ewald energy   TEWEN  =       622.82150315
  -Hartree energ DENC   =     -1198.92800817
  -exchange      EXHF   =         0.00000000
  -V(xc)+E(xc)   XCENC  =        47.34708706
  PAW double counting   =      7486.36005649    -7478.85281374
  entropy T*S    EENTRO =        -0.00000000
  eigenvalues    EBANDS =      -211.75278164
  atomic energy  EATOM  =       701.20945335
  ---------------------------------------------------
  free energy    TOTEN  =       -31.72297240 eV

  energy without entropy =      -31.72297240  energy(sigma->0) =      -31.72297240


--------------------------------------------------------------------------------------------------------




--------------------------------------- Iteration      1(   9)  ---------------------------------------


    POTLOK:  cpu time      0.7399: real time      0.7405
    SETDIJ:  cpu time      0.0016: real time      0.0016
    TRIAL :  cpu time      2.3425: real time      2.3441
    CORREC:  cpu time      2.8040: real time      2.8053
    CHARGE:  cpu time      1.4054: real time      1.4057
    --------------------------------------------
      LOOP:  cpu time      7.3070: real time      7.4085

 eigenvalue-minimisations  :     0
 total energy-change (2. order) :-0.2192129E+00  (-0.7751080E-01)
 number of electron      16.0000000 magnetization 
 augmentation part       -0.0672146 magnetization 

 Free energy of the ion-electron system (eV)
  ---------------------------------------------------
  alpha Z        PSCENC =         0.07253111
  Ewald energy   TEWEN  =       622.82150315
  -Hartree energ DENC   =     -1196.70474130
  -exchange      EXHF   =         0.00000000
  -V(xc)+E(xc)   XCENC  =        47.23375750
  PAW double counting   =      7560.92676826    -7553.39970377
  entropy T*S    EENTRO =        -0.00000000
  eigenvalues    EBANDS =      -214.10175363
  atomic energy  EATOM  =       701.20945335
  ---------------------------------------------------
  free energy    TOTEN  =       -31.94218534 eV

  energy without entropy =      -31.94218534  energy(sigma->0) =      -31.94218534


--------------------------------------------------------------------------------------------------------




--------------------------------------- Iteration      1(  10)  ---------------------------------------


    POTLOK:  cpu time      0.7485: real time      0.7491
    SETDIJ:  cpu time      0.0016: real time      0.0016
    TRIAL :  cpu time      2.3437: real time      2.3449
    CORREC:  cpu time      2.7819: real time      2.7829
    CHARGE:  cpu time      1.3816: real time      1.3821
    --------------------------------------------
      LOOP:  cpu time      7.2861: real time      7.2895

 eigenvalue-minimisations  :     0
 total energy-change (2. order) :-0.7666184E-01  (-0.2642531E-01)
 number of electron      16.0000000 magnetization 
 augmentation part       -0.0664257 magnetization 

 Free energy of the ion-electron system (eV)
  ---------------------------------------------------
  alpha Z        PSCENC =         0.07253111
  Ewald energy   TEWEN  =       622.82150315
  -Hartree energ DENC   =     -1194.95431091
  -exchange      EXHF   =         0.00000000
  -V(xc)+E(xc)   XCENC  =        47.15269515
  PAW double counting   =      7274.26312778    -7266.74577710
  entropy T*S    EENTRO =        -0.00000000
  eigenvalues    EBANDS =      -215.83806970
  atomic energy  EATOM  =       701.20945335
  ---------------------------------------------------
  free energy    TOTEN  =       -32.01884718 eV

  energy without entropy =      -32.01884718  energy(sigma->0) =      -32.01884718


--------------------------------------------------------------------------------------------------------




--------------------------------------- Iteration      1(  11)  ---------------------------------------


    POTLOK:  cpu time      0.7383: real time      0.7383
    SETDIJ:  cpu time      0.0018: real time      0.0018
    TRIAL :  cpu time      2.3427: real time      2.3448
    CORREC:  cpu time      2.7872: real time      2.7882
    CHARGE:  cpu time      1.3884: real time      1.3887
    --------------------------------------------
      LOOP:  cpu time      7.2735: real time      7.2916

 eigenvalue-minimisations  :     0
 total energy-change (2. order) :-0.2631115E-01  (-0.7845691E-02)
 number of electron      16.0000000 magnetization 
 augmentation part       -0.0665153 magnetization 

 Free energy of the ion-electron system (eV)
  ---------------------------------------------------
  alpha Z        PSCENC =         0.07253111
  Ewald energy   TEWEN  =       622.82150315
  -Hartree energ DENC   =     -1194.25192222
  -exchange      EXHF   =         0.00000000
  -V(xc)+E(xc)   XCENC  =        47.12467396
  PAW double counting   =      7052.59212517    -7045.08646130
  entropy T*S    EENTRO =        -0.00000000
  eigenvalues    EBANDS =      -216.52706154
  atomic energy  EATOM  =       701.20945335
  ---------------------------------------------------
  free energy    TOTEN  =       -32.04515833 eV

  energy without entropy =      -32.04515833  energy(sigma->0) =      -32.04515833


--------------------------------------------------------------------------------------------------------




--------------------------------------- Iteration      1(  12)  ---------------------------------------


    POTLOK:  cpu time      0.7371: real time      0.7374
    SETDIJ:  cpu time      0.0016: real time      0.0016
    TRIAL :  cpu time      2.3441: real time      2.3455
    CORREC:  cpu time      2.7754: real time      2.7766
    CHARGE:  cpu time      1.4052: real time      1.4055
    --------------------------------------------
      LOOP:  cpu time      7.2781: real time      7.2972

 eigenvalue-minimisations  :     0
 total energy-change (2. order) :-0.7841649E-02  (-0.2034009E-02)
 number of electron      16.0000000 magnetization 
 augmentation part       -0.0669023 magnetization 

 Free energy of the ion-electron system (eV)
  ---------------------------------------------------
  alpha Z        PSCENC =         0.07253111
  Ewald energy   TEWEN  =       622.82150315
  -Hartree energ DENC   =     -1193.57042474
  -exchange      EXHF   =         0.00000000
  -V(xc)+E(xc)   XCENC  =        47.09217957
  PAW double counting   =      7002.73257375    -6995.22826503
  entropy T*S    EENTRO =        -0.00000000
  eigenvalues    EBANDS =      -217.18255114
  atomic energy  EATOM  =       701.20945335
  ---------------------------------------------------
  free energy    TOTEN  =       -32.05299998 eV

  energy without entropy =      -32.05299998  energy(sigma->0) =      -32.05299998


--------------------------------------------------------------------------------------------------------




--------------------------------------- Iteration      1(  13)  ---------------------------------------


    POTLOK:  cpu time      0.7290: real time      0.7296
    SETDIJ:  cpu time      0.0016: real time      0.0016
    TRIAL :  cpu time      2.3408: real time      2.3419
    CORREC:  cpu time      2.7803: real time      2.7814
    CHARGE:  cpu time      1.3955: real time      1.3958
    --------------------------------------------
      LOOP:  cpu time      7.2600: real time      7.2804

 eigenvalue-minimisations  :     0
 total energy-change (2. order) :-0.2033261E-02  (-0.5724623E-03)
 number of electron      16.0000000 magnetization 
 augmentation part       -0.0671419 magnetization 

 Free energy of the ion-electron system (eV)
  ---------------------------------------------------
  alpha Z        PSCENC =         0.07253111
  Ewald energy   TEWEN  =       622.82150315
  -Hartree energ DENC   =     -1193.45812433
  -exchange      EXHF   =         0.00000000
  -V(xc)+E(xc)   XCENC  =        47.08633816
  PAW double counting   =      7015.04407531    -7007.53910540
  entropy T*S    EENTRO =        -0.00000000
  eigenvalues    EBANDS =      -217.29170457
  atomic energy  EATOM  =       701.20945335
  ---------------------------------------------------
  free energy    TOTEN  =       -32.05503324 eV

  energy without entropy =      -32.05503324  energy(sigma->0) =      -32.05503324


--------------------------------------------------------------------------------------------------------




--------------------------------------- Iteration      1(  14)  ---------------------------------------


    POTLOK:  cpu time      0.7235: real time      0.7239
    SETDIJ:  cpu time      0.0016: real time      0.0016
    TRIAL :  cpu time      2.3419: real time      2.3435
    CORREC:  cpu time      2.7722: real time      2.7733
    CHARGE:  cpu time      1.4080: real time      1.4087
    --------------------------------------------
      LOOP:  cpu time      7.2603: real time      7.2815

 eigenvalue-minimisations  :     0
 total energy-change (2. order) :-0.5717299E-03  (-0.1831939E-03)
 number of electron      16.0000000 magnetization 
 augmentation part       -0.0672589 magnetization 

 Free energy of the ion-electron system (eV)
  ---------------------------------------------------
  alpha Z        PSCENC =         0.07253111
  Ewald energy   TEWEN  =       622.82150315
  -Hartree energ DENC   =     -1193.53399646
  -exchange      EXHF   =         0.00000000
  -V(xc)+E(xc)   XCENC  =        47.09028372
  PAW double counting   =      7031.08847186    -7023.58323132
  entropy T*S    EENTRO =        -0.00000000
  eigenvalues    EBANDS =      -217.22062038
  atomic energy  EATOM  =       701.20945335
  ---------------------------------------------------
  free energy    TOTEN  =       -32.05560497 eV

  energy without entropy =      -32.05560497  energy(sigma->0) =      -32.05560497


--------------------------------------------------------------------------------------------------------




--------------------------------------- Iteration      1(  15)  ---------------------------------------


    POTLOK:  cpu time      0.7171: real time      0.7172
    SETDIJ:  cpu time      0.0016: real time      0.0016
    TRIAL :  cpu time      2.3430: real time      2.3448
    CORREC:  cpu time      2.7679: real time      2.7695
    CHARGE:  cpu time      1.3956: real time      1.3960
    --------------------------------------------
      LOOP:  cpu time      7.2542: real time      7.2584

 eigenvalue-minimisations  :     0
 total energy-change (2. order) :-0.1826003E-03  (-0.6068464E-04)
 number of electron      16.0000000 magnetization 
 augmentation part       -0.0672796 magnetization 

 Free energy of the ion-electron system (eV)
  ---------------------------------------------------
  alpha Z        PSCENC =         0.07253111
  Ewald energy   TEWEN  =       622.82150315
  -Hartree energ DENC   =     -1193.58783411
  -exchange      EXHF   =         0.00000000
  -V(xc)+E(xc)   XCENC  =        47.09250670
  PAW double counting   =      7039.29052474    -7031.78506482
  entropy T*S    EENTRO =        -0.00000000
  eigenvalues    EBANDS =      -217.16940769
  atomic energy  EATOM  =       701.20945335
  ---------------------------------------------------
  free energy    TOTEN  =       -32.05578757 eV

  energy without entropy =      -32.05578757  energy(sigma->0) =      -32.05578757


--------------------------------------------------------------------------------------------------------




--------------------------------------- Iteration      1(  16)  ---------------------------------------


    POTLOK:  cpu time      0.7080: real time      0.7084
    SETDIJ:  cpu time      0.0016: real time      0.0016
    TRIAL :  cpu time      2.3441: real time      2.3452
    CORREC:  cpu time      2.7727: real time      2.7740
    CHARGE:  cpu time      1.4159: real time      1.4163
    --------------------------------------------
      LOOP:  cpu time      7.2573: real time      7.2757

 eigenvalue-minimisations  :     0
 total energy-change (2. order) :-0.6056414E-04  (-0.1871961E-04)
 number of electron      16.0000000 magnetization 
 augmentation part       -0.0672549 magnetization 

 Free energy of the ion-electron system (eV)
  ---------------------------------------------------
  alpha Z        PSCENC =         0.07253111
  Ewald energy   TEWEN  =       622.82150315
  -Hartree energ DENC   =     -1193.62798843
  -exchange      EXHF   =         0.00000000
  -V(xc)+E(xc)   XCENC  =        47.09431717
  PAW double counting   =      7040.64298842    -7033.13753965
  entropy T*S    EENTRO =        -0.00000000
  eigenvalues    EBANDS =      -217.13111324
  atomic energy  EATOM  =       701.20945335
  ---------------------------------------------------
  free energy    TOTEN  =       -32.05584813 eV

  energy without entropy =      -32.05584813  energy(sigma->0) =      -32.05584813


--------------------------------------------------------------------------------------------------------




--------------------------------------- Iteration      1(  17)  ---------------------------------------


    POTLOK:  cpu time      0.7079: real time      0.7083
    SETDIJ:  cpu time      0.0016: real time      0.0016
    TRIAL :  cpu time      2.3456: real time      2.3471
    CORREC:  cpu time      2.7763: real time      2.7774
    CHARGE:  cpu time      1.3994: real time      1.3999
    --------------------------------------------
      LOOP:  cpu time      7.2442: real time      7.2636

 eigenvalue-minimisations  :     0
 total energy-change (2. order) :-0.1878805E-04  (-0.5256727E-05)
 number of electron      16.0000000 magnetization 
 augmentation part       -0.0672352 magnetization 

 Free energy of the ion-electron system (eV)
  ---------------------------------------------------
  alpha Z        PSCENC =         0.07253111
  Ewald energy   TEWEN  =       622.82150315
  -Hartree energ DENC   =     -1193.65348489
  -exchange      EXHF   =         0.00000000
  -V(xc)+E(xc)   XCENC  =        47.09553505
  PAW double counting   =      7040.10500076    -7032.59962296
  entropy T*S    EENTRO =        -0.00000000
  eigenvalues    EBANDS =      -217.10678248
  atomic energy  EATOM  =       701.20945335
  ---------------------------------------------------
  free energy    TOTEN  =       -32.05586692 eV

  energy without entropy =      -32.05586692  energy(sigma->0) =      -32.05586692


--------------------------------------------------------------------------------------------------------




--------------------------------------- Iteration      1(  18)  ---------------------------------------


    POTLOK:  cpu time      0.7093: real time      0.7093
    SETDIJ:  cpu time      0.0016: real time      0.0016
    TRIAL :  cpu time      2.3403: real time      2.3419
    CORREC:  cpu time      2.7531: real time      2.7539
    CHARGE:  cpu time      1.3808: real time      1.3816
    --------------------------------------------
      LOOP:  cpu time      7.1983: real time      7.2181

 eigenvalue-minimisations  :     0
 total energy-change (2. order) :-0.5315012E-05  (-0.1444980E-05)
 number of electron      16.0000000 magnetization 
 augmentation part       -0.0672263 magnetization 

 Free energy of the ion-electron system (eV)
  ---------------------------------------------------
  alpha Z        PSCENC =         0.07253111
  Ewald energy   TEWEN  =       622.82150315
  -Hartree energ DENC   =     -1193.66140856
  -exchange      EXHF   =         0.00000000
  -V(xc)+E(xc)   XCENC  =        47.09595971
  PAW double counting   =      7040.22329199    -7032.71792403
  entropy T*S    EENTRO =        -0.00000000
  eigenvalues    EBANDS =      -217.09927895
  atomic energy  EATOM  =       701.20945335
  ---------------------------------------------------
  free energy    TOTEN  =       -32.05587223 eV

  energy without entropy =      -32.05587223  energy(sigma->0) =      -32.05587223


--------------------------------------------------------------------------------------------------------




--------------------------------------- Iteration      1(  19)  ---------------------------------------


    POTLOK:  cpu time      0.7090: real time      0.7096
    SETDIJ:  cpu time      0.0016: real time      0.0016
    TRIAL :  cpu time      2.3423: real time      2.3439
    CORREC:  cpu time      2.7763: real time      2.7776
    CHARGE:  cpu time      1.3913: real time      1.3916
    --------------------------------------------
      LOOP:  cpu time      7.2339: real time      7.2534

 eigenvalue-minimisations  :     0
 total energy-change (2. order) :-0.1471845E-05  (-0.3904597E-06)
 number of electron      16.0000000 magnetization 
 augmentation part       -0.0672219 magnetization 

 Free energy of the ion-electron system (eV)
  ---------------------------------------------------
  alpha Z        PSCENC =         0.07253111
  Ewald energy   TEWEN  =       622.82150315
  -Hartree energ DENC   =     -1193.66197110
  -exchange      EXHF   =         0.00000000
  -V(xc)+E(xc)   XCENC  =        47.09601982
  PAW double counting   =      7040.76040778    -7033.25502289
  entropy T*S    EENTRO =        -0.00000000
  eigenvalues    EBANDS =      -217.09879492
  atomic energy  EATOM  =       701.20945335
  ---------------------------------------------------
  free energy    TOTEN  =       -32.05587371 eV

  energy without entropy =      -32.05587371  energy(sigma->0) =      -32.05587371


--------------------------------------------------------------------------------------------------------




--------------------------------------- Iteration      1(  20)  ---------------------------------------


    POTLOK:  cpu time      0.7101: real time      0.7106
    SETDIJ:  cpu time      0.0016: real time      0.0016
    TRIAL :  cpu time      2.3355: real time      2.3367
    CORREC:  cpu time      2.7651: real time      2.7664
    CHARGE:  cpu time      1.3892: real time      1.3896
    --------------------------------------------
      LOOP:  cpu time      7.2156: real time      7.2329

 eigenvalue-minimisations  :     0
 total energy-change (2. order) :-0.4013718E-06  (-0.1079846E-06)
 number of electron      16.0000000 magnetization 
 augmentation part       -0.0672196 magnetization 

 Free energy of the ion-electron system (eV)
  ---------------------------------------------------
  alpha Z        PSCENC =         0.07253111
  Ewald energy   TEWEN  =       622.82150315
  -Hartree energ DENC   =     -1193.66165964
  -exchange      EXHF   =         0.00000000
  -V(xc)+E(xc)   XCENC  =        47.09602960
  PAW double counting   =      7041.16284079    -7033.65745044
  entropy T*S    EENTRO =        -0.00000000
  eigenvalues    EBANDS =      -217.09912202
  atomic energy  EATOM  =       701.20945335
  ---------------------------------------------------
  free energy    TOTEN  =       -32.05587411 eV

  energy without entropy =      -32.05587411  energy(sigma->0) =      -32.05587411


--------------------------------------------------------------------------------------------------------




--------------------------------------- Iteration      1(  21)  ---------------------------------------


    POTLOK:  cpu time      0.7033: real time      0.7036
    SETDIJ:  cpu time      0.0016: real time      0.0016
    TRIAL :  cpu time      2.3418: real time      2.3430
    CORREC:  cpu time      2.7582: real time      2.7598
    CHARGE:  cpu time      1.3868: real time      1.3872
    --------------------------------------------
      LOOP:  cpu time      7.2221: real time      7.2259

 eigenvalue-minimisations  :     0
 total energy-change (2. order) :-0.1125345E-06  (-0.3025016E-07)
 number of electron      16.0000000 magnetization 
 augmentation part       -0.0672185 magnetization 

 Free energy of the ion-electron system (eV)
  ---------------------------------------------------
  alpha Z        PSCENC =         0.07253111
  Ewald energy   TEWEN  =       622.82150315
  -Hartree energ DENC   =     -1193.66085505
  -exchange      EXHF   =         0.00000000
  -V(xc)+E(xc)   XCENC  =        47.09599856
  PAW double counting   =      7041.32025808    -7033.81486805
  entropy T*S    EENTRO =        -0.00000000
  eigenvalues    EBANDS =      -217.09989537
  atomic energy  EATOM  =       701.20945335
  ---------------------------------------------------
  free energy    TOTEN  =       -32.05587422 eV

  energy without entropy =      -32.05587422  energy(sigma->0) =      -32.05587422


--------------------------------------------------------------------------------------------------------




--------------------------------------- Iteration      1(  22)  ---------------------------------------


    POTLOK:  cpu time      0.7088: real time      0.7088
    SETDIJ:  cpu time      0.0016: real time      0.0016
    TRIAL :  cpu time      2.3419: real time      2.3434
    CORREC:  cpu time      2.7744: real time      2.7750
    EDDIAG:  cpu time      1.0387: real time      1.0399
    CHARGE:  cpu time      1.4076: real time      1.4084
    --------------------------------------------
      LOOP:  cpu time      8.2853: real time      8.3081

 eigenvalue-minimisations  :     0
 total energy-change (2. order) :-0.3197511E-07  (-0.8303624E-08)
 number of electron      16.0000000 magnetization 
 augmentation part       -0.0672181 magnetization 

 Free energy of the ion-electron system (eV)
  ---------------------------------------------------
  alpha Z        PSCENC =         0.07253111
  Ewald energy   TEWEN  =       622.82150315
  -Hartree energ DENC   =     -1193.66024255
  -exchange      EXHF   =         0.00000000
  -V(xc)+E(xc)   XCENC  =        47.09596696
  PAW double counting   =      7041.32612001    -7033.82073230
  entropy T*S    EENTRO =        -0.00000000
  eigenvalues    EBANDS =      -217.10047398
  atomic energy  EATOM  =       701.20945335
  ---------------------------------------------------
  free energy    TOTEN  =       -32.05587425 eV

  energy without entropy =      -32.05587425  energy(sigma->0) =      -32.05587425


--------------------------------------------------------------------------------------------------------


  average scaling for gradient   1.5321


 average (electrostatic) potential at core
  the test charge radii are     0.5770  0.4325  0.5902
  (the norm of the test charge is              1.0000)
       1 -87.8094       2 -48.2185       3 -48.2144       4-105.3664       5-103.1252



 E-fermi :  -6.5581     XC(G=0):  -0.0954     alpha+bet : -0.0324

 Fermi energy:        -6.5581329458

 k-point     1 :       0.0000    0.0000    0.0000
  band No.  band energies     occupation 
      1     -24.2842      2.00000
      2     -21.9560      2.00000
      3     -15.1065      2.00000
      4     -14.0482      2.00000
      5      -9.8749      2.00000
      6      -8.4515      2.00000
      7      -8.1581      2.00000
      8      -6.6710      2.00000
      9      -1.2850      0.00000
     10      -0.5389      0.00000
     11       0.0360      0.00000
     12       0.1589      0.00000
     13       0.1973      0.00000
     14       0.2210      0.00000
     15       0.3188      0.00000
     16       0.3333      0.00000
     17       0.3947      0.00000
     18       0.4230      0.00000
     19       0.4524      0.00000
     20       0.4766      0.00000
     21       0.5972      0.00000
     22       0.6175      0.00000
     23       0.6216      0.00000
     24       0.6289      0.00000
     25       0.6362      0.00000
     26       0.6406      0.00000
     27       0.6465      0.00000
     28       0.6551      0.00000
     29       0.7194      0.00000
     30       0.7880      0.00000
     31       0.8167      0.00000
     32       0.8472      0.00000
     33       0.8814      0.00000
     34       0.9224      0.00000
     35       0.9251      0.00000
     36       0.9324      0.00000
     37       0.9547      0.00000
     38       1.0564      0.00000
     39       1.0802      0.00000
     40       1.1198      0.00000
     41       1.1455      0.00000
     42       1.1666      0.00000
     43       1.1997      0.00000
     44       1.3123      0.00000
     45       1.3242      0.00000
     46       1.3470      0.00000
     47       1.3609      0.00000
     48       1.4361      0.00000
     49       1.4410      0.00000
     50       1.4587      0.00000
     51       1.4807      0.00000
     52       1.4928      0.00000
     53       1.5364      0.00000
     54       1.5389      0.00000
     55       1.5468      0.00000
     56       1.5506      0.00000
     57       1.5546      0.00000
     58       1.5595      0.00000
     59       1.5645      0.00000
     60       1.5669      0.00000
     61       1.5702      0.00000
     62       1.5729      0.00000
     63       1.5780      0.00000
     64       1.5826      0.00000
     65       1.5890      0.00000
     66       1.5909      0.00000
     67       1.5932      0.00000
     68       1.7101      0.00000
     69       1.7187      0.00000
     70       1.7420      0.00000
     71       1.7502      0.00000
     72       1.7766      0.00000
     73       1.7798      0.00000
     74       1.7841      0.00000
     75       1.8269      0.00000
     76       1.8382      0.00000
     77       1.8482      0.00000
     78       1.8652      0.00000
     79       1.8681      0.00000
     80       1.8717      0.00000
     81       1.8722      0.00000
     82       1.8757      0.00000
     83       1.8780      0.00000
     84       1.8783      0.00000
     85       1.8826      0.00000
     86       1.8860      0.00000
     87       1.8876      0.00000
     88       1.8897      0.00000
     89       1.8914      0.00000
     90       1.8939      0.00000
     91       1.8996      0.00000
     92       2.1537      0.00000
     93       2.2114      0.00000
     94       2.2622      0.00000
     95       2.3244      0.00000
     96       2.3683      0.00000
     97       2.4005      0.00000
     98       2.4174      0.00000
     99       2.4376      0.00000
    100       2.4407      0.00000
    101       2.4578      0.00000
    102       2.4646      0.00000
    103       2.4712      0.00000
    104       2.5616      0.00000
    105       2.5813      0.00000
    106       2.5931      0.00000
    107       2.5978      0.00000
    108       2.6231      0.00000
    109       2.6702      0.00000
    110       2.6813      0.00000
    111       2.6939      0.00000
    112       2.6998      0.00000
    113       2.7243      0.00000
    114       2.7466      0.00000
    115       2.7536      0.00000
    116       2.7670      0.00000
    117       2.7816      0.00000
    118       2.7848      0.00000
    119       2.7870      0.00000
    120       2.7990      0.00000
    121       2.7996      0.00000
    122       2.8039      0.00000
    123       2.8069      0.00000
    124       2.8095      0.00000
    125       2.8151      0.00000
    126       2.8214      0.00000
    127       2.8232      0.00000
    128       2.9222      0.00000


--------------------------------------------------------------------------------------------------------


 soft charge-density along one line, spin component           1
         0         1         2         3         4         5         6         7         8         9
 total charge-density along one line

 pseudopotential strength for first ion, spin component:           1
 12.795  21.533   0.009  -0.016  -0.002   0.016  -0.029  -0.003
 21.533  36.237   0.015  -0.027  -0.003   0.027  -0.048  -0.005
  0.009   0.015  -3.197   0.001   0.000  -5.732   0.002   0.000
 -0.016  -0.027   0.001  -3.198  -0.000   0.002  -5.735  -0.000
 -0.002  -0.003   0.000  -0.000  -3.196   0.000  -0.000  -5.731
  0.016   0.027  -5.732   0.002   0.000 -10.256   0.004   0.000
 -0.029  -0.048   0.002  -5.735  -0.000   0.004 -10.262  -0.001
 -0.003  -0.005   0.000  -0.000  -5.731   0.000  -0.001 -10.254
 total augmentation occupancy for first ion, spin component:           1
  9.078  -3.379  -0.787   1.928  -0.044   0.337  -0.830   0.021
 -3.379   1.348   0.310  -0.799   0.032  -0.143   0.359  -0.011
 -0.787   0.310   5.338  -3.563  -0.165  -1.720   1.534   0.078
  1.928  -0.799  -3.563  10.706   0.299   1.534  -4.017  -0.132
 -0.044   0.032  -0.165   0.299   3.578   0.079  -0.132  -0.963
  0.337  -0.143  -1.720   1.534   0.079   0.583  -0.642  -0.032
 -0.830   0.359   1.534  -4.017  -0.132  -0.642   1.542   0.057
  0.021  -0.011   0.078  -0.132  -0.963  -0.032   0.057   0.265


------------------------ aborting loop because EDIFF is reached ----------------------------------------


    FORLOC:  cpu time      0.0290: real time      0.0290
    FORNL :  cpu time      0.1453: real time      0.1456
    FORCOR:  cpu time      0.4970: real time      0.4971
    OFIELD:  cpu time      0.0063: real time      0.0066

 ---------------------------------------------------------------------------------------------

         DFTD3 V3.0 Rev 1        
 IVDW         = 11
 DF pbe       
 parameters
 VDW_S6       =    1.0000
 VDW_S8       =    0.7220
 VDW_SR       =    1.2170
 rs18     =    1.0000
 alpha6   =   14.0000
 alpha8   =   16.0000
 k1-k3    =   16.0000    1.3333   -4.0000
 VDW_RADIUS   =   50.2022 A
 VDW_CNRADIUS =   21.1671 A
 Edisp (eV)   -0.01117

 E6    (eV) :    -0.0039
 E8    (eV) :    -0.0073
 % E8        : 65.31
    FORVDW:  cpu time      0.0679: real time      0.0707

 VOLUME and BASIS-vectors are now :
 -----------------------------------------------------------------------------
  energy-cutoff  :     1000.00
  volume of cell :    10648.00
      direct lattice vectors                 reciprocal lattice vectors
    22.000000000  0.000000000  0.000000000     0.045454545  0.000000000  0.000000000
     0.000000000 22.000000000  0.000000000     0.000000000  0.045454545  0.000000000
     0.000000000  0.000000000 22.000000000     0.000000000  0.000000000  0.045454545

  length of vectors
    22.000000000 22.000000000 22.000000000     0.045454545  0.045454545  0.045454545


 FORCES acting on ions:
    Electron-Ion                     Ewald-Force                    Non-Local-Force
 -----------------------------------------------------------------------------------------------
   -.206E+01 -.123E+02 0.380E+02   0.314E+01 0.634E+01 -.273E+02   -.112E+01 0.640E+01 -.116E+02
   0.236E+02 0.373E+02 0.713E+02   -.257E+02 -.415E+02 -.771E+02   0.216E+01 0.413E+01 0.578E+01
   -.574E+02 -.546E+02 0.275E+02   0.630E+02 0.592E+02 -.291E+02   -.556E+01 -.464E+01 0.158E+01
   0.310E+02 -.824E+02 0.118E+03   -.477E+02 0.988E+02 -.121E+03   0.168E+02 -.166E+02 0.375E+01
   -.646E+01 0.106E+03 -.219E+03   0.733E+01 -.123E+03 0.255E+03   -.863E+00 0.168E+02 -.355E+02
 -----------------------------------------------------------------------------------------------
   -.114E+02 -.610E+01 0.360E+02   -.888E-15 0.000E+00 -.568E-13   0.114E+02 0.610E+01 -.360E+02


 POSITION                                       TOTAL-FORCE (eV/Angst)
 -----------------------------------------------------------------------------------
     10.84030     10.62328     11.45798        -0.009111      0.173217     -0.245230
     10.47311     10.68276      9.49112        -0.012640     -0.041140     -0.039103
     11.52689     11.87916     10.06258         0.031131      0.019075     -0.010786
     10.74997     11.26105     10.27863        -0.016339     -0.005037      0.061928
     10.86924     10.12084     12.50888         0.006960     -0.146115      0.233190
 -----------------------------------------------------------------------------------
    total drift:                                0.000166      0.000013     -0.000419


--------------------------------------------------------------------------------------------------------



  FREE ENERGIE OF THE ION-ELECTRON SYSTEM (eV)
  ---------------------------------------------------
  free  energy   TOTEN  =       -32.06704097 eV

  energy  without entropy=      -32.06704097  energy(sigma->0) =      -32.06704097



--------------------------------------------------------------------------------------------------------


    POTLOK:  cpu time      0.7202: real time      0.7207


--------------------------------------------------------------------------------------------------------


 stress matrix after NEB project (eV)
      0.00109      0.00082      0.00112
      0.00082      0.00451     -0.00563
      0.00112     -0.00563      0.01264
  FORCES: max atom, RMS     0.300375    0.187061
  FORCE total and by dimension    0.418281    0.245230
  Stress total and by dimension    0.015765    0.012643
     LOOP+:  cpu time    151.7563: real time    152.2156
    4ORBIT:  cpu time      0.0000: real time      0.0000

 total amount of memory used by VASP MPI-rank0   556778. kBytes
=======================================================================

   base      :      30000. kBytes
   nonl-proj :      51980. kBytes
   fftplans  :     159096. kBytes
   grid      :     306524. kBytes
   one-center:          4. kBytes
   wavefun   :       9174. kBytes

  
  
 General timing and accounting informations for this job:
 ========================================================
  
                  Total CPU time used (sec):      193.307
                            User time (sec):      162.871
                          System time (sec):       30.436
                         Elapsed time (sec):      198.353
  
                   Maximum memory used (kb):      811036.
                   Average memory used (kb):          N/A
  
                          Minor page faults:      1156212
                          Major page faults:         1207
                 Voluntary context switches:         7184
