 vasp.6.4.1 05Apr23 (build Jun  6 2023 14:46:38) gamma-only                      
 executed on        HPECrayEX_GCC date 2024.08.21  08:57:11
 running  256 mpi-ranks, with    1 threads/rank, on    2 nodes
 distrk:  each k-point on  256 cores,    1 groups
 distr:  one band on NCORE=  64 cores,    4 groups


--------------------------------------------------------------------------------------------------------


 INCAR:
   ALGO = Conjugate
   NPAR = 4
   ISMEAR = 0
   SIGMA = 0.01
   PREC = Accurate
   EDIFF = 1E-7
   ENCUT = 1000
   ISIF = 0
   GGA = RE
   LWAVE = .FALSE.
   SYMPREC = 1E-7
   LCHARG = .FALSE.
   LWAVE = .FALSE.
   LCHARG = .FALSE.

 POTCAR:    PAW_PBE C_h 06Feb2004                 
 POTCAR:    PAW_PBE H_h 06Feb2004                 
 POTCAR:    PAW_PBE N_h 06Feb2004                 
 POTCAR:    PAW_PBE C_h 06Feb2004                 
   VRHFIN =C: s2p2                                                                                  
   LEXCH  = PE                                                                                      
   EATOM  =   147.1560 eV,   10.8157 Ry                                                             
                                                                                                    
   TITEL  = PAW_PBE C_h 06Feb2004                                                                   
   LULTRA =        F    use ultrasoft PP ?                                                          
   IUNSCR =        1    unscreen: 0-lin 1-nonlin 2-no                                               
   RPACOR =    0.800    partial core radius                                                         
   POMASS =   12.011; ZVAL   =    4.000    mass and valenz                                          
   RCORE  =    1.100    outmost cutoff radius                                                       
   RWIGS  =    1.630; RWIGS  =    0.863    wigner-seitz radius (au A)                               
   ENMAX  =  700.000; ENMIN  =  500.000 eV                                                          
   ICORE  =        2    local potential                                                             
   LCOR   =        T    correct aug charges                                                         
   LPAW   =        T    paw PP                                                                      
   EAUG   =  946.768                                                                                
   DEXC   =    0.000                                                                                
   RMAX   =    1.128    core radius for proj-oper                                                   
   RAUG   =    1.300    factor for augmentation sphere                                              
   RDEP   =    1.162    radius for radial grids                                                     
   RDEPT  =    1.088    core radius for aug-charge                                                  
                                                                                                    
   Atomic configuration                                                                             
    4 entries                                                                                       
     n  l   j            E        occ.                                                              
     1  0  0.50      -273.3789   2.0000                                                             
     2  0  0.50       -13.7508   2.0000                                                             
     2  1  0.50        -5.2854   2.0000                                                             
     3  2  1.50        -5.4423   0.0000                                                             
   Description                                                                                      
     l       E           TYP  RCUT    TYP  RCUT                                                     
     0    -13.7508458     23  1.100                                                                 
     0     -8.2022199     23  1.100                                                                 
     1     -5.2854383     23  1.100                                                                 
     1      1.1560700     23  1.100                                                                 
     2     -5.4423304      7  1.100                                                                 
  local pseudopotential read in
  partial core-charges read in
  partial kinetic energy density read in
  atomic valenz-charges read in
  non local Contribution for L=           0  read in
    real space projection operators read in
  non local Contribution for L=           0  read in
    real space projection operators read in
  non local Contribution for L=           1  read in
    real space projection operators read in
  non local Contribution for L=           1  read in
    real space projection operators read in
    PAW grid and wavefunctions read in

   number of l-projection  operators is LMAX  =           4
   number of lm-projection operators is LMMAX =           8

 POTCAR:    PAW_PBE H_h 06Feb2004                 
   VRHFIN =H: ultrasoft test                                                                        
   LEXCH  = PE                                                                                      
   EATOM  =    12.4884 eV,    0.9179 Ry                                                             
                                                                                                    
   TITEL  = PAW_PBE H_h 06Feb2004                                                                   
   LULTRA =        F    use ultrasoft PP ?                                                          
   IUNSCR =        0    unscreen: 0-lin 1-nonlin 2-no                                               
   RPACOR =    0.000    partial core radius                                                         
   POMASS =    1.000; ZVAL   =    1.000    mass and valenz                                          
   RCORE  =    0.800    outmost cutoff radius                                                       
   RWIGS  =    0.700; RWIGS  =    0.370    wigner-seitz radius (au A)                               
   ENMAX  =  700.000; ENMIN  =  350.000 eV                                                          
   RCLOC  =    0.701    cutoff for local pot                                                        
   LCOR   =        T    correct aug charges                                                         
   LPAW   =        T    paw PP                                                                      
   EAUG   = 1000.000                                                                                
   RMAX   =    0.819    core radius for proj-oper                                                   
   RAUG   =    1.000    factor for augmentation sphere                                              
   RDEP   =    0.817    radius for radial grids                                                     
   RDEPT  =    0.817    core radius for aug-charge                                                  
                                                                                                    
   Atomic configuration                                                                             
    2 entries                                                                                       
     n  l   j            E        occ.                                                              
     1  0  0.50        -6.4927   1.0000                                                             
     2  1  0.50        -3.4015   0.0000                                                             
   Description                                                                                      
     l       E           TYP  RCUT    TYP  RCUT                                                     
     0     -6.4927493     23  0.800                                                                 
     0      6.8029130     23  0.800                                                                 
     1     -6.8029130     23  0.800                                                                 
  local pseudopotential read in
  atomic valenz-charges read in
  non local Contribution for L=           0  read in
    real space projection operators read in
  non local Contribution for L=           0  read in
    real space projection operators read in
  non local Contribution for L=           1  read in
    real space projection operators read in
    PAW grid and wavefunctions read in

   number of l-projection  operators is LMAX  =           3
   number of lm-projection operators is LMMAX =           5

 POTCAR:    PAW_PBE N_h 06Feb2004                 
   VRHFIN =N: s2p3                                                                                  
   LEXCH  = PE                                                                                      
   EATOM  =   264.5486 eV,   19.4438 Ry                                                             
                                                                                                    
   TITEL  = PAW_PBE N_h 06Feb2004                                                                   
   LULTRA =        F    use ultrasoft PP ?                                                          
   IUNSCR =        1    unscreen: 0-lin 1-nonlin 2-no                                               
   RPACOR =    0.800    partial core radius                                                         
   POMASS =   14.001; ZVAL   =    5.000    mass and valenz                                          
   RCORE  =    1.100    outmost cutoff radius                                                       
   RWIGS  =    1.480; RWIGS  =    0.783    wigner-seitz radius (au A)                               
   ENMAX  =  700.000; ENMIN  =  500.000 eV                                                          
   ICORE  =        2    local potential                                                             
   LCOR   =        T    correct aug charges                                                         
   LPAW   =        T    paw PP                                                                      
   EAUG   =  904.640                                                                                
   DEXC   =    0.000                                                                                
   RMAX   =    1.127    core radius for proj-oper                                                   
   RAUG   =    1.300    factor for augmentation sphere                                              
   RDEP   =    1.115    radius for radial grids                                                     
   RDEPT  =    1.106    core radius for aug-charge                                                  
                                                                                                    
   Atomic configuration                                                                             
    4 entries                                                                                       
     n  l   j            E        occ.                                                              
     1  0  0.50      -384.7179   2.0000                                                             
     2  0  0.50       -18.5828   2.0000                                                             
     2  1  0.50        -7.0898   3.0000                                                             
     3  2  1.50        -6.8029   0.0000                                                             
   Description                                                                                      
     l       E           TYP  RCUT    TYP  RCUT                                                     
     0    -18.5828117     23  1.100                                                                 
     0    -15.0750597     23  1.100                                                                 
     1     -7.0897851     23  1.100                                                                 
     1     -1.9663412     23  1.100                                                                 
     2     -6.8029130      7  1.100                                                                 
  local pseudopotential read in
  partial core-charges read in
  partial kinetic energy density read in
  kinetic energy density of atom read in
  atomic valenz-charges read in
  non local Contribution for L=           0  read in
    real space projection operators read in
  non local Contribution for L=           0  read in
    real space projection operators read in
  non local Contribution for L=           1  read in
    real space projection operators read in
  non local Contribution for L=           1  read in
    real space projection operators read in
    PAW grid and wavefunctions read in

   number of l-projection  operators is LMAX  =           4
   number of lm-projection operators is LMMAX =           8

 -----------------------------------------------------------------------------
|                                                                             |
|               ----> ADVICE to this user running VASP <----                  |
|                                                                             |
|     You enforced a specific xc type in the INCAR file but a different       |
|     type was found in the POTCAR file.                                      |
|     I HOPE YOU KNOW WHAT YOU ARE DOING!                                     |
|                                                                             |
 -----------------------------------------------------------------------------

  PAW_PBE C_h 06Feb2004                 :
 energy of atom  1       EATOM= -147.1560
 kinetic energy error for atom=    0.0031 (will be added to EATOM!!)
  PAW_PBE H_h 06Feb2004                 :
 energy of atom  2       EATOM=  -12.4884
 kinetic energy error for atom=    0.0006 (will be added to EATOM!!)
  PAW_PBE N_h 06Feb2004                 :
 energy of atom  3       EATOM= -264.5486
 kinetic energy error for atom=    0.0081 (will be added to EATOM!!)


 POSCAR:  C  H  N
  positions in cartesian coordinates
  No initial velocities read in
 exchange correlation table for  LEXCH =       40
   RHO(1)=    0.500       N(1)  =     2000
   RHO(2)=  100.500       N(2)  =     4000

 VTST: version 4.1, (05/19/21)

 CHAIN: initializing optimizer
 
 OPT: Using VASP Dynamics algorithm
 CHAIN: Read ICHAIN            0

 POSCAR:  C  H  N
  positions in cartesian coordinates
  No initial velocities read in



--------------------------------------------------------------------------------------------------------


 ion  position               nearest neighbor table
   1  0.493  0.483  0.521-   5 1.17   4 1.34
   2  0.476  0.486  0.431-   4 1.02
   3  0.524  0.540  0.457-   4 1.02
   4  0.489  0.512  0.467-   2 1.02   3 1.02   1 1.34
   5  0.494  0.460  0.569-   1 1.17

  LATTYP: Found a simple cubic cell.
 ALAT       =    22.0000000000
  
  Lattice vectors:
  
 A1 = (  22.0000000000,   0.0000000000,   0.0000000000)
 A2 = (   0.0000000000,  22.0000000000,   0.0000000000)
 A3 = (   0.0000000000,   0.0000000000,  22.0000000000)


Analysis of symmetry for initial positions (statically):
=====================================================================
 Subroutine PRICEL returns:
 Original cell was already a primitive cell.
 

 Routine SETGRP: Setting up the symmetry group for a 
 simple cubic supercell.


 Subroutine GETGRP returns: Found  1 space group operations
 (whereof  1 operations were pure point group operations)
 out of a pool of 48 trial point group operations.


The static configuration has the point symmetry C_1 .


Analysis of symmetry for dynamics (positions and initial velocities):
=====================================================================
 Subroutine PRICEL returns:
 Original cell was already a primitive cell.
 

 Routine SETGRP: Setting up the symmetry group for a 
 simple cubic supercell.


 Subroutine GETGRP returns: Found  1 space group operations
 (whereof  1 operations were pure point group operations)
 out of a pool of 48 trial point group operations.


The dynamic configuration has the point symmetry C_1 .


 Subroutine INISYM returns: Found  1 space group operations
 (whereof  1 operations are pure point group operations),
 and found     1 'primitive' translations


----------------------------------------------------------------------------------------

                                     Primitive cell                                     

  volume of cell :   10648.0000

  direct lattice vectors                    reciprocal lattice vectors
    22.000000000  0.000000000  0.000000000     0.045454545  0.000000000  0.000000000
     0.000000000 22.000000000  0.000000000     0.000000000  0.045454545  0.000000000
     0.000000000  0.000000000 22.000000000     0.000000000  0.000000000  0.045454545

  length of vectors
    22.000000000 22.000000000 22.000000000     0.045454545  0.045454545  0.045454545

  position of ions in fractional coordinates (direct lattice)
     0.492741136  0.482876364  0.520817273
     0.476050682  0.485580000  0.431414545
     0.523949318  0.539961818  0.457390000
     0.488634773  0.511865909  0.467210455
     0.494056591  0.460038182  0.568585455

  ion indices of the primitive-cell ions
   primitive index   ion index
                 1           1
                 2           2
                 3           3
                 4           4
                 5           5

----------------------------------------------------------------------------------------



 KPOINTS: auto                                    

Automatic generation of k-mesh.
 Grid dimensions read from file:
 generate k-points for:    1    1    1

 Generating k-lattice:

  Cartesian coordinates                     Fractional coordinates (reciprocal lattice)
     0.045454545  0.000000000  0.000000000     1.000000000  0.000000000  0.000000000
     0.000000000  0.045454545  0.000000000     0.000000000  1.000000000  0.000000000
     0.000000000  0.000000000  0.045454545     0.000000000  0.000000000  1.000000000

  Length of vectors
     0.045454545  0.045454545  0.045454545

  Shift w.r.t. Gamma in fractional coordinates (k-lattice)
     0.000000000  0.000000000  0.000000000

 
 Subroutine IBZKPT returns following result:
 ===========================================
 
 Found      1 irreducible k-points:
 
 Following reciprocal coordinates:
            Coordinates               Weight
  0.000000  0.000000  0.000000      1.000000
 
 Following cartesian coordinates:
            Coordinates               Weight
  0.000000  0.000000  0.000000      1.000000
 


--------------------------------------------------------------------------------------------------------




 Dimension of arrays:
   k-points           NKPTS =      1   k-points in BZ     NKDIM =      1   number of bands    NBANDS=     12
   number of dos      NEDOS =    301   number of ions     NIONS =      5
   non local maximal  LDIM  =      4   non local SUM 2l+1 LMDIM =      8
   total plane-waves  NPLWV = ******
   max r-space proj   IRMAX =      1   max aug-charges    IRDMAX=   9419
   dimension x,y,z NGX =   240 NGY =  240 NGZ =  240
   dimension x,y,z NGXF=   480 NGYF=  480 NGZF=  480
   support grid    NGXF=   480 NGYF=  480 NGZF=  480
   ions per type =               1   2   2
   NGX,Y,Z   is equivalent  to a cutoff of  18.14, 18.14, 18.14 a.u.
   NGXF,Y,Z  is equivalent  to a cutoff of  36.27, 36.27, 36.27 a.u.

 SYSTEM =  unknown system                          
 POSCAR =   C  H  N                                

 Startparameter for this run:
   NWRITE =      2    write-flag & timer
   PREC   = accura    normal or accurate (medium, high low for compatibility)
   ISTART =      0    job   : 0-new  1-cont  2-samecut
   ICHARG =      2    charge: 1-file 2-atom 10-const
   ISPIN  =      1    spin polarized calculation?
   LNONCOLLINEAR =      F non collinear calculations
   LSORBIT =      F    spin-orbit coupling
   INIWAV =      1    electr: 0-lowe 1-rand  2-diag
   LASPH  =      F    aspherical Exc in radial PAW
 Electronic Relaxation 1
   ENCUT  = 1000.0 eV  73.50 Ry    8.57 a.u.  56.73 56.73 56.73*2*pi/ulx,y,z
   ENINI  = 1000.0     initial cutoff
   ENAUG  = 1000.0 eV  augmentation charge cutoff
   NELM   =     60;   NELMIN=  2; NELMDL= -5     # of ELM steps 
   EDIFF  = 0.1E-06   stopping-criterion for ELM
   LREAL  =      F    real-space projection
   NLSPLINE    = F    spline interpolate recip. space projectors
   LCOMPAT=      F    compatible to vasp.4.4
   GGA_COMPAT  = T    GGA compatible to vasp.4.4-vasp.4.6
   LMAXPAW     = -100 max onsite density
   LMAXMIX     =    2 max onsite mixed and CHGCAR
   VOSKOWN=      0    Vosko Wilk Nusair interpolation
   ROPT   =    0.00000   0.00000   0.00000
 Ionic relaxation
   EDIFFG = 0.1E-05   stopping-criterion for IOM
   NSW    =      0    number of steps for IOM
   NBLOCK =      1;   KBLOCK =      1    inner block; outer block 
   IBRION =     -1    ionic relax: 0-MD 1-quasi-New 2-CG
   NFREE  =      0    steps in history (QN), initial steepest desc. (CG)
   ISIF   =      0    stress and relaxation
   IWAVPR =     10    prediction:  0-non 1-charg 2-wave 3-comb
   ISYM   =      2    0-nonsym 1-usesym 2-fastsym
   LCORR  =      T    Harris-Foulkes like correction to forces

   POTIM  = 0.5000    time-step for ionic-motion
   TEIN   =    0.0    initial temperature
   TEBEG  =    0.0;   TEEND  =   0.0 temperature during run
   SMASS  =  -3.00    Nose mass-parameter (am)
   estimated Nose-frequenzy (Omega)   =  0.10E-29 period in steps = 0.13E+47 mass=  -0.111E-25a.u.
   SCALEE = 1.0000    scale energy and forces
   NPACO  =    256;   APACO  = 10.0  distance and # of slots for P.C.
   PSTRESS=    0.0 pullay stress

  Mass of Ions in am
   POMASS =  12.01  1.00 14.00
  Ionic Valenz
   ZVAL   =   4.00  1.00  5.00
  Atomic Wigner-Seitz radii
   RWIGS  =  -1.00 -1.00 -1.00
  virtual crystal weights 
   VCA    =   1.00  1.00  1.00
   NELECT =      16.0000    total number of electrons
   NUPDOWN=      -1.0000    fix difference up-down

 DOS related values:
   EMIN   =  10.00;   EMAX   =-10.00  energy-range for DOS
   EFERMI =   0.00;   METHOD = LEGACY      
   ISMEAR =     0;   SIGMA  =   0.01  broadening in eV -4-tet -1-fermi 0-gaus

 Electronic relaxation 2 (details)
   IALGO  =     58    algorithm
   LDIAG  =      T    sub-space diagonalisation (order eigenvalues)
   LSUBROT=      F    optimize rotation matrix (better conditioning)
   TURBO    =      0    0=normal 1=particle mesh
   IRESTART =      0    0=no restart 2=restart with 2 vectors
   NREBOOT  =      0    no. of reboots
   NMIN     =      0    reboot dimension
   EREF     =   0.00    reference energy to select bands
   IMIX   =      4    mixing-type and parameters
     AMIX     =   0.40;   BMIX     =  1.00
     AMIX_MAG =   1.60;   BMIX_MAG =  1.00
     AMIN     =   0.10
     WC   =   100.;   INIMIX=   1;  MIXPRE=   1;  MAXMIX= -45

 Intra band minimization:
   WEIMIN = 0.0000     energy-eigenvalue tresh-hold
   EBREAK =  0.21E-08  absolut break condition
   DEPER  =   0.30     relativ break condition  

   TIME   =   0.40     timestep for ELM

  volume/ion in A,a.u.               =    2129.60     14371.25
  Fermi-wavevector in a.u.,A,eV,Ry     =   0.187510  0.354343  0.478383  0.035160
  Thomas-Fermi vector in A             =   0.923351

 Write flags
   LWAVE        =      F    write WAVECAR
   LDOWNSAMPLE  =      F    k-point downsampling of WAVECAR
   LCHARG       =      F    write CHGCAR
   LVTOT        =      F    write LOCPOT, total local potential
   LVHAR        =      F    write LOCPOT, Hartree potential only
   LELF         =      F    write electronic localiz. function (ELF)
   LORBIT       =      0    0 simple, 1 ext, 2 COOP (PROOUT), +10 PAW based schemes


 Dipole corrections
   LMONO  =      F    monopole corrections only (constant potential shift)
   LDIPOL =      F    correct potential (dipole corrections)
   IDIPOL =      0    1-x, 2-y, 3-z, 4-all directions 
   EPSILON=  1.0000000 bulk dielectric constant

 Exchange correlation treatment:
   GGA     =    RE    GGA type
   LEXCH   =    40    internal setting for exchange type
   LIBXC   =     F    Libxc                    
   VOSKOWN =     0    Vosko Wilk Nusair interpolation
   LHFCALC =     F    Hartree Fock is set to
   LHFONE  =     F    Hartree Fock one center treatment
   AEXX    =    0.0000 exact exchange contribution

 Linear response parameters
   LEPSILON=     F    determine dielectric tensor
   LRPA    =     F    only Hartree local field effects (RPA)
   LNABLA  =     F    use nabla operator in PAW spheres
   LVEL    =     F    velocity operator in full k-point grid
   CSHIFT  =0.1000    complex shift for real part using Kramers Kronig
   OMEGAMAX=  -1.0    maximum frequency
   DEG_THRESHOLD= 0.2000000E-02 threshold for treating states as degnerate
   RTIME   =   -0.100 relaxation time in fs
  (WPLASMAI=    0.000 imaginary part of plasma frequency in eV, 0.658/RTIME)
   DFIELD  = 0.0000000 0.0000000 0.0000000 field for delta impulse in time

  Optional k-point grid parameters
   LKPOINTS_OPT  =     F    use optional k-point grid
   KPOINTS_OPT_MODE=     1    mode for optional k-point grid

 Orbital magnetization related:
   ORBITALMAG=     F  switch on orbital magnetization
   LCHIMAG   =     F  perturbation theory with respect to B field
   DQ        =  0.001000  dq finite difference perturbation B field
   LLRAUG    =     F  two centre corrections for induced B field
   LBONE     =     F  B-component reconstruction in AE one-centre
   LVGVCALC  =     T  calculate vGv susceptibility
   LVGVAPPL  =     F  apply vGv susceptibility instead of pGv for G=0

 Random number generation:
   RANDOM_GENERATOR = DEFAULT
   PCG_SEED         = not used


--------------------------------------------------------------------------------------------------------


 Static calculation
 charge density and potential will be updated during run
 non-spin polarized calculation
 Conjugate gradient for all bands (Freysoldt, et al. PRB 79, 241103 (2009))
 preconditioned conjugated gradient                                        
 perform sub-space diagonalisation
    before iterative eigenvector-optimisation
 modified Broyden-mixing scheme, WC =      100.0
 initial mixing is a Kerker type mixing with AMIX =  0.4000 and BMIX =      1.0000
 Hartree-type preconditioning will be used
 using additional bands            4
 reciprocal scheme for non local part
 use partial core corrections
 no Harris-corrections to forces 
 use gradient corrections 
 use of overlap-Matrix (Vanderbilt PP)
 Gauss-broadening in eV      SIGMA  =   0.01


--------------------------------------------------------------------------------------------------------


  energy-cutoff  :     1000.00
  volume of cell :    10648.00
      direct lattice vectors                 reciprocal lattice vectors
    22.000000000  0.000000000  0.000000000     0.045454545  0.000000000  0.000000000
     0.000000000 22.000000000  0.000000000     0.000000000  0.045454545  0.000000000
     0.000000000  0.000000000 22.000000000     0.000000000  0.000000000  0.045454545

  length of vectors
    22.000000000 22.000000000 22.000000000     0.045454545  0.045454545  0.045454545



 k-points in units of 2pi/SCALE and weight: auto                                    
   0.00000000  0.00000000  0.00000000       1.000

 k-points in reciprocal lattice and weights: auto                                    
   0.00000000  0.00000000  0.00000000       1.000

 position of ions in fractional coordinates (direct lattice) 
   0.49274114  0.48287636  0.52081727
   0.47605068  0.48558000  0.43141455
   0.52394932  0.53996182  0.45739000
   0.48863477  0.51186591  0.46721045
   0.49405659  0.46003818  0.56858545

 position of ions in cartesian coordinates  (Angst):
  10.84030500 10.62328000 11.45798000
  10.47311500 10.68276000  9.49112000
  11.52688500 11.87916000 10.06258000
  10.74996500 11.26105000 10.27863000
  10.86924500 10.12084000 12.50888000



--------------------------------------------------------------------------------------------------------


 use parallel FFT for orbitals z direction half grid
 k-point   1 :   0.0000 0.0000 0.0000  plane waves:  381993

 maximum and minimum number of plane-waves per node :      5979     5959

 maximum number of plane-waves:    381993
 maximum index in each direction: 
   IXMAX=   56   IYMAX=   56   IZMAX=   56
   IXMIN=  -56   IYMIN=  -56   IZMIN=    0


 parallel 3D FFT for wavefunctions:
    minimum data exchange during FFTs selected (reduces bandwidth)
 parallel 3D FFT for charge:
    minimum data exchange during FFTs selected (reduces bandwidth)


 total amount of memory used by VASP MPI-rank0    91396. kBytes
=======================================================================

   base      :      30000. kBytes
   nonl-proj :       1622. kBytes
   fftplans  :      20101. kBytes
   grid      :      38814. kBytes
   one-center:          1. kBytes
   wavefun   :        858. kBytes

     INWAV:  cpu time      0.0001: real time      0.0003
 Broyden mixing: mesh for mixing (old mesh)
   NGX =113   NGY =113   NGZ =113
  (NGX  =480   NGY  =480   NGZ  =480)
  gives a total of ****** points

 initial charge density was supplied:
 charge density of overlapping atoms calculated
 number of electron      16.0000000 magnetization 
 keeping initial charge density in first step


--------------------------------------------------------------------------------------------------------


 Maximum index for augmentation-charges          216 (set IRDMAX)


--------------------------------------------------------------------------------------------------------


 First call to EWALD:  gamma=   0.081
 Maximum number of real-space cells 3x 3x 3
 Maximum number of reciprocal cells 3x 3x 3

    FEWALD:  cpu time      0.0028: real time      0.0029


--------------------------------------- Ionic step        1  -------------------------------------------




--------------------------------------- Iteration      1(   1)  ---------------------------------------


    POTLOK:  cpu time      0.5924: real time      0.5927
    SETDIJ:  cpu time      0.0110: real time      0.0115
    TRIAL :  cpu time      0.3442: real time      0.3471
    CORREC:  cpu time      0.0013: real time      0.0015
    --------------------------------------------
      LOOP:  cpu time      0.9568: real time      0.9608

 eigenvalue-minimisations  :    40
 total energy-change (2. order) : 0.1360458E+03  (-0.3265888E+03)
 number of electron      16.0000000 magnetization 
 augmentation part       16.0000000 magnetization 

 Free energy of the ion-electron system (eV)
  ---------------------------------------------------
  alpha Z        PSCENC =         0.07253111
  Ewald energy   TEWEN  =       622.82150315
  -Hartree energ DENC   =     -1130.17152709
  -exchange      EXHF   =         0.00000000
  -V(xc)+E(xc)   XCENC  =        43.35494571
  PAW double counting   =       531.41568878     -522.56646550
  entropy T*S    EENTRO =        -0.00000000
  eigenvalues    EBANDS =      -109.66680616
  atomic energy  EATOM  =       700.78592291
  ---------------------------------------------------
  free energy    TOTEN  =       136.04579290 eV

  energy without entropy =      136.04579290  energy(sigma->0) =      136.04579290


--------------------------------------------------------------------------------------------------------




--------------------------------------- Iteration      1(   2)  ---------------------------------------


    TRIAL :  cpu time      0.3164: real time      0.3165
    CORREC:  cpu time      0.0001: real time      0.0001
    --------------------------------------------
      LOOP:  cpu time      0.3303: real time      0.3461

 eigenvalue-minimisations  :    40
 total energy-change (2. order) :-0.7815621E+02  (-0.7470030E+02)
 number of electron      16.0000000 magnetization 
 augmentation part       16.0000000 magnetization 

 Free energy of the ion-electron system (eV)
  ---------------------------------------------------
  alpha Z        PSCENC =         0.07253111
  Ewald energy   TEWEN  =       622.82150315
  -Hartree energ DENC   =     -1130.17152709
  -exchange      EXHF   =         0.00000000
  -V(xc)+E(xc)   XCENC  =        43.35494571
  PAW double counting   =       531.41568878     -522.56646550
  entropy T*S    EENTRO =        -0.00000000
  eigenvalues    EBANDS =      -187.82301172
  atomic energy  EATOM  =       700.78592291
  ---------------------------------------------------
  free energy    TOTEN  =        57.88958734 eV

  energy without entropy =       57.88958734  energy(sigma->0) =       57.88958734


--------------------------------------------------------------------------------------------------------




--------------------------------------- Iteration      1(   3)  ---------------------------------------


    TRIAL :  cpu time      0.3158: real time      0.3159
    CORREC:  cpu time      0.0001: real time      0.0001
    --------------------------------------------
      LOOP:  cpu time      0.3312: real time      0.3458

 eigenvalue-minimisations  :    40
 total energy-change (2. order) :-0.7461343E+02  (-0.6658695E+02)
 number of electron      16.0000000 magnetization 
 augmentation part       16.0000000 magnetization 

 Free energy of the ion-electron system (eV)
  ---------------------------------------------------
  alpha Z        PSCENC =         0.07253111
  Ewald energy   TEWEN  =       622.82150315
  -Hartree energ DENC   =     -1130.17152709
  -exchange      EXHF   =         0.00000000
  -V(xc)+E(xc)   XCENC  =        43.35494571
  PAW double counting   =       531.41568878     -522.56646550
  entropy T*S    EENTRO =        -0.00000000
  eigenvalues    EBANDS =      -262.43644227
  atomic energy  EATOM  =       700.78592291
  ---------------------------------------------------
  free energy    TOTEN  =       -16.72384321 eV

  energy without entropy =      -16.72384321  energy(sigma->0) =      -16.72384321


--------------------------------------------------------------------------------------------------------




--------------------------------------- Iteration      1(   4)  ---------------------------------------


    TRIAL :  cpu time      0.2220: real time      0.2220
    CORREC:  cpu time      0.0003: real time      0.0003
    --------------------------------------------
      LOOP:  cpu time      0.2504: real time      0.2506

 eigenvalue-minimisations  :    24
 total energy-change (2. order) :-0.1766606E+02  (-0.1760529E+02)
 number of electron      16.0000000 magnetization 
 augmentation part       16.0000000 magnetization 

 Free energy of the ion-electron system (eV)
  ---------------------------------------------------
  alpha Z        PSCENC =         0.07253111
  Ewald energy   TEWEN  =       622.82150315
  -Hartree energ DENC   =     -1130.17152709
  -exchange      EXHF   =         0.00000000
  -V(xc)+E(xc)   XCENC  =        43.35494571
  PAW double counting   =       531.41568878     -522.56646550
  entropy T*S    EENTRO =        -0.00000000
  eigenvalues    EBANDS =      -280.10250098
  atomic energy  EATOM  =       700.78592291
  ---------------------------------------------------
  free energy    TOTEN  =       -34.38990192 eV

  energy without entropy =      -34.38990192  energy(sigma->0) =      -34.38990192


--------------------------------------------------------------------------------------------------------




--------------------------------------- Iteration      1(   5)  ---------------------------------------


    TRIAL :  cpu time      0.2683: real time      0.2686
    CORREC:  cpu time      0.0001: real time      0.0001
    CHARGE:  cpu time      0.0888: real time      0.0894
    --------------------------------------------
      LOOP:  cpu time      0.3696: real time      0.3875

 eigenvalue-minimisations  :    32
 total energy-change (2. order) :-0.9161877E+00  (-0.9046273E+00)
 number of electron      16.0000000 magnetization 
 augmentation part       -0.0457322 magnetization 

 Free energy of the ion-electron system (eV)
  ---------------------------------------------------
  alpha Z        PSCENC =         0.07253111
  Ewald energy   TEWEN  =       622.82150315
  -Hartree energ DENC   =     -1130.17152709
  -exchange      EXHF   =         0.00000000
  -V(xc)+E(xc)   XCENC  =        43.35494571
  PAW double counting   =       531.41568878     -522.56646550
  entropy T*S    EENTRO =        -0.00000000
  eigenvalues    EBANDS =      -281.01868868
  atomic energy  EATOM  =       700.78592291
  ---------------------------------------------------
  free energy    TOTEN  =       -35.30608962 eV

  energy without entropy =      -35.30608962  energy(sigma->0) =      -35.30608962


--------------------------------------------------------------------------------------------------------




--------------------------------------- Iteration      1(   6)  ---------------------------------------


    POTLOK:  cpu time      0.6045: real time      0.6046
    SETDIJ:  cpu time      0.0022: real time      0.0022
    TRIAL :  cpu time      0.1690: real time      0.1709
    CORREC:  cpu time      0.7272: real time      0.7277
    CHARGE:  cpu time      0.0782: real time      0.0782
    --------------------------------------------
      LOOP:  cpu time      1.5948: real time      1.6112

 eigenvalue-minimisations  :     0
 total energy-change (2. order) : 0.7635217E+01  (-0.3241680E+01)
 number of electron      16.0000000 magnetization 
 augmentation part       -0.0598278 magnetization 

 Free energy of the ion-electron system (eV)
  ---------------------------------------------------
  alpha Z        PSCENC =         0.07253111
  Ewald energy   TEWEN  =       622.82150315
  -Hartree energ DENC   =     -1253.36101248
  -exchange      EXHF   =         0.00000000
  -V(xc)+E(xc)   XCENC  =        49.48103477
  PAW double counting   =      5982.15604909    -5973.88855314
  entropy T*S    EENTRO =        -0.00000000
  eigenvalues    EBANDS =      -155.73834772
  atomic energy  EATOM  =       700.78592291
  ---------------------------------------------------
  free energy    TOTEN  =       -27.67087232 eV

  energy without entropy =      -27.67087232  energy(sigma->0) =      -27.67087232


--------------------------------------------------------------------------------------------------------




--------------------------------------- Iteration      1(   7)  ---------------------------------------


    POTLOK:  cpu time      0.6068: real time      0.6072
    SETDIJ:  cpu time      0.0025: real time      0.0025
    TRIAL :  cpu time      0.1534: real time      0.1534
    CORREC:  cpu time      0.7207: real time      0.7212
    CHARGE:  cpu time      0.0781: real time      0.0781
    --------------------------------------------
      LOOP:  cpu time      1.5743: real time      1.5921

 eigenvalue-minimisations  :     0
 total energy-change (2. order) :-0.3280975E+01  (-0.3546903E+00)
 number of electron      16.0000000 magnetization 
 augmentation part       -0.0728112 magnetization 

 Free energy of the ion-electron system (eV)
  ---------------------------------------------------
  alpha Z        PSCENC =         0.07253111
  Ewald energy   TEWEN  =       622.82150315
  -Hartree energ DENC   =     -1193.99932615
  -exchange      EXHF   =         0.00000000
  -V(xc)+E(xc)   XCENC  =        46.54645173
  PAW double counting   =      7669.03843986    -7660.49426411
  entropy T*S    EENTRO =        -0.00000000
  eigenvalues    EBANDS =      -215.72310539
  atomic energy  EATOM  =       700.78592291
  ---------------------------------------------------
  free energy    TOTEN  =       -30.95184690 eV

  energy without entropy =      -30.95184690  energy(sigma->0) =      -30.95184690


--------------------------------------------------------------------------------------------------------




--------------------------------------- Iteration      1(   8)  ---------------------------------------


    POTLOK:  cpu time      0.6058: real time      0.6061
    SETDIJ:  cpu time      0.0025: real time      0.0025
    TRIAL :  cpu time      0.1532: real time      0.1532
    CORREC:  cpu time      0.7193: real time      0.7197
    CHARGE:  cpu time      0.0764: real time      0.0764
    --------------------------------------------
      LOOP:  cpu time      1.5707: real time      1.5878

 eigenvalue-minimisations  :     0
 total energy-change (2. order) :-0.3547438E+00  (-0.1361762E+00)
 number of electron      16.0000000 magnetization 
 augmentation part       -0.0745910 magnetization 

 Free energy of the ion-electron system (eV)
  ---------------------------------------------------
  alpha Z        PSCENC =         0.07253111
  Ewald energy   TEWEN  =       622.82150315
  -Hartree energ DENC   =     -1195.09628846
  -exchange      EXHF   =         0.00000000
  -V(xc)+E(xc)   XCENC  =        46.57881607
  PAW double counting   =      8020.76156084    -8012.18372527
  entropy T*S    EENTRO =        -0.00000000
  eigenvalues    EBANDS =      -215.04691107
  atomic energy  EATOM  =       700.78592291
  ---------------------------------------------------
  free energy    TOTEN  =       -31.30659073 eV

  energy without entropy =      -31.30659073  energy(sigma->0) =      -31.30659073


--------------------------------------------------------------------------------------------------------




--------------------------------------- Iteration      1(   9)  ---------------------------------------


    POTLOK:  cpu time      0.6052: real time      0.6053
    SETDIJ:  cpu time      0.0024: real time      0.0024
    TRIAL :  cpu time      0.1529: real time      0.1529
    CORREC:  cpu time      0.7215: real time      0.7218
    CHARGE:  cpu time      0.0781: real time      0.0781
    --------------------------------------------
      LOOP:  cpu time      1.5796: real time      1.5919

 eigenvalue-minimisations  :     0
 total energy-change (2. order) :-0.1356014E+00  (-0.5427070E-01)
 number of electron      16.0000000 magnetization 
 augmentation part       -0.0730086 magnetization 

 Free energy of the ion-electron system (eV)
  ---------------------------------------------------
  alpha Z        PSCENC =         0.07253111
  Ewald energy   TEWEN  =       622.82150315
  -Hartree energ DENC   =     -1195.26337387
  -exchange      EXHF   =         0.00000000
  -V(xc)+E(xc)   XCENC  =        46.60113925
  PAW double counting   =      8110.57942560    -8101.98864572
  entropy T*S    EENTRO =        -0.00000000
  eigenvalues    EBANDS =      -215.05069453
  atomic energy  EATOM  =       700.78592291
  ---------------------------------------------------
  free energy    TOTEN  =       -31.44219210 eV

  energy without entropy =      -31.44219210  energy(sigma->0) =      -31.44219210


--------------------------------------------------------------------------------------------------------




--------------------------------------- Iteration      1(  10)  ---------------------------------------


    POTLOK:  cpu time      0.6041: real time      0.6044
    SETDIJ:  cpu time      0.0024: real time      0.0024
    TRIAL :  cpu time      0.1534: real time      0.1534
    CORREC:  cpu time      0.7173: real time      0.7175
    CHARGE:  cpu time      0.0787: real time      0.0787
    --------------------------------------------
      LOOP:  cpu time      1.5847: real time      1.5854

 eigenvalue-minimisations  :     0
 total energy-change (2. order) :-0.5398719E-01  (-0.1729684E-01)
 number of electron      16.0000000 magnetization 
 augmentation part       -0.0717584 magnetization 

 Free energy of the ion-electron system (eV)
  ---------------------------------------------------
  alpha Z        PSCENC =         0.07253111
  Ewald energy   TEWEN  =       622.82150315
  -Hartree energ DENC   =     -1194.21158445
  -exchange      EXHF   =         0.00000000
  -V(xc)+E(xc)   XCENC  =        46.56595406
  PAW double counting   =      7983.59594583    -7975.00421887
  entropy T*S    EENTRO =        -0.00000000
  eigenvalues    EBANDS =      -216.12223303
  atomic energy  EATOM  =       700.78592291
  ---------------------------------------------------
  free energy    TOTEN  =       -31.49617930 eV

  energy without entropy =      -31.49617930  energy(sigma->0) =      -31.49617930


--------------------------------------------------------------------------------------------------------




--------------------------------------- Iteration      1(  11)  ---------------------------------------


    POTLOK:  cpu time      0.6003: real time      0.6003
    SETDIJ:  cpu time      0.0021: real time      0.0021
    TRIAL :  cpu time      0.1522: real time      0.1527
    CORREC:  cpu time      0.7118: real time      0.7118
    CHARGE:  cpu time      0.0776: real time      0.0776
    --------------------------------------------
      LOOP:  cpu time      1.5559: real time      1.5732

 eigenvalue-minimisations  :     0
 total energy-change (2. order) :-0.1724773E-01  (-0.5344319E-02)
 number of electron      16.0000000 magnetization 
 augmentation part       -0.0709864 magnetization 

 Free energy of the ion-electron system (eV)
  ---------------------------------------------------
  alpha Z        PSCENC =         0.07253111
  Ewald energy   TEWEN  =       622.82150315
  -Hartree energ DENC   =     -1194.09582475
  -exchange      EXHF   =         0.00000000
  -V(xc)+E(xc)   XCENC  =        46.56000229
  PAW double counting   =      7840.97540821    -7832.38903034
  entropy T*S    EENTRO =        -0.00000000
  eigenvalues    EBANDS =      -216.24393960
  atomic energy  EATOM  =       700.78592291
  ---------------------------------------------------
  free energy    TOTEN  =       -31.51342702 eV

  energy without entropy =      -31.51342702  energy(sigma->0) =      -31.51342702


--------------------------------------------------------------------------------------------------------




--------------------------------------- Iteration      1(  12)  ---------------------------------------


    POTLOK:  cpu time      0.6005: real time      0.6009
    SETDIJ:  cpu time      0.0021: real time      0.0021
    TRIAL :  cpu time      0.1531: real time      0.1531
    CORREC:  cpu time      0.7063: real time      0.7067
    CHARGE:  cpu time      0.0789: real time      0.0790
    --------------------------------------------
      LOOP:  cpu time      1.5536: real time      1.5719

 eigenvalue-minimisations  :     0
 total energy-change (2. order) :-0.5332696E-02  (-0.1626082E-02)
 number of electron      16.0000000 magnetization 
 augmentation part       -0.0707647 magnetization 

 Free energy of the ion-electron system (eV)
  ---------------------------------------------------
  alpha Z        PSCENC =         0.07253111
  Ewald energy   TEWEN  =       622.82150315
  -Hartree energ DENC   =     -1193.93205237
  -exchange      EXHF   =         0.00000000
  -V(xc)+E(xc)   XCENC  =        46.54783481
  PAW double counting   =      7780.97253761    -7772.38890335
  entropy T*S    EENTRO =        -0.00000000
  eigenvalues    EBANDS =      -216.39813358
  atomic energy  EATOM  =       700.78592291
  ---------------------------------------------------
  free energy    TOTEN  =       -31.51875972 eV

  energy without entropy =      -31.51875972  energy(sigma->0) =      -31.51875972


--------------------------------------------------------------------------------------------------------




--------------------------------------- Iteration      1(  13)  ---------------------------------------


    POTLOK:  cpu time      0.5929: real time      0.5934
    SETDIJ:  cpu time      0.0021: real time      0.0021
    TRIAL :  cpu time      0.1524: real time      0.1524
    CORREC:  cpu time      0.6965: real time      0.6966
    CHARGE:  cpu time      0.0781: real time      0.0781
    --------------------------------------------
      LOOP:  cpu time      1.5341: real time      1.5518

 eigenvalue-minimisations  :     0
 total energy-change (2. order) :-0.1624952E-02  (-0.5177027E-03)
 number of electron      16.0000000 magnetization 
 augmentation part       -0.0707923 magnetization 

 Free energy of the ion-electron system (eV)
  ---------------------------------------------------
  alpha Z        PSCENC =         0.07253111
  Ewald energy   TEWEN  =       622.82150315
  -Hartree energ DENC   =     -1193.80386882
  -exchange      EXHF   =         0.00000000
  -V(xc)+E(xc)   XCENC  =        46.54102081
  PAW double counting   =      7776.03161122    -7767.44841832
  entropy T*S    EENTRO =        -0.00000000
  eigenvalues    EBANDS =      -216.52068672
  atomic energy  EATOM  =       700.78592291
  ---------------------------------------------------
  free energy    TOTEN  =       -31.52038467 eV

  energy without entropy =      -31.52038467  energy(sigma->0) =      -31.52038467


--------------------------------------------------------------------------------------------------------




--------------------------------------- Iteration      1(  14)  ---------------------------------------


    POTLOK:  cpu time      0.5816: real time      0.5817
    SETDIJ:  cpu time      0.0021: real time      0.0021
    TRIAL :  cpu time      0.1531: real time      0.1531
    CORREC:  cpu time      0.6898: real time      0.6902
    CHARGE:  cpu time      0.0769: real time      0.0769
    --------------------------------------------
      LOOP:  cpu time      1.5223: real time      1.5334

 eigenvalue-minimisations  :     0
 total energy-change (2. order) :-0.5175587E-03  (-0.1886441E-03)
 number of electron      16.0000000 magnetization 
 augmentation part       -0.0708369 magnetization 

 Free energy of the ion-electron system (eV)
  ---------------------------------------------------
  alpha Z        PSCENC =         0.07253111
  Ewald energy   TEWEN  =       622.82150315
  -Hartree energ DENC   =     -1193.82361435
  -exchange      EXHF   =         0.00000000
  -V(xc)+E(xc)   XCENC  =        46.54311373
  PAW double counting   =      7783.29165303    -7774.70852544
  entropy T*S    EENTRO =        -0.00000000
  eigenvalues    EBANDS =      -216.50348636
  atomic energy  EATOM  =       700.78592291
  ---------------------------------------------------
  free energy    TOTEN  =       -31.52090223 eV

  energy without entropy =      -31.52090223  energy(sigma->0) =      -31.52090223


--------------------------------------------------------------------------------------------------------




--------------------------------------- Iteration      1(  15)  ---------------------------------------


    POTLOK:  cpu time      0.5852: real time      0.5854
    SETDIJ:  cpu time      0.0021: real time      0.0021
    TRIAL :  cpu time      0.1536: real time      0.1536
    CORREC:  cpu time      0.6921: real time      0.6921
    CHARGE:  cpu time      0.0765: real time      0.0770
    --------------------------------------------
      LOOP:  cpu time      1.5232: real time      1.5425

 eigenvalue-minimisations  :     0
 total energy-change (2. order) :-0.1884986E-03  (-0.7583599E-04)
 number of electron      16.0000000 magnetization 
 augmentation part       -0.0708431 magnetization 

 Free energy of the ion-electron system (eV)
  ---------------------------------------------------
  alpha Z        PSCENC =         0.07253111
  Ewald energy   TEWEN  =       622.82150315
  -Hartree energ DENC   =     -1193.82805638
  -exchange      EXHF   =         0.00000000
  -V(xc)+E(xc)   XCENC  =        46.54322695
  PAW double counting   =      7787.60681385    -7779.02352731
  entropy T*S    EENTRO =        -0.00000000
  eigenvalues    EBANDS =      -216.49950501
  atomic energy  EATOM  =       700.78592291
  ---------------------------------------------------
  free energy    TOTEN  =       -31.52109073 eV

  energy without entropy =      -31.52109073  energy(sigma->0) =      -31.52109073


--------------------------------------------------------------------------------------------------------




--------------------------------------- Iteration      1(  16)  ---------------------------------------


    POTLOK:  cpu time      0.5765: real time      0.5765
    SETDIJ:  cpu time      0.0022: real time      0.0022
    TRIAL :  cpu time      0.1534: real time      0.1534
    CORREC:  cpu time      0.6892: real time      0.6896
    CHARGE:  cpu time      0.0777: real time      0.0777
    --------------------------------------------
      LOOP:  cpu time      1.5235: real time      1.5304

 eigenvalue-minimisations  :     0
 total energy-change (2. order) :-0.7589556E-04  (-0.3193037E-04)
 number of electron      16.0000000 magnetization 
 augmentation part       -0.0708405 magnetization 

 Free energy of the ion-electron system (eV)
  ---------------------------------------------------
  alpha Z        PSCENC =         0.07253111
  Ewald energy   TEWEN  =       622.82150315
  -Hartree energ DENC   =     -1193.83257586
  -exchange      EXHF   =         0.00000000
  -V(xc)+E(xc)   XCENC  =        46.54294381
  PAW double counting   =      7786.61964625    -7778.03630316
  entropy T*S    EENTRO =        -0.00000000
  eigenvalues    EBANDS =      -216.49483482
  atomic energy  EATOM  =       700.78592291
  ---------------------------------------------------
  free energy    TOTEN  =       -31.52116662 eV

  energy without entropy =      -31.52116662  energy(sigma->0) =      -31.52116662


--------------------------------------------------------------------------------------------------------




--------------------------------------- Iteration      1(  17)  ---------------------------------------


    POTLOK:  cpu time      0.5740: real time      0.5744
    SETDIJ:  cpu time      0.0024: real time      0.0024
    TRIAL :  cpu time      0.1525: real time      0.1526
    CORREC:  cpu time      0.6875: real time      0.6878
    CHARGE:  cpu time      0.0787: real time      0.0787
    --------------------------------------------
      LOOP:  cpu time      1.5079: real time      1.5252

 eigenvalue-minimisations  :     0
 total energy-change (2. order) :-0.3188518E-04  (-0.1310990E-04)
 number of electron      16.0000000 magnetization 
 augmentation part       -0.0708478 magnetization 

 Free energy of the ion-electron system (eV)
  ---------------------------------------------------
  alpha Z        PSCENC =         0.07253111
  Ewald energy   TEWEN  =       622.82150315
  -Hartree energ DENC   =     -1193.85074284
  -exchange      EXHF   =         0.00000000
  -V(xc)+E(xc)   XCENC  =        46.54377258
  PAW double counting   =      7784.23405882    -7775.65080966
  entropy T*S    EENTRO =        -0.00000000
  eigenvalues    EBANDS =      -216.47743458
  atomic energy  EATOM  =       700.78592291
  ---------------------------------------------------
  free energy    TOTEN  =       -31.52119851 eV

  energy without entropy =      -31.52119851  energy(sigma->0) =      -31.52119851


--------------------------------------------------------------------------------------------------------




--------------------------------------- Iteration      1(  18)  ---------------------------------------


    POTLOK:  cpu time      0.5742: real time      0.5743
    SETDIJ:  cpu time      0.0021: real time      0.0020
    TRIAL :  cpu time      0.1531: real time      0.1531
    CORREC:  cpu time      0.6875: real time      0.6878
    CHARGE:  cpu time      0.0775: real time      0.0775
    --------------------------------------------
      LOOP:  cpu time      1.5232: real time      1.5237

 eigenvalue-minimisations  :     0
 total energy-change (2. order) :-0.1308877E-04  (-0.5100962E-05)
 number of electron      16.0000000 magnetization 
 augmentation part       -0.0708543 magnetization 

 Free energy of the ion-electron system (eV)
  ---------------------------------------------------
  alpha Z        PSCENC =         0.07253111
  Ewald energy   TEWEN  =       622.82150315
  -Hartree energ DENC   =     -1193.84908759
  -exchange      EXHF   =         0.00000000
  -V(xc)+E(xc)   XCENC  =        46.54354830
  PAW double counting   =      7784.53145928    -7775.94820058
  entropy T*S    EENTRO =        -0.00000000
  eigenvalues    EBANDS =      -216.47888816
  atomic energy  EATOM  =       700.78592291
  ---------------------------------------------------
  free energy    TOTEN  =       -31.52121160 eV

  energy without entropy =      -31.52121160  energy(sigma->0) =      -31.52121160


--------------------------------------------------------------------------------------------------------




--------------------------------------- Iteration      1(  19)  ---------------------------------------


    POTLOK:  cpu time      0.5726: real time      0.5730
    SETDIJ:  cpu time      0.0030: real time      0.0030
    TRIAL :  cpu time      0.1525: real time      0.1526
    CORREC:  cpu time      0.6882: real time      0.6885
    CHARGE:  cpu time      0.0779: real time      0.0779
    --------------------------------------------
      LOOP:  cpu time      1.5069: real time      1.5249

 eigenvalue-minimisations  :     0
 total energy-change (2. order) :-0.5045217E-05  (-0.1609186E-05)
 number of electron      16.0000000 magnetization 
 augmentation part       -0.0708577 magnetization 

 Free energy of the ion-electron system (eV)
  ---------------------------------------------------
  alpha Z        PSCENC =         0.07253111
  Ewald energy   TEWEN  =       622.82150315
  -Hartree energ DENC   =     -1193.85605956
  -exchange      EXHF   =         0.00000000
  -V(xc)+E(xc)   XCENC  =        46.54386154
  PAW double counting   =      7786.48062401    -7777.89736176
  entropy T*S    EENTRO =        -0.00000000
  eigenvalues    EBANDS =      -216.47223803
  atomic energy  EATOM  =       700.78592291
  ---------------------------------------------------
  free energy    TOTEN  =       -31.52121664 eV

  energy without entropy =      -31.52121664  energy(sigma->0) =      -31.52121664


--------------------------------------------------------------------------------------------------------




--------------------------------------- Iteration      1(  20)  ---------------------------------------


    POTLOK:  cpu time      0.5736: real time      0.5737
    SETDIJ:  cpu time      0.0022: real time      0.0022
    TRIAL :  cpu time      0.1525: real time      0.1525
    CORREC:  cpu time      0.6881: real time      0.6884
    CHARGE:  cpu time      0.0768: real time      0.0768
    --------------------------------------------
      LOOP:  cpu time      1.5083: real time      1.5252

 eigenvalue-minimisations  :     0
 total energy-change (2. order) :-0.1601445E-05  (-0.5244383E-06)
 number of electron      16.0000000 magnetization 
 augmentation part       -0.0708568 magnetization 

 Free energy of the ion-electron system (eV)
  ---------------------------------------------------
  alpha Z        PSCENC =         0.07253111
  Ewald energy   TEWEN  =       622.82150315
  -Hartree energ DENC   =     -1193.85343717
  -exchange      EXHF   =         0.00000000
  -V(xc)+E(xc)   XCENC  =        46.54380056
  PAW double counting   =      7787.96740572    -7779.38411845
  entropy T*S    EENTRO =        -0.00000000
  eigenvalues    EBANDS =      -216.47482608
  atomic energy  EATOM  =       700.78592291
  ---------------------------------------------------
  free energy    TOTEN  =       -31.52121824 eV

  energy without entropy =      -31.52121824  energy(sigma->0) =      -31.52121824


--------------------------------------------------------------------------------------------------------




--------------------------------------- Iteration      1(  21)  ---------------------------------------


    POTLOK:  cpu time      0.5734: real time      0.5740
    SETDIJ:  cpu time      0.0023: real time      0.0023
    TRIAL :  cpu time      0.1533: real time      0.1533
    CORREC:  cpu time      0.6862: real time      0.6866
    CHARGE:  cpu time      0.0780: real time      0.0780
    --------------------------------------------
      LOOP:  cpu time      1.5243: real time      1.5255

 eigenvalue-minimisations  :     0
 total energy-change (2. order) :-0.5302254E-06  (-0.1744600E-06)
 number of electron      16.0000000 magnetization 
 augmentation part       -0.0708556 magnetization 

 Free energy of the ion-electron system (eV)
  ---------------------------------------------------
  alpha Z        PSCENC =         0.07253111
  Ewald energy   TEWEN  =       622.82150315
  -Hartree energ DENC   =     -1193.85316922
  -exchange      EXHF   =         0.00000000
  -V(xc)+E(xc)   XCENC  =        46.54379878
  PAW double counting   =      7788.38310329    -7779.79981162
  entropy T*S    EENTRO =        -0.00000000
  eigenvalues    EBANDS =      -216.47509716
  atomic energy  EATOM  =       700.78592291
  ---------------------------------------------------
  free energy    TOTEN  =       -31.52121877 eV

  energy without entropy =      -31.52121877  energy(sigma->0) =      -31.52121877


--------------------------------------------------------------------------------------------------------




--------------------------------------- Iteration      1(  22)  ---------------------------------------


    POTLOK:  cpu time      0.5727: real time      0.5728
    SETDIJ:  cpu time      0.0021: real time      0.0021
    TRIAL :  cpu time      0.1529: real time      0.1529
    CORREC:  cpu time      0.6893: real time      0.6896
    CHARGE:  cpu time      0.0781: real time      0.0781
    --------------------------------------------
      LOOP:  cpu time      1.5120: real time      1.5250

 eigenvalue-minimisations  :     0
 total energy-change (2. order) :-0.1807821E-06  (-0.5534667E-07)
 number of electron      16.0000000 magnetization 
 augmentation part       -0.0708552 magnetization 

 Free energy of the ion-electron system (eV)
  ---------------------------------------------------
  alpha Z        PSCENC =         0.07253111
  Ewald energy   TEWEN  =       622.82150315
  -Hartree energ DENC   =     -1193.85280433
  -exchange      EXHF   =         0.00000000
  -V(xc)+E(xc)   XCENC  =        46.54377697
  PAW double counting   =      7788.20560766    -7779.62231626
  entropy T*S    EENTRO =        -0.00000000
  eigenvalues    EBANDS =      -216.47544016
  atomic energy  EATOM  =       700.78592291
  ---------------------------------------------------
  free energy    TOTEN  =       -31.52121895 eV

  energy without entropy =      -31.52121895  energy(sigma->0) =      -31.52121895


--------------------------------------------------------------------------------------------------------




--------------------------------------- Iteration      1(  23)  ---------------------------------------


    POTLOK:  cpu time      0.5728: real time      0.5730
    SETDIJ:  cpu time      0.0022: real time      0.0022
    TRIAL :  cpu time      0.1522: real time      0.1522
    CORREC:  cpu time      0.6866: real time      0.6869
    EDDIAG:  cpu time      0.0727: real time      0.0731
    CHARGE:  cpu time      0.0771: real time      0.0771
    --------------------------------------------
      LOOP:  cpu time      1.5756: real time      1.5940

 eigenvalue-minimisations  :     0
 total energy-change (2. order) :-0.5748552E-07  (-0.1890767E-07)
 number of electron      16.0000000 magnetization 
 augmentation part       -0.0708551 magnetization 

 Free energy of the ion-electron system (eV)
  ---------------------------------------------------
  alpha Z        PSCENC =         0.07253111
  Ewald energy   TEWEN  =       622.82150315
  -Hartree energ DENC   =     -1193.85237177
  -exchange      EXHF   =         0.00000000
  -V(xc)+E(xc)   XCENC  =        46.54375223
  PAW double counting   =      7787.93883445    -7779.35554220
  entropy T*S    EENTRO =        -0.00000000
  eigenvalues    EBANDS =      -216.47584888
  atomic energy  EATOM  =       700.78592291
  ---------------------------------------------------
  free energy    TOTEN  =       -31.52121901 eV

  energy without entropy =      -31.52121901  energy(sigma->0) =      -31.52121901


--------------------------------------------------------------------------------------------------------


  average scaling for gradient   0.8607


 average (electrostatic) potential at core
  the test charge radii are     0.5770  0.4325  0.5902
  (the norm of the test charge is              1.0000)
       1 -87.9818       2 -48.3912       3 -48.3872       4-105.4802       5-103.2005



 E-fermi :  -6.5621     XC(G=0):  -0.1026     alpha+bet : -0.0324

 Fermi energy:        -6.5620897646

 k-point     1 :       0.0000    0.0000    0.0000
  band No.  band energies     occupation 
      1     -24.2903      2.00000
      2     -21.9437      2.00000
      3     -15.0657      2.00000
      4     -14.0112      2.00000
      5      -9.8092      2.00000
      6      -8.4148      2.00000
      7      -8.0938      2.00000
      8      -6.6090      2.00000
      9      -1.3173      0.00000
     10      -0.5077      0.00000
     11       0.1324      0.00000
     12       0.1748      0.00000


--------------------------------------------------------------------------------------------------------


 soft charge-density along one line, spin component           1
         0         1         2         3         4         5         6         7         8         9
 total charge-density along one line

 pseudopotential strength for first ion, spin component:           1
 12.814  21.567   0.009  -0.016  -0.002   0.016  -0.029  -0.003
 21.567  36.295   0.015  -0.027  -0.003   0.027  -0.048  -0.005
  0.009   0.015  -3.129   0.001   0.000  -5.610   0.002   0.000
 -0.016  -0.027   0.001  -3.130  -0.000   0.002  -5.613  -0.000
 -0.002  -0.003   0.000  -0.000  -3.128   0.000  -0.000  -5.609
  0.016   0.027  -5.610   0.002   0.000 -10.037   0.004   0.000
 -0.029  -0.048   0.002  -5.613  -0.000   0.004 -10.043  -0.001
 -0.003  -0.005   0.000  -0.000  -5.609   0.000  -0.001 -10.035
 total augmentation occupancy for first ion, spin component:           1
  9.659  -3.648  -0.824   2.012  -0.043   0.354  -0.870   0.021
 -3.648   1.463   0.328  -0.840   0.033  -0.151   0.377  -0.012
 -0.824   0.328   5.712  -3.681  -0.167  -1.887   1.598   0.081
  2.012  -0.840  -3.681  11.263   0.307   1.598  -4.282  -0.137
 -0.043   0.033  -0.167   0.307   3.892   0.081  -0.137  -1.097
  0.354  -0.151  -1.887   1.598   0.081   0.649  -0.676  -0.034
 -0.870   0.377   1.598  -4.282  -0.137  -0.676   1.660   0.059
  0.021  -0.012   0.081  -0.137  -1.097  -0.034   0.059   0.314


------------------------ aborting loop because EDIFF is reached ----------------------------------------


    FORLOC:  cpu time      0.0299: real time      0.0299
    FORNL :  cpu time      0.0110: real time      0.0112
    FORCOR:  cpu time      0.5054: real time      0.5054
    OFIELD:  cpu time      0.0064: real time      0.0068

 VOLUME and BASIS-vectors are now :
 -----------------------------------------------------------------------------
  energy-cutoff  :     1000.00
  volume of cell :    10648.00
      direct lattice vectors                 reciprocal lattice vectors
    22.000000000  0.000000000  0.000000000     0.045454545  0.000000000  0.000000000
     0.000000000 22.000000000  0.000000000     0.000000000  0.045454545  0.000000000
     0.000000000  0.000000000 22.000000000     0.000000000  0.000000000  0.045454545

  length of vectors
    22.000000000 22.000000000 22.000000000     0.045454545  0.045454545  0.045454545


 FORCES acting on ions:
    Electron-Ion                     Ewald-Force                    Non-Local-Force
 -----------------------------------------------------------------------------------------------
   -.203E+01 -.123E+02 0.381E+02   0.314E+01 0.634E+01 -.273E+02   -.113E+01 0.646E+01 -.118E+02
   0.236E+02 0.373E+02 0.713E+02   -.257E+02 -.415E+02 -.771E+02   0.216E+01 0.413E+01 0.578E+01
   -.574E+02 -.546E+02 0.275E+02   0.630E+02 0.592E+02 -.291E+02   -.556E+01 -.464E+01 0.158E+01
   0.309E+02 -.823E+02 0.118E+03   -.477E+02 0.988E+02 -.121E+03   0.169E+02 -.166E+02 0.357E+01
   -.645E+01 0.106E+03 -.219E+03   0.733E+01 -.123E+03 0.255E+03   -.870E+00 0.167E+02 -.354E+02
 -----------------------------------------------------------------------------------------------
   -.115E+02 -.610E+01 0.362E+02   -.888E-15 0.000E+00 -.568E-13   0.115E+02 0.610E+01 -.362E+02


 POSITION                                       TOTAL-FORCE (eV/Angst)
 -----------------------------------------------------------------------------------
     10.84030     10.62328     11.45798         0.008235      0.206078     -0.359458
     10.47311     10.68276      9.49112        -0.000996     -0.045070     -0.047825
     11.52689     11.87916     10.06258         0.040849      0.013005     -0.020712
     10.74997     11.26105     10.27863        -0.060516      0.118526     -0.116692
     10.86924     10.12084     12.50888         0.012429     -0.292539      0.544687
 -----------------------------------------------------------------------------------
    total drift:                                0.000006      0.000030     -0.000310


--------------------------------------------------------------------------------------------------------



  FREE ENERGIE OF THE ION-ELECTRON SYSTEM (eV)
  ---------------------------------------------------
  free  energy   TOTEN  =       -31.52121901 eV

  energy  without entropy=      -31.52121901  energy(sigma->0) =      -31.52121901



--------------------------------------------------------------------------------------------------------


    POTLOK:  cpu time      0.5801: real time      0.5805


--------------------------------------------------------------------------------------------------------


 stress matrix after NEB project (eV)
      0.00000      0.00000      0.00000
      0.00000      0.00000      0.00000
      0.00000      0.00000      0.00000
  FORCES: max atom, RMS     0.618399    0.344115
  FORCE total and by dimension    0.769465    0.544687
  Stress total and by dimension    0.000000    0.000000
     LOOP+:  cpu time     31.1915: real time     31.4905
    4ORBIT:  cpu time      0.0000: real time      0.0000

 total amount of memory used by VASP MPI-rank0    91396. kBytes
=======================================================================

   base      :      30000. kBytes
   nonl-proj :       1622. kBytes
   fftplans  :      20101. kBytes
   grid      :      38814. kBytes
   one-center:          1. kBytes
   wavefun   :        858. kBytes

  
  
 General timing and accounting informations for this job:
 ========================================================
  
                  Total CPU time used (sec):       59.899
                            User time (sec):       56.663
                          System time (sec):        3.236
                         Elapsed time (sec):       66.684
  
                   Maximum memory used (kb):      279244.
                   Average memory used (kb):          N/A
  
                          Minor page faults:       165336
                          Major page faults:          344
                 Voluntary context switches:         6461
