 vasp.6.4.1 05Apr23 (build Jun  6 2023 14:46:38) gamma-only                      
 executed on        HPECrayEX_GCC date 2024.08.21  10:39:00
 running  256 mpi-ranks, with    1 threads/rank, on    2 nodes
 distrk:  each k-point on  128 cores,    2 groups
 distr:  one band on NCORE=  32 cores,    4 groups


--------------------------------------------------------------------------------------------------------


 INCAR:
   ALGO = Conjugate
   KPAR = 2
   NCORE = 32
   ISMEAR = 0
   SIGMA = 0.01
   PREC = Accurate
   EDIFF = 1E-7
   ENCUT = 1000
   ISIF = 0
   METAGGA = R2SCAN
   LASPH = .TRUE.
   SYMPREC = 1E-7
   LWAVE = .FALSE.
   LCHARG = .FALSE.
   LWAVE = .FALSE.
   LCHARG = .FALSE.

 POTCAR:    PAW_PBE C_h 06Feb2004                 
 POTCAR:    PAW_PBE H_h 06Feb2004                 
 POTCAR:    PAW_PBE N_h 06Feb2004                 
 POTCAR:    PAW_PBE C_h 06Feb2004                 
   VRHFIN =C: s2p2                                                                                  
   LEXCH  = PE                                                                                      
   EATOM  =   147.1560 eV,   10.8157 Ry                                                             
                                                                                                    
   TITEL  = PAW_PBE C_h 06Feb2004                                                                   
   LULTRA =        F    use ultrasoft PP ?                                                          
   IUNSCR =        1    unscreen: 0-lin 1-nonlin 2-no                                               
   RPACOR =    0.800    partial core radius                                                         
   POMASS =   12.011; ZVAL   =    4.000    mass and valenz                                          
   RCORE  =    1.100    outmost cutoff radius                                                       
   RWIGS  =    1.630; RWIGS  =    0.863    wigner-seitz radius (au A)                               
   ENMAX  =  700.000; ENMIN  =  500.000 eV                                                          
   ICORE  =        2    local potential                                                             
   LCOR   =        T    correct aug charges                                                         
   LPAW   =        T    paw PP                                                                      
   EAUG   =  946.768                                                                                
   DEXC   =    0.000                                                                                
   RMAX   =    1.128    core radius for proj-oper                                                   
   RAUG   =    1.300    factor for augmentation sphere                                              
   RDEP   =    1.162    radius for radial grids                                                     
   RDEPT  =    1.088    core radius for aug-charge                                                  
                                                                                                    
   Atomic configuration                                                                             
    4 entries                                                                                       
     n  l   j            E        occ.                                                              
     1  0  0.50      -273.3789   2.0000                                                             
     2  0  0.50       -13.7508   2.0000                                                             
     2  1  0.50        -5.2854   2.0000                                                             
     3  2  1.50        -5.4423   0.0000                                                             
   Description                                                                                      
     l       E           TYP  RCUT    TYP  RCUT                                                     
     0    -13.7508458     23  1.100                                                                 
     0     -8.2022199     23  1.100                                                                 
     1     -5.2854383     23  1.100                                                                 
     1      1.1560700     23  1.100                                                                 
     2     -5.4423304      7  1.100                                                                 
  local pseudopotential read in
  partial core-charges read in
  partial kinetic energy density read in
  atomic valenz-charges read in
  non local Contribution for L=           0  read in
    real space projection operators read in
  non local Contribution for L=           0  read in
    real space projection operators read in
  non local Contribution for L=           1  read in
    real space projection operators read in
  non local Contribution for L=           1  read in
    real space projection operators read in
    PAW grid and wavefunctions read in

   number of l-projection  operators is LMAX  =           4
   number of lm-projection operators is LMMAX =           8

 POTCAR:    PAW_PBE H_h 06Feb2004                 
   VRHFIN =H: ultrasoft test                                                                        
   LEXCH  = PE                                                                                      
   EATOM  =    12.4884 eV,    0.9179 Ry                                                             
                                                                                                    
   TITEL  = PAW_PBE H_h 06Feb2004                                                                   
   LULTRA =        F    use ultrasoft PP ?                                                          
   IUNSCR =        0    unscreen: 0-lin 1-nonlin 2-no                                               
   RPACOR =    0.000    partial core radius                                                         
   POMASS =    1.000; ZVAL   =    1.000    mass and valenz                                          
   RCORE  =    0.800    outmost cutoff radius                                                       
   RWIGS  =    0.700; RWIGS  =    0.370    wigner-seitz radius (au A)                               
   ENMAX  =  700.000; ENMIN  =  350.000 eV                                                          
   RCLOC  =    0.701    cutoff for local pot                                                        
   LCOR   =        T    correct aug charges                                                         
   LPAW   =        T    paw PP                                                                      
   EAUG   = 1000.000                                                                                
   RMAX   =    0.819    core radius for proj-oper                                                   
   RAUG   =    1.000    factor for augmentation sphere                                              
   RDEP   =    0.817    radius for radial grids                                                     
   RDEPT  =    0.817    core radius for aug-charge                                                  
                                                                                                    
   Atomic configuration                                                                             
    2 entries                                                                                       
     n  l   j            E        occ.                                                              
     1  0  0.50        -6.4927   1.0000                                                             
     2  1  0.50        -3.4015   0.0000                                                             
   Description                                                                                      
     l       E           TYP  RCUT    TYP  RCUT                                                     
     0     -6.4927493     23  0.800                                                                 
     0      6.8029130     23  0.800                                                                 
     1     -6.8029130     23  0.800                                                                 
  local pseudopotential read in
  atomic valenz-charges read in
  non local Contribution for L=           0  read in
    real space projection operators read in
  non local Contribution for L=           0  read in
    real space projection operators read in
  non local Contribution for L=           1  read in
    real space projection operators read in
    PAW grid and wavefunctions read in

   number of l-projection  operators is LMAX  =           3
   number of lm-projection operators is LMMAX =           5

 POTCAR:    PAW_PBE N_h 06Feb2004                 
   VRHFIN =N: s2p3                                                                                  
   LEXCH  = PE                                                                                      
   EATOM  =   264.5486 eV,   19.4438 Ry                                                             
                                                                                                    
   TITEL  = PAW_PBE N_h 06Feb2004                                                                   
   LULTRA =        F    use ultrasoft PP ?                                                          
   IUNSCR =        1    unscreen: 0-lin 1-nonlin 2-no                                               
   RPACOR =    0.800    partial core radius                                                         
   POMASS =   14.001; ZVAL   =    5.000    mass and valenz                                          
   RCORE  =    1.100    outmost cutoff radius                                                       
   RWIGS  =    1.480; RWIGS  =    0.783    wigner-seitz radius (au A)                               
   ENMAX  =  700.000; ENMIN  =  500.000 eV                                                          
   ICORE  =        2    local potential                                                             
   LCOR   =        T    correct aug charges                                                         
   LPAW   =        T    paw PP                                                                      
   EAUG   =  904.640                                                                                
   DEXC   =    0.000                                                                                
   RMAX   =    1.127    core radius for proj-oper                                                   
   RAUG   =    1.300    factor for augmentation sphere                                              
   RDEP   =    1.115    radius for radial grids                                                     
   RDEPT  =    1.106    core radius for aug-charge                                                  
                                                                                                    
   Atomic configuration                                                                             
    4 entries                                                                                       
     n  l   j            E        occ.                                                              
     1  0  0.50      -384.7179   2.0000                                                             
     2  0  0.50       -18.5828   2.0000                                                             
     2  1  0.50        -7.0898   3.0000                                                             
     3  2  1.50        -6.8029   0.0000                                                             
   Description                                                                                      
     l       E           TYP  RCUT    TYP  RCUT                                                     
     0    -18.5828117     23  1.100                                                                 
     0    -15.0750597     23  1.100                                                                 
     1     -7.0897851     23  1.100                                                                 
     1     -1.9663412     23  1.100                                                                 
     2     -6.8029130      7  1.100                                                                 
  local pseudopotential read in
  partial core-charges read in
  partial kinetic energy density read in
  kinetic energy density of atom read in
  atomic valenz-charges read in
  non local Contribution for L=           0  read in
    real space projection operators read in
  non local Contribution for L=           0  read in
    real space projection operators read in
  non local Contribution for L=           1  read in
    real space projection operators read in
  non local Contribution for L=           1  read in
    real space projection operators read in
    PAW grid and wavefunctions read in

   number of l-projection  operators is LMAX  =           4
   number of lm-projection operators is LMMAX =           8

  PAW_PBE C_h 06Feb2004                 :
 energy of atom  1       EATOM= -147.1560
 kinetic energy error for atom=    0.0031 (will be added to EATOM!!)
  PAW_PBE H_h 06Feb2004                 :
 energy of atom  2       EATOM=  -12.4884
 kinetic energy error for atom=    0.0006 (will be added to EATOM!!)
  PAW_PBE N_h 06Feb2004                 :
 energy of atom  3       EATOM= -264.5486
 kinetic energy error for atom=    0.0081 (will be added to EATOM!!)


 POSCAR:  C  H  N
  positions in cartesian coordinates
  No initial velocities read in

 METAGGA = R2SCAN                                      LMAXTAU =  6    LMIXTAU =  F

 exchange correlation table for  LEXCH =        8
   RHO(1)=    0.500       N(1)  =     2000
   RHO(2)=  100.500       N(2)  =     4000

 VTST: version 4.1, (05/19/21)

 CHAIN: initializing optimizer
 
 OPT: Using VASP Dynamics algorithm
 CHAIN: Read ICHAIN            0

 POSCAR:  C  H  N
  positions in cartesian coordinates
  No initial velocities read in



--------------------------------------------------------------------------------------------------------


 ion  position               nearest neighbor table
   1  0.493  0.483  0.521-   5 1.17   4 1.34
   2  0.476  0.486  0.431-   4 1.02
   3  0.524  0.540  0.457-   4 1.02
   4  0.489  0.512  0.467-   2 1.02   3 1.02   1 1.34
   5  0.494  0.460  0.569-   1 1.17

  LATTYP: Found a simple cubic cell.
 ALAT       =    22.0000000000
  
  Lattice vectors:
  
 A1 = (  22.0000000000,   0.0000000000,   0.0000000000)
 A2 = (   0.0000000000,  22.0000000000,   0.0000000000)
 A3 = (   0.0000000000,   0.0000000000,  22.0000000000)


Analysis of symmetry for initial positions (statically):
=====================================================================
 Subroutine PRICEL returns:
 Original cell was already a primitive cell.
 

 Routine SETGRP: Setting up the symmetry group for a 
 simple cubic supercell.


 Subroutine GETGRP returns: Found  1 space group operations
 (whereof  1 operations were pure point group operations)
 out of a pool of 48 trial point group operations.


The static configuration has the point symmetry C_1 .


Analysis of symmetry for dynamics (positions and initial velocities):
=====================================================================
 Subroutine PRICEL returns:
 Original cell was already a primitive cell.
 

 Routine SETGRP: Setting up the symmetry group for a 
 simple cubic supercell.


 Subroutine GETGRP returns: Found  1 space group operations
 (whereof  1 operations were pure point group operations)
 out of a pool of 48 trial point group operations.


The dynamic configuration has the point symmetry C_1 .


 Subroutine INISYM returns: Found  1 space group operations
 (whereof  1 operations are pure point group operations),
 and found     1 'primitive' translations


----------------------------------------------------------------------------------------

                                     Primitive cell                                     

  volume of cell :   10648.0000

  direct lattice vectors                    reciprocal lattice vectors
    22.000000000  0.000000000  0.000000000     0.045454545  0.000000000  0.000000000
     0.000000000 22.000000000  0.000000000     0.000000000  0.045454545  0.000000000
     0.000000000  0.000000000 22.000000000     0.000000000  0.000000000  0.045454545

  length of vectors
    22.000000000 22.000000000 22.000000000     0.045454545  0.045454545  0.045454545

  position of ions in fractional coordinates (direct lattice)
     0.492741136  0.482876364  0.520817273
     0.476050682  0.485580000  0.431414545
     0.523949318  0.539961818  0.457390000
     0.488634773  0.511865909  0.467210455
     0.494056591  0.460038182  0.568585455

  ion indices of the primitive-cell ions
   primitive index   ion index
                 1           1
                 2           2
                 3           3
                 4           4
                 5           5

----------------------------------------------------------------------------------------



 KPOINTS: auto                                    

Automatic generation of k-mesh.
 Grid dimensions read from file:
 generate k-points for:    1    1    1

 Generating k-lattice:

  Cartesian coordinates                     Fractional coordinates (reciprocal lattice)
     0.045454545  0.000000000  0.000000000     1.000000000  0.000000000  0.000000000
     0.000000000  0.045454545  0.000000000     0.000000000  1.000000000  0.000000000
     0.000000000  0.000000000  0.045454545     0.000000000  0.000000000  1.000000000

  Length of vectors
     0.045454545  0.045454545  0.045454545

  Shift w.r.t. Gamma in fractional coordinates (k-lattice)
     0.000000000  0.000000000  0.000000000

 
 Subroutine IBZKPT returns following result:
 ===========================================
 
 Found      1 irreducible k-points:
 
 Following reciprocal coordinates:
            Coordinates               Weight
  0.000000  0.000000  0.000000      1.000000
 
 Following cartesian coordinates:
            Coordinates               Weight
  0.000000  0.000000  0.000000      1.000000
 


--------------------------------------------------------------------------------------------------------




 Dimension of arrays:
   k-points           NKPTS =      1   k-points in BZ     NKDIM =      1   number of bands    NBANDS=     12
   number of dos      NEDOS =    301   number of ions     NIONS =      5
   non local maximal  LDIM  =      4   non local SUM 2l+1 LMDIM =      8
   total plane-waves  NPLWV = ******
   max r-space proj   IRMAX =      1   max aug-charges    IRDMAX=   9419
   dimension x,y,z NGX =   240 NGY =  240 NGZ =  240
   dimension x,y,z NGXF=   480 NGYF=  480 NGZF=  480
   support grid    NGXF=   480 NGYF=  480 NGZF=  480
   ions per type =               1   2   2
   NGX,Y,Z   is equivalent  to a cutoff of  18.14, 18.14, 18.14 a.u.
   NGXF,Y,Z  is equivalent  to a cutoff of  36.27, 36.27, 36.27 a.u.

 SYSTEM =  unknown system                          
 POSCAR =   C  H  N                                

 Startparameter for this run:
   NWRITE =      2    write-flag & timer
   PREC   = accura    normal or accurate (medium, high low for compatibility)
   ISTART =      0    job   : 0-new  1-cont  2-samecut
   ICHARG =      2    charge: 1-file 2-atom 10-const
   ISPIN  =      1    spin polarized calculation?
   LNONCOLLINEAR =      F non collinear calculations
   LSORBIT =      F    spin-orbit coupling
   INIWAV =      1    electr: 0-lowe 1-rand  2-diag
   LASPH  =      T    aspherical Exc in radial PAW
 Electronic Relaxation 1
   ENCUT  = 1000.0 eV  73.50 Ry    8.57 a.u.  56.73 56.73 56.73*2*pi/ulx,y,z
   ENINI  = 1000.0     initial cutoff
   ENAUG  = 1000.0 eV  augmentation charge cutoff
   NELM   =     60;   NELMIN=  2; NELMDL= -5     # of ELM steps 
   EDIFF  = 0.1E-06   stopping-criterion for ELM
   LREAL  =      F    real-space projection
   NLSPLINE    = F    spline interpolate recip. space projectors
   LCOMPAT=      F    compatible to vasp.4.4
   GGA_COMPAT  = T    GGA compatible to vasp.4.4-vasp.4.6
   LMAXPAW     = -100 max onsite density
   LMAXMIX     =    2 max onsite mixed and CHGCAR
   VOSKOWN=      0    Vosko Wilk Nusair interpolation
   ROPT   =    0.00000   0.00000   0.00000
 Ionic relaxation
   EDIFFG = 0.1E-05   stopping-criterion for IOM
   NSW    =      0    number of steps for IOM
   NBLOCK =      1;   KBLOCK =      1    inner block; outer block 
   IBRION =     -1    ionic relax: 0-MD 1-quasi-New 2-CG
   NFREE  =      0    steps in history (QN), initial steepest desc. (CG)
   ISIF   =      0    stress and relaxation
   IWAVPR =     10    prediction:  0-non 1-charg 2-wave 3-comb
   ISYM   =      2    0-nonsym 1-usesym 2-fastsym
   LCORR  =      T    Harris-Foulkes like correction to forces

   POTIM  = 0.5000    time-step for ionic-motion
   TEIN   =    0.0    initial temperature
   TEBEG  =    0.0;   TEEND  =   0.0 temperature during run
   SMASS  =  -3.00    Nose mass-parameter (am)
   estimated Nose-frequenzy (Omega)   =  0.10E-29 period in steps = 0.13E+47 mass=  -0.111E-25a.u.
   SCALEE = 1.0000    scale energy and forces
   NPACO  =    256;   APACO  = 10.0  distance and # of slots for P.C.
   PSTRESS=    0.0 pullay stress

  Mass of Ions in am
   POMASS =  12.01  1.00 14.00
  Ionic Valenz
   ZVAL   =   4.00  1.00  5.00
  Atomic Wigner-Seitz radii
   RWIGS  =  -1.00 -1.00 -1.00
  virtual crystal weights 
   VCA    =   1.00  1.00  1.00
   NELECT =      16.0000    total number of electrons
   NUPDOWN=      -1.0000    fix difference up-down

 DOS related values:
   EMIN   =  10.00;   EMAX   =-10.00  energy-range for DOS
   EFERMI =   0.00;   METHOD = LEGACY      
   ISMEAR =     0;   SIGMA  =   0.01  broadening in eV -4-tet -1-fermi 0-gaus

 Electronic relaxation 2 (details)
   IALGO  =     58    algorithm
   LDIAG  =      T    sub-space diagonalisation (order eigenvalues)
   LSUBROT=      F    optimize rotation matrix (better conditioning)
   TURBO    =      0    0=normal 1=particle mesh
   IRESTART =      0    0=no restart 2=restart with 2 vectors
   NREBOOT  =      0    no. of reboots
   NMIN     =      0    reboot dimension
   EREF     =   0.00    reference energy to select bands
   IMIX   =      4    mixing-type and parameters
     AMIX     =   0.40;   BMIX     =  1.00
     AMIX_MAG =   1.60;   BMIX_MAG =  1.00
     AMIN     =   0.10
     WC   =   100.;   INIMIX=   1;  MIXPRE=   1;  MAXMIX= -45

 Intra band minimization:
   WEIMIN = 0.0000     energy-eigenvalue tresh-hold
   EBREAK =  0.21E-08  absolut break condition
   DEPER  =   0.30     relativ break condition  

   TIME   =   0.40     timestep for ELM

  volume/ion in A,a.u.               =    2129.60     14371.25
  Fermi-wavevector in a.u.,A,eV,Ry     =   0.187510  0.354343  0.478383  0.035160
  Thomas-Fermi vector in A             =   0.923351

 Write flags
   LWAVE        =      F    write WAVECAR
   LDOWNSAMPLE  =      F    k-point downsampling of WAVECAR
   LCHARG       =      F    write CHGCAR
   LVTOT        =      F    write LOCPOT, total local potential
   LVHAR        =      F    write LOCPOT, Hartree potential only
   LELF         =      F    write electronic localiz. function (ELF)
   LORBIT       =      0    0 simple, 1 ext, 2 COOP (PROOUT), +10 PAW based schemes


 Dipole corrections
   LMONO  =      F    monopole corrections only (constant potential shift)
   LDIPOL =      F    correct potential (dipole corrections)
   IDIPOL =      0    1-x, 2-y, 3-z, 4-all directions 
   EPSILON=  1.0000000 bulk dielectric constant

 Exchange correlation treatment:
   GGA     =    --    GGA type
   LEXCH   =     8    internal setting for exchange type
   LIBXC   =     F    Libxc                    
   VOSKOWN =     0    Vosko Wilk Nusair interpolation
   LHFCALC =     F    Hartree Fock is set to
   LHFONE  =     F    Hartree Fock one center treatment
   AEXX    =    0.0000 exact exchange contribution

 Linear response parameters
   LEPSILON=     F    determine dielectric tensor
   LRPA    =     F    only Hartree local field effects (RPA)
   LNABLA  =     F    use nabla operator in PAW spheres
   LVEL    =     F    velocity operator in full k-point grid
   CSHIFT  =0.1000    complex shift for real part using Kramers Kronig
   OMEGAMAX=  -1.0    maximum frequency
   DEG_THRESHOLD= 0.2000000E-02 threshold for treating states as degnerate
   RTIME   =   -0.100 relaxation time in fs
  (WPLASMAI=    0.000 imaginary part of plasma frequency in eV, 0.658/RTIME)
   DFIELD  = 0.0000000 0.0000000 0.0000000 field for delta impulse in time

  Optional k-point grid parameters
   LKPOINTS_OPT  =     F    use optional k-point grid
   KPOINTS_OPT_MODE=     1    mode for optional k-point grid

 Orbital magnetization related:
   ORBITALMAG=     F  switch on orbital magnetization
   LCHIMAG   =     F  perturbation theory with respect to B field
   DQ        =  0.001000  dq finite difference perturbation B field
   LLRAUG    =     F  two centre corrections for induced B field
   LBONE     =     F  B-component reconstruction in AE one-centre
   LVGVCALC  =     T  calculate vGv susceptibility
   LVGVAPPL  =     F  apply vGv susceptibility instead of pGv for G=0

 Random number generation:
   RANDOM_GENERATOR = DEFAULT
   PCG_SEED         = not used


--------------------------------------------------------------------------------------------------------


 Static calculation
 charge density and potential will be updated during run
 non-spin polarized calculation
 Conjugate gradient for all bands (Freysoldt, et al. PRB 79, 241103 (2009))
 preconditioned conjugated gradient                                        
 perform sub-space diagonalisation
    before iterative eigenvector-optimisation
 modified Broyden-mixing scheme, WC =      100.0
 initial mixing is a Kerker type mixing with AMIX =  0.4000 and BMIX =      1.0000
 Hartree-type preconditioning will be used
 using additional bands            4
 reciprocal scheme for non local part
 use partial core corrections
 no Harris-corrections to forces 
 use gradient corrections 
 use of overlap-Matrix (Vanderbilt PP)
 Gauss-broadening in eV      SIGMA  =   0.01


--------------------------------------------------------------------------------------------------------


  energy-cutoff  :     1000.00
  volume of cell :    10648.00
      direct lattice vectors                 reciprocal lattice vectors
    22.000000000  0.000000000  0.000000000     0.045454545  0.000000000  0.000000000
     0.000000000 22.000000000  0.000000000     0.000000000  0.045454545  0.000000000
     0.000000000  0.000000000 22.000000000     0.000000000  0.000000000  0.045454545

  length of vectors
    22.000000000 22.000000000 22.000000000     0.045454545  0.045454545  0.045454545



 k-points in units of 2pi/SCALE and weight: auto                                    
   0.00000000  0.00000000  0.00000000       1.000

 k-points in reciprocal lattice and weights: auto                                    
   0.00000000  0.00000000  0.00000000       1.000

 position of ions in fractional coordinates (direct lattice) 
   0.49274114  0.48287636  0.52081727
   0.47605068  0.48558000  0.43141455
   0.52394932  0.53996182  0.45739000
   0.48863477  0.51186591  0.46721045
   0.49405659  0.46003818  0.56858545

 position of ions in cartesian coordinates  (Angst):
  10.84030500 10.62328000 11.45798000
  10.47311500 10.68276000  9.49112000
  11.52688500 11.87916000 10.06258000
  10.74996500 11.26105000 10.27863000
  10.86924500 10.12084000 12.50888000



--------------------------------------------------------------------------------------------------------


 use parallel FFT for orbitals z direction half grid
 k-point   1 :   0.0000 0.0000 0.0000  plane waves:  381993

 maximum and minimum number of plane-waves per node :     11948    11928

 maximum number of plane-waves:    381993
 maximum index in each direction: 
   IXMAX=   56   IYMAX=   56   IZMAX=   56
   IXMIN=  -56   IYMIN=  -56   IZMIN=    0


 parallel 3D FFT for wavefunctions:
    minimum data exchange during FFTs selected (reduces bandwidth)
 parallel 3D FFT for charge:
    minimum data exchange during FFTs selected (reduces bandwidth)


 total amount of memory used by VASP MPI-rank0   174824. kBytes
=======================================================================

   base      :      30000. kBytes
   nonl-proj :       3245. kBytes
   fftplans  :      40084. kBytes
   grid      :      99778. kBytes
   one-center:          1. kBytes
   wavefun   :       1716. kBytes

     INWAV:  cpu time      0.0000: real time      0.0000
 Broyden mixing: mesh for mixing (old mesh)
   NGX =113   NGY =113   NGZ =113
  (NGX  =480   NGY  =480   NGZ  =480)
  gives a total of ****** points

 initial charge density was supplied:
 charge density of overlapping atoms calculated
 number of electron      16.0000000 magnetization 
 keeping initial charge density in first step


--------------------------------------------------------------------------------------------------------


 Maximum index for augmentation-charges          216 (set IRDMAX)


--------------------------------------------------------------------------------------------------------


 First call to EWALD:  gamma=   0.081
 Maximum number of real-space cells 3x 3x 3
 Maximum number of reciprocal cells 3x 3x 3

    FEWALD:  cpu time      0.0024: real time      0.0024


--------------------------------------- Ionic step        1  -------------------------------------------




--------------------------------------- Iteration      1(   1)  ---------------------------------------


    POTLOK:  cpu time      3.2156: real time      3.2170
    SETDIJ:  cpu time      0.2745: real time      0.2748
    TRIAL :  cpu time      3.4296: real time      3.4331
    CORREC:  cpu time      0.0011: real time      0.0013
    --------------------------------------------
      LOOP:  cpu time      6.9345: real time      6.9400

 eigenvalue-minimisations  :    40
 total energy-change (2. order) : 0.1311839E+03  (-0.3360638E+03)
 number of electron      16.0000000 magnetization 
 augmentation part       16.0000000 magnetization 

 Free energy of the ion-electron system (eV)
  ---------------------------------------------------
  alpha Z        PSCENC =         0.07253111
  Ewald energy   TEWEN  =       622.82150315
  -Hartree energ DENC   =     -1130.17152709
  -exchange      EXHF   =         0.00000000
  -V(xc)+E(xc)   XCENC  =        57.35388091
  PAW double counting   =       517.89940485     -516.98541294
  entropy T*S    EENTRO =        -0.00000000
  eigenvalues    EBANDS =      -121.01592070
  atomic energy  EATOM  =       701.20945335
  ---------------------------------------------------
  free energy    TOTEN  =       131.18391264 eV

  energy without entropy =      131.18391264  energy(sigma->0) =      131.18391264


--------------------------------------------------------------------------------------------------------




--------------------------------------- Iteration      1(   2)  ---------------------------------------


    TRIAL :  cpu time      2.9863: real time      2.9878
    CORREC:  cpu time      0.0001: real time      0.0001
    --------------------------------------------
      LOOP:  cpu time      3.0135: real time      3.0151

 eigenvalue-minimisations  :    32
 total energy-change (2. order) :-0.7303593E+02  (-0.6815073E+02)
 number of electron      16.0000000 magnetization 
 augmentation part       16.0000000 magnetization 

 Free energy of the ion-electron system (eV)
  ---------------------------------------------------
  alpha Z        PSCENC =         0.07253111
  Ewald energy   TEWEN  =       622.82150315
  -Hartree energ DENC   =     -1130.17152709
  -exchange      EXHF   =         0.00000000
  -V(xc)+E(xc)   XCENC  =        57.35388091
  PAW double counting   =       517.89940485     -516.98541294
  entropy T*S    EENTRO =        -0.00000000
  eigenvalues    EBANDS =      -194.05184963
  atomic energy  EATOM  =       701.20945335
  ---------------------------------------------------
  free energy    TOTEN  =        58.14798371 eV

  energy without entropy =       58.14798371  energy(sigma->0) =       58.14798371


--------------------------------------------------------------------------------------------------------




--------------------------------------- Iteration      1(   3)  ---------------------------------------


    TRIAL :  cpu time      3.8482: real time      3.8497
    CORREC:  cpu time      0.0001: real time      0.0001
    --------------------------------------------
      LOOP:  cpu time      3.8613: real time      3.8771

 eigenvalue-minimisations  :    48
 total energy-change (2. order) :-0.8627807E+02  (-0.8204948E+02)
 number of electron      16.0000000 magnetization 
 augmentation part       16.0000000 magnetization 

 Free energy of the ion-electron system (eV)
  ---------------------------------------------------
  alpha Z        PSCENC =         0.07253111
  Ewald energy   TEWEN  =       622.82150315
  -Hartree energ DENC   =     -1130.17152709
  -exchange      EXHF   =         0.00000000
  -V(xc)+E(xc)   XCENC  =        57.35388091
  PAW double counting   =       517.89940485     -516.98541294
  entropy T*S    EENTRO =        -0.00000000
  eigenvalues    EBANDS =      -280.32991713
  atomic energy  EATOM  =       701.20945335
  ---------------------------------------------------
  free energy    TOTEN  =       -28.13008379 eV

  energy without entropy =      -28.13008379  energy(sigma->0) =      -28.13008379


--------------------------------------------------------------------------------------------------------




--------------------------------------- Iteration      1(   4)  ---------------------------------------


    TRIAL :  cpu time      2.5331: real time      2.5345
    CORREC:  cpu time      0.0001: real time      0.0001
    --------------------------------------------
      LOOP:  cpu time      2.5607: real time      2.5623

 eigenvalue-minimisations  :    24
 total energy-change (2. order) :-0.1364790E+02  (-0.1356140E+02)
 number of electron      16.0000000 magnetization 
 augmentation part       16.0000000 magnetization 

 Free energy of the ion-electron system (eV)
  ---------------------------------------------------
  alpha Z        PSCENC =         0.07253111
  Ewald energy   TEWEN  =       622.82150315
  -Hartree energ DENC   =     -1130.17152709
  -exchange      EXHF   =         0.00000000
  -V(xc)+E(xc)   XCENC  =        57.35388091
  PAW double counting   =       517.89940485     -516.98541294
  entropy T*S    EENTRO =        -0.00000000
  eigenvalues    EBANDS =      -293.97782024
  atomic energy  EATOM  =       701.20945335
  ---------------------------------------------------
  free energy    TOTEN  =       -41.77798690 eV

  energy without entropy =      -41.77798690  energy(sigma->0) =      -41.77798690


--------------------------------------------------------------------------------------------------------




--------------------------------------- Iteration      1(   5)  ---------------------------------------


    TRIAL :  cpu time      2.9856: real time      2.9872
    CORREC:  cpu time      0.0001: real time      0.0001
    CHARGE:  cpu time      0.6850: real time      0.6857
    --------------------------------------------
      LOOP:  cpu time      3.6854: real time      3.7006

 eigenvalue-minimisations  :    32
 total energy-change (2. order) :-0.8448278E+00  (-0.8415437E+00)
 number of electron      16.0000000 magnetization 
 augmentation part       -0.0578186 magnetization 

 Free energy of the ion-electron system (eV)
  ---------------------------------------------------
  alpha Z        PSCENC =         0.07253111
  Ewald energy   TEWEN  =       622.82150315
  -Hartree energ DENC   =     -1130.17152709
  -exchange      EXHF   =         0.00000000
  -V(xc)+E(xc)   XCENC  =        57.35388091
  PAW double counting   =       517.89940485     -516.98541294
  entropy T*S    EENTRO =        -0.00000000
  eigenvalues    EBANDS =      -294.82264805
  atomic energy  EATOM  =       701.20945335
  ---------------------------------------------------
  free energy    TOTEN  =       -42.62281471 eV

  energy without entropy =      -42.62281471  energy(sigma->0) =      -42.62281471


--------------------------------------------------------------------------------------------------------




--------------------------------------- Iteration      1(   6)  ---------------------------------------


    POTLOK:  cpu time      3.2022: real time      3.2035
    SETDIJ:  cpu time      0.2721: real time      0.2721
    TRIAL :  cpu time      2.5040: real time      2.5066
    CORREC:  cpu time      4.7827: real time      4.7850
    CHARGE:  cpu time      0.6390: real time      0.6395
    --------------------------------------------
      LOOP:  cpu time     11.4196: real time     11.4386

 eigenvalue-minimisations  :     0
 total energy-change (2. order) : 0.1179792E+02  (-0.2952552E+01)
 number of electron      16.0000000 magnetization 
 augmentation part       -0.0685891 magnetization 

 Free energy of the ion-electron system (eV)
  ---------------------------------------------------
  alpha Z        PSCENC =         0.07253111
  Ewald energy   TEWEN  =       622.82150315
  -Hartree energ DENC   =     -1249.65053616
  -exchange      EXHF   =         0.00000000
  -V(xc)+E(xc)   XCENC  =        65.88025430
  PAW double counting   =      6062.27410180    -6062.22357825
  entropy T*S    EENTRO =        -0.00000000
  eigenvalues    EBANDS =      -171.20861951
  atomic energy  EATOM  =       701.20945335
  ---------------------------------------------------
  free energy    TOTEN  =       -30.82489023 eV

  energy without entropy =      -30.82489023  energy(sigma->0) =      -30.82489023


--------------------------------------------------------------------------------------------------------




--------------------------------------- Iteration      1(   7)  ---------------------------------------


    POTLOK:  cpu time      3.1993: real time      3.2006
    SETDIJ:  cpu time      0.2691: real time      0.2694
    TRIAL :  cpu time      2.4921: real time      2.4934
    CORREC:  cpu time      4.7879: real time      4.7912
    CHARGE:  cpu time      0.6419: real time      0.6425
    --------------------------------------------
      LOOP:  cpu time     11.4481: real time     11.4549

 eigenvalue-minimisations  :     0
 total energy-change (2. order) :-0.2976398E+01  (-0.3736390E+00)
 number of electron      16.0000000 magnetization 
 augmentation part       -0.0811278 magnetization 

 Free energy of the ion-electron system (eV)
  ---------------------------------------------------
  alpha Z        PSCENC =         0.07253111
  Ewald energy   TEWEN  =       622.82150315
  -Hartree energ DENC   =     -1194.84222520
  -exchange      EXHF   =         0.00000000
  -V(xc)+E(xc)   XCENC  =        62.21043187
  PAW double counting   =      8127.69395824    -8127.09906471
  entropy T*S    EENTRO =        -0.00000000
  eigenvalues    EBANDS =      -225.86787650
  atomic energy  EATOM  =       701.20945335
  ---------------------------------------------------
  free energy    TOTEN  =       -33.80128870 eV

  energy without entropy =      -33.80128870  energy(sigma->0) =      -33.80128870


--------------------------------------------------------------------------------------------------------




--------------------------------------- Iteration      1(   8)  ---------------------------------------


    POTLOK:  cpu time      3.1999: real time      3.2015
    SETDIJ:  cpu time      0.2774: real time      0.2774
    TRIAL :  cpu time      2.4971: real time      2.4986
    CORREC:  cpu time      4.7783: real time      4.7799
    CHARGE:  cpu time      0.6403: real time      0.6409
    --------------------------------------------
      LOOP:  cpu time     11.4237: real time     11.4292

 eigenvalue-minimisations  :     0
 total energy-change (2. order) :-0.3741193E+00  (-0.1586843E+00)
 number of electron      16.0000000 magnetization 
 augmentation part       -0.0821794 magnetization 

 Free energy of the ion-electron system (eV)
  ---------------------------------------------------
  alpha Z        PSCENC =         0.07253111
  Ewald energy   TEWEN  =       622.82150315
  -Hartree energ DENC   =     -1195.84182322
  -exchange      EXHF   =         0.00000000
  -V(xc)+E(xc)   XCENC  =        62.16483044
  PAW double counting   =      9116.91154096    -9116.23847939
  entropy T*S    EENTRO =        -0.00000000
  eigenvalues    EBANDS =      -225.27496441
  atomic energy  EATOM  =       701.20945335
  ---------------------------------------------------
  free energy    TOTEN  =       -34.17540802 eV

  energy without entropy =      -34.17540802  energy(sigma->0) =      -34.17540802


--------------------------------------------------------------------------------------------------------




--------------------------------------- Iteration      1(   9)  ---------------------------------------


    POTLOK:  cpu time      3.2097: real time      3.2114
    SETDIJ:  cpu time      0.2644: real time      0.2647
    TRIAL :  cpu time      2.4944: real time      2.4958
    CORREC:  cpu time      4.7785: real time      4.7810
    CHARGE:  cpu time      0.6405: real time      0.6405
    --------------------------------------------
      LOOP:  cpu time     11.4047: real time     11.4236

 eigenvalue-minimisations  :     0
 total energy-change (2. order) :-0.1574819E+00  (-0.6179426E-01)
 number of electron      16.0000000 magnetization 
 augmentation part       -0.0799063 magnetization 

 Free energy of the ion-electron system (eV)
  ---------------------------------------------------
  alpha Z        PSCENC =         0.07253111
  Ewald energy   TEWEN  =       622.82150315
  -Hartree energ DENC   =     -1196.24607103
  -exchange      EXHF   =         0.00000000
  -V(xc)+E(xc)   XCENC  =        62.16608092
  PAW double counting   =      9807.96309052    -9807.25127154
  entropy T*S    EENTRO =        -0.00000000
  eigenvalues    EBANDS =      -225.06820642
  atomic energy  EATOM  =       701.20945335
  ---------------------------------------------------
  free energy    TOTEN  =       -34.33288994 eV

  energy without entropy =      -34.33288994  energy(sigma->0) =      -34.33288994


--------------------------------------------------------------------------------------------------------




--------------------------------------- Iteration      1(  10)  ---------------------------------------


    POTLOK:  cpu time      3.2027: real time      3.2051
    SETDIJ:  cpu time      0.2758: real time      0.2758
    TRIAL :  cpu time      2.4922: real time      2.4937
    CORREC:  cpu time      4.7808: real time      4.7830
    CHARGE:  cpu time      0.6378: real time      0.6385
    --------------------------------------------
      LOOP:  cpu time     11.4202: real time     11.4272

 eigenvalue-minimisations  :     0
 total energy-change (2. order) :-0.6160177E-01  (-0.2119265E-01)
 number of electron      16.0000000 magnetization 
 augmentation part       -0.0781930 magnetization 

 Free energy of the ion-electron system (eV)
  ---------------------------------------------------
  alpha Z        PSCENC =         0.07253111
  Ewald energy   TEWEN  =       622.82150315
  -Hartree energ DENC   =     -1195.22072121
  -exchange      EXHF   =         0.00000000
  -V(xc)+E(xc)   XCENC  =        62.12856328
  PAW double counting   =      9928.16933747    -9927.45326897
  entropy T*S    EENTRO =        -0.00000000
  eigenvalues    EBANDS =      -226.12188989
  atomic energy  EATOM  =       701.20945335
  ---------------------------------------------------
  free energy    TOTEN  =       -34.39449171 eV

  energy without entropy =      -34.39449171  energy(sigma->0) =      -34.39449171


--------------------------------------------------------------------------------------------------------




--------------------------------------- Iteration      1(  11)  ---------------------------------------


    POTLOK:  cpu time      3.2043: real time      3.2059
    SETDIJ:  cpu time      0.2752: real time      0.2752
    TRIAL :  cpu time      2.4917: real time      2.4934
    CORREC:  cpu time      4.7884: real time      4.7912
    CHARGE:  cpu time      0.6392: real time      0.6392
    --------------------------------------------
      LOOP:  cpu time     11.4178: real time     11.4373

 eigenvalue-minimisations  :     0
 total energy-change (2. order) :-0.2114308E-01  (-0.6657665E-02)
 number of electron      16.0000000 magnetization 
 augmentation part       -0.0770352 magnetization 

 Free energy of the ion-electron system (eV)
  ---------------------------------------------------
  alpha Z        PSCENC =         0.07253111
  Ewald energy   TEWEN  =       622.82150315
  -Hartree energ DENC   =     -1194.83026603
  -exchange      EXHF   =         0.00000000
  -V(xc)+E(xc)   XCENC  =        62.12192606
  PAW double counting   =      9763.97675186    -9763.27207982
  entropy T*S    EENTRO =        -0.00000000
  eigenvalues    EBANDS =      -226.51545447
  atomic energy  EATOM  =       701.20945335
  ---------------------------------------------------
  free energy    TOTEN  =       -34.41563480 eV

  energy without entropy =      -34.41563480  energy(sigma->0) =      -34.41563480


--------------------------------------------------------------------------------------------------------




--------------------------------------- Iteration      1(  12)  ---------------------------------------


    POTLOK:  cpu time      3.2068: real time      3.2090
    SETDIJ:  cpu time      0.2983: real time      0.2983
    TRIAL :  cpu time      2.4935: real time      2.4946
    CORREC:  cpu time      4.7747: real time      4.7774
    CHARGE:  cpu time      0.6436: real time      0.6442
    --------------------------------------------
      LOOP:  cpu time     11.4362: real time     11.4552

 eigenvalue-minimisations  :     0
 total energy-change (2. order) :-0.6645752E-02  (-0.2015373E-02)
 number of electron      16.0000000 magnetization 
 augmentation part       -0.0766927 magnetization 

 Free energy of the ion-electron system (eV)
  ---------------------------------------------------
  alpha Z        PSCENC =         0.07253111
  Ewald energy   TEWEN  =       622.82150315
  -Hartree energ DENC   =     -1194.62716655
  -exchange      EXHF   =         0.00000000
  -V(xc)+E(xc)   XCENC  =        62.11101916
  PAW double counting   =      9615.00282638    -9614.30468429
  entropy T*S    EENTRO =        -0.00000000
  eigenvalues    EBANDS =      -226.70776286
  atomic energy  EATOM  =       701.20945335
  ---------------------------------------------------
  free energy    TOTEN  =       -34.42228055 eV

  energy without entropy =      -34.42228055  energy(sigma->0) =      -34.42228055


--------------------------------------------------------------------------------------------------------




--------------------------------------- Iteration      1(  13)  ---------------------------------------


    POTLOK:  cpu time      3.2011: real time      3.2028
    SETDIJ:  cpu time      0.2802: real time      0.2803
    TRIAL :  cpu time      2.4924: real time      2.4938
    CORREC:  cpu time      4.7830: real time      4.7856
    CHARGE:  cpu time      0.6406: real time      0.6407
    --------------------------------------------
      LOOP:  cpu time     11.4100: real time     11.4335

 eigenvalue-minimisations  :     0
 total energy-change (2. order) :-0.2015336E-02  (-0.6242208E-03)
 number of electron      16.0000000 magnetization 
 augmentation part       -0.0767471 magnetization 

 Free energy of the ion-electron system (eV)
  ---------------------------------------------------
  alpha Z        PSCENC =         0.07253111
  Ewald energy   TEWEN  =       622.82150315
  -Hartree energ DENC   =     -1194.53585381
  -exchange      EXHF   =         0.00000000
  -V(xc)+E(xc)   XCENC  =        62.10491905
  PAW double counting   =      9543.65492342    -9542.95829453
  entropy T*S    EENTRO =        -0.00000000
  eigenvalues    EBANDS =      -226.79347761
  atomic energy  EATOM  =       701.20945335
  ---------------------------------------------------
  free energy    TOTEN  =       -34.42429588 eV

  energy without entropy =      -34.42429588  energy(sigma->0) =      -34.42429588


--------------------------------------------------------------------------------------------------------




--------------------------------------- Iteration      1(  14)  ---------------------------------------


    POTLOK:  cpu time      3.2092: real time      3.2104
    SETDIJ:  cpu time      0.2718: real time      0.2720
    TRIAL :  cpu time      2.4965: real time      2.4975
    CORREC:  cpu time      4.7834: real time      4.7862
    CHARGE:  cpu time      0.6385: real time      0.6393
    --------------------------------------------
      LOOP:  cpu time     11.4166: real time     11.4365

 eigenvalue-minimisations  :     0
 total energy-change (2. order) :-0.6239980E-03  (-0.1977204E-03)
 number of electron      16.0000000 magnetization 
 augmentation part       -0.0768371 magnetization 

 Free energy of the ion-electron system (eV)
  ---------------------------------------------------
  alpha Z        PSCENC =         0.07253111
  Ewald energy   TEWEN  =       622.82150315
  -Hartree energ DENC   =     -1194.52153041
  -exchange      EXHF   =         0.00000000
  -V(xc)+E(xc)   XCENC  =        62.10453535
  PAW double counting   =      9518.24500989    -9517.54831530
  entropy T*S    EENTRO =        -0.00000000
  eigenvalues    EBANDS =      -226.80810701
  atomic energy  EATOM  =       701.20945335
  ---------------------------------------------------
  free energy    TOTEN  =       -34.42491988 eV

  energy without entropy =      -34.42491988  energy(sigma->0) =      -34.42491988


--------------------------------------------------------------------------------------------------------




--------------------------------------- Iteration      1(  15)  ---------------------------------------


    POTLOK:  cpu time      3.2069: real time      3.2086
    SETDIJ:  cpu time      0.2757: real time      0.2757
    TRIAL :  cpu time      2.4976: real time      2.4993
    CORREC:  cpu time      4.7851: real time      4.7869
    CHARGE:  cpu time      0.6399: real time      0.6402
    --------------------------------------------
      LOOP:  cpu time     11.4365: real time     11.4420

 eigenvalue-minimisations  :     0
 total energy-change (2. order) :-0.1973628E-03  (-0.6771776E-04)
 number of electron      16.0000000 magnetization 
 augmentation part       -0.0768866 magnetization 

 Free energy of the ion-electron system (eV)
  ---------------------------------------------------
  alpha Z        PSCENC =         0.07253111
  Ewald energy   TEWEN  =       622.82150315
  -Hartree energ DENC   =     -1194.53589969
  -exchange      EXHF   =         0.00000000
  -V(xc)+E(xc)   XCENC  =        62.10530197
  PAW double counting   =      9510.02767288    -9509.33067863
  entropy T*S    EENTRO =        -0.00000000
  eigenvalues    EBANDS =      -226.79500138
  atomic energy  EATOM  =       701.20945335
  ---------------------------------------------------
  free energy    TOTEN  =       -34.42511725 eV

  energy without entropy =      -34.42511725  energy(sigma->0) =      -34.42511725


--------------------------------------------------------------------------------------------------------




--------------------------------------- Iteration      1(  16)  ---------------------------------------


    POTLOK:  cpu time      3.2068: real time      3.2081
    SETDIJ:  cpu time      0.2687: real time      0.2690
    TRIAL :  cpu time      2.4949: real time      2.4961
    CORREC:  cpu time      4.7793: real time      4.7820
    CHARGE:  cpu time      0.6416: real time      0.6416
    --------------------------------------------
      LOOP:  cpu time     11.4140: real time     11.4281

 eigenvalue-minimisations  :     0
 total energy-change (2. order) :-0.6755991E-04  (-0.2715661E-04)
 number of electron      16.0000000 magnetization 
 augmentation part       -0.0769080 magnetization 

 Free energy of the ion-electron system (eV)
  ---------------------------------------------------
  alpha Z        PSCENC =         0.07253111
  Ewald energy   TEWEN  =       622.82150315
  -Hartree energ DENC   =     -1194.53143915
  -exchange      EXHF   =         0.00000000
  -V(xc)+E(xc)   XCENC  =        62.10461858
  PAW double counting   =      9506.30506301    -9505.60775030
  entropy T*S    EENTRO =        -0.00000000
  eigenvalues    EBANDS =      -226.79916455
  atomic energy  EATOM  =       701.20945335
  ---------------------------------------------------
  free energy    TOTEN  =       -34.42518481 eV

  energy without entropy =      -34.42518481  energy(sigma->0) =      -34.42518481


--------------------------------------------------------------------------------------------------------




--------------------------------------- Iteration      1(  17)  ---------------------------------------


    POTLOK:  cpu time      3.2026: real time      3.2039
    SETDIJ:  cpu time      0.2758: real time      0.2758
    TRIAL :  cpu time      2.4920: real time      2.4936
    CORREC:  cpu time      4.7772: real time      4.7789
    CHARGE:  cpu time      0.6400: real time      0.6407
    --------------------------------------------
      LOOP:  cpu time     11.4018: real time     11.4246

 eigenvalue-minimisations  :     0
 total energy-change (2. order) :-0.2703269E-04  (-0.1213909E-04)
 number of electron      16.0000000 magnetization 
 augmentation part       -0.0769125 magnetization 

 Free energy of the ion-electron system (eV)
  ---------------------------------------------------
  alpha Z        PSCENC =         0.07253111
  Ewald energy   TEWEN  =       622.82150315
  -Hartree energ DENC   =     -1194.53924077
  -exchange      EXHF   =         0.00000000
  -V(xc)+E(xc)   XCENC  =        62.10492921
  PAW double counting   =      9503.91290133    -9503.21556680
  entropy T*S    EENTRO =        -0.00000000
  eigenvalues    EBANDS =      -226.79172241
  atomic energy  EATOM  =       701.20945335
  ---------------------------------------------------
  free energy    TOTEN  =       -34.42521184 eV

  energy without entropy =      -34.42521184  energy(sigma->0) =      -34.42521184


--------------------------------------------------------------------------------------------------------




--------------------------------------- Iteration      1(  18)  ---------------------------------------


    POTLOK:  cpu time      3.2055: real time      3.2070
    SETDIJ:  cpu time      0.2731: real time      0.2731
    TRIAL :  cpu time      2.4951: real time      2.4964
    CORREC:  cpu time      4.7782: real time      4.7804
    CHARGE:  cpu time      0.6374: real time      0.6375
    --------------------------------------------
      LOOP:  cpu time     11.4207: real time     11.4258

 eigenvalue-minimisations  :     0
 total energy-change (2. order) :-0.1207761E-04  (-0.5215073E-05)
 number of electron      16.0000000 magnetization 
 augmentation part       -0.0769106 magnetization 

 Free energy of the ion-electron system (eV)
  ---------------------------------------------------
  alpha Z        PSCENC =         0.07253111
  Ewald energy   TEWEN  =       622.82150315
  -Hartree energ DENC   =     -1194.54847004
  -exchange      EXHF   =         0.00000000
  -V(xc)+E(xc)   XCENC  =        62.10539548
  PAW double counting   =      9504.17714818    -9503.47987427
  entropy T*S    EENTRO =        -0.00000000
  eigenvalues    EBANDS =      -226.78291088
  atomic energy  EATOM  =       701.20945335
  ---------------------------------------------------
  free energy    TOTEN  =       -34.42522392 eV

  energy without entropy =      -34.42522392  energy(sigma->0) =      -34.42522392


--------------------------------------------------------------------------------------------------------




--------------------------------------- Iteration      1(  19)  ---------------------------------------


    POTLOK:  cpu time      3.2017: real time      3.2042
    SETDIJ:  cpu time      0.2777: real time      0.2777
    TRIAL :  cpu time      2.4909: real time      2.4920
    CORREC:  cpu time      4.7890: real time      4.7916
    CHARGE:  cpu time      0.6389: real time      0.6395
    --------------------------------------------
      LOOP:  cpu time     11.4184: real time     11.4391

 eigenvalue-minimisations  :     0
 total energy-change (2. order) :-0.5235530E-05  (-0.1967968E-05)
 number of electron      16.0000000 magnetization 
 augmentation part       -0.0769077 magnetization 

 Free energy of the ion-electron system (eV)
  ---------------------------------------------------
  alpha Z        PSCENC =         0.07253111
  Ewald energy   TEWEN  =       622.82150315
  -Hartree energ DENC   =     -1194.54868265
  -exchange      EXHF   =         0.00000000
  -V(xc)+E(xc)   XCENC  =        62.10533776
  PAW double counting   =      9506.90395662    -9506.20666110
  entropy T*S    EENTRO =        -0.00000000
  eigenvalues    EBANDS =      -226.78266739
  atomic energy  EATOM  =       701.20945335
  ---------------------------------------------------
  free energy    TOTEN  =       -34.42522915 eV

  energy without entropy =      -34.42522915  energy(sigma->0) =      -34.42522915


--------------------------------------------------------------------------------------------------------




--------------------------------------- Iteration      1(  20)  ---------------------------------------


    POTLOK:  cpu time      3.1997: real time      3.2012
    SETDIJ:  cpu time      0.2816: real time      0.2816
    TRIAL :  cpu time      2.4946: real time      2.4961
    CORREC:  cpu time      4.7824: real time      4.7852
    CHARGE:  cpu time      0.6416: real time      0.6417
    --------------------------------------------
      LOOP:  cpu time     11.4172: real time     11.4380

 eigenvalue-minimisations  :     0
 total energy-change (2. order) :-0.1986979E-05  (-0.6996672E-06)
 number of electron      16.0000000 magnetization 
 augmentation part       -0.0769051 magnetization 

 Free energy of the ion-electron system (eV)
  ---------------------------------------------------
  alpha Z        PSCENC =         0.07253111
  Ewald energy   TEWEN  =       622.82150315
  -Hartree energ DENC   =     -1194.54935017
  -exchange      EXHF   =         0.00000000
  -V(xc)+E(xc)   XCENC  =        62.10544114
  PAW double counting   =      9509.66444824    -9508.96714471
  entropy T*S    EENTRO =        -0.00000000
  eigenvalues    EBANDS =      -226.78211324
  atomic energy  EATOM  =       701.20945335
  ---------------------------------------------------
  free energy    TOTEN  =       -34.42523114 eV

  energy without entropy =      -34.42523114  energy(sigma->0) =      -34.42523114


--------------------------------------------------------------------------------------------------------




--------------------------------------- Iteration      1(  21)  ---------------------------------------


    POTLOK:  cpu time      3.2016: real time      3.2030
    SETDIJ:  cpu time      0.2752: real time      0.2755
    TRIAL :  cpu time      2.4945: real time      2.4957
    CORREC:  cpu time      4.7789: real time      4.7816
    CHARGE:  cpu time      0.6406: real time      0.6414
    --------------------------------------------
      LOOP:  cpu time     11.4209: real time     11.4274

 eigenvalue-minimisations  :     0
 total energy-change (2. order) :-0.7164581E-06  (-0.2365447E-06)
 number of electron      16.0000000 magnetization 
 augmentation part       -0.0769033 magnetization 

 Free energy of the ion-electron system (eV)
  ---------------------------------------------------
  alpha Z        PSCENC =         0.07253111
  Ewald energy   TEWEN  =       622.82150315
  -Hartree energ DENC   =     -1194.54844395
  -exchange      EXHF   =         0.00000000
  -V(xc)+E(xc)   XCENC  =        62.10541872
  PAW double counting   =      9511.20042036    -9510.50309771
  entropy T*S    EENTRO =        -0.00000000
  eigenvalues    EBANDS =      -226.78301688
  atomic energy  EATOM  =       701.20945335
  ---------------------------------------------------
  free energy    TOTEN  =       -34.42523185 eV

  energy without entropy =      -34.42523185  energy(sigma->0) =      -34.42523185


--------------------------------------------------------------------------------------------------------




--------------------------------------- Iteration      1(  22)  ---------------------------------------


    POTLOK:  cpu time      3.2106: real time      3.2121
    SETDIJ:  cpu time      0.2684: real time      0.2684
    TRIAL :  cpu time      2.4932: real time      2.4947
    CORREC:  cpu time      4.7903: real time      4.7924
    CHARGE:  cpu time      0.6416: real time      0.6423
    --------------------------------------------
      LOOP:  cpu time     11.4220: real time     11.4415

 eigenvalue-minimisations  :     0
 total energy-change (2. order) :-0.2447068E-06  (-0.8233111E-07)
 number of electron      16.0000000 magnetization 
 augmentation part       -0.0769026 magnetization 

 Free energy of the ion-electron system (eV)
  ---------------------------------------------------
  alpha Z        PSCENC =         0.07253111
  Ewald energy   TEWEN  =       622.82150315
  -Hartree energ DENC   =     -1194.54773998
  -exchange      EXHF   =         0.00000000
  -V(xc)+E(xc)   XCENC  =        62.10537847
  PAW double counting   =      9511.55865755    -9510.86132223
  entropy T*S    EENTRO =        -0.00000000
  eigenvalues    EBANDS =      -226.78369350
  atomic energy  EATOM  =       701.20945335
  ---------------------------------------------------
  free energy    TOTEN  =       -34.42523210 eV

  energy without entropy =      -34.42523210  energy(sigma->0) =      -34.42523210


--------------------------------------------------------------------------------------------------------




--------------------------------------- Iteration      1(  23)  ---------------------------------------


    POTLOK:  cpu time      3.2059: real time      3.2072
    SETDIJ:  cpu time      0.2712: real time      0.2715
    TRIAL :  cpu time      2.4900: real time      2.4914
    CORREC:  cpu time      4.7748: real time      4.7778
    EDDIAG:  cpu time      0.6488: real time      0.6498
    CHARGE:  cpu time      0.6391: real time      0.6392
    --------------------------------------------
      LOOP:  cpu time     12.0471: real time     12.0682

 eigenvalue-minimisations  :     0
 total energy-change (2. order) :-0.8443021E-07  (-0.2871615E-07)
 number of electron      16.0000000 magnetization 
 augmentation part       -0.0769025 magnetization 

 Free energy of the ion-electron system (eV)
  ---------------------------------------------------
  alpha Z        PSCENC =         0.07253111
  Ewald energy   TEWEN  =       622.82150315
  -Hartree energ DENC   =     -1194.54760476
  -exchange      EXHF   =         0.00000000
  -V(xc)+E(xc)   XCENC  =        62.10537413
  PAW double counting   =      9511.35215340    -9510.65481633
  entropy T*S    EENTRO =        -0.00000000
  eigenvalues    EBANDS =      -226.78382624
  atomic energy  EATOM  =       701.20945335
  ---------------------------------------------------
  free energy    TOTEN  =       -34.42523218 eV

  energy without entropy =      -34.42523218  energy(sigma->0) =      -34.42523218


--------------------------------------------------------------------------------------------------------


  average scaling for gradient   0.9059


 average (electrostatic) potential at core
  the test charge radii are     0.5770  0.4325  0.5902
  (the norm of the test charge is              1.0000)
       1 -90.0758       2 -50.6534       3 -50.6481       4-108.3962       5-106.0467



 E-fermi :  -6.8523     XC(G=0):  -0.0638     alpha+bet : -0.0324

 Fermi energy:        -6.8522750073

 k-point     1 :       0.0000    0.0000    0.0000
  band No.  band energies     occupation 
      1     -25.5361      2.00000
      2     -23.1093      2.00000
      3     -15.6727      2.00000
      4     -14.5243      2.00000
      5     -10.2781      2.00000
      6      -8.9509      2.00000
      7      -8.3907      2.00000
      8      -6.9301      2.00000
      9      -0.6310      0.00000
     10      -0.1204      0.00000
     11       0.3377      0.00000
     12       0.3580      0.00000


--------------------------------------------------------------------------------------------------------


 soft charge-density along one line, spin component           1
         0         1         2         3         4         5         6         7         8         9
 total charge-density along one line

 pseudopotential strength for first ion, spin component:           1
 12.731  21.424   0.010  -0.017  -0.002   0.018  -0.031  -0.004
 21.424  36.051   0.016  -0.028  -0.003   0.030  -0.052  -0.006
  0.010   0.016  -3.260  -0.001  -0.000  -5.840  -0.002  -0.000
 -0.017  -0.028  -0.001  -3.258   0.000  -0.002  -5.837   0.000
 -0.002  -0.003  -0.000   0.000  -3.260  -0.000   0.000  -5.841
  0.018   0.030  -5.840  -0.002  -0.000 -10.441  -0.002  -0.000
 -0.031  -0.052  -0.002  -5.837   0.000  -0.002 -10.438  -0.000
 -0.004  -0.006  -0.000   0.000  -5.841  -0.000  -0.000 -10.442
 total augmentation occupancy for first ion, spin component:           1
 11.390  -4.469  -0.735   1.865  -0.064   0.312  -0.805   0.033
 -4.469   1.828   0.280  -0.764   0.044  -0.129   0.346  -0.018
 -0.735   0.280   6.289  -3.841  -0.175  -2.156   1.679   0.088
  1.865  -0.764  -3.841  12.077   0.322   1.679  -4.669  -0.143
 -0.064   0.044  -0.175   0.322   4.390   0.088  -0.144  -1.327
  0.312  -0.129  -2.156   1.679   0.088   0.762  -0.720  -0.039
 -0.805   0.346   1.679  -4.669  -0.144  -0.720   1.836   0.063
  0.033  -0.018   0.088  -0.143  -1.327  -0.039   0.063   0.406


------------------------ aborting loop because EDIFF is reached ----------------------------------------


    FORLOC:  cpu time      0.0608: real time      0.0608
    FORNL :  cpu time      0.0148: real time      0.0150
    FORCOR:  cpu time      2.9214: real time      2.9226
    OFIELD:  cpu time      0.0095: real time      0.0097

 VOLUME and BASIS-vectors are now :
 -----------------------------------------------------------------------------
  energy-cutoff  :     1000.00
  volume of cell :    10648.00
      direct lattice vectors                 reciprocal lattice vectors
    22.000000000  0.000000000  0.000000000     0.045454545  0.000000000  0.000000000
     0.000000000 22.000000000  0.000000000     0.000000000  0.045454545  0.000000000
     0.000000000  0.000000000 22.000000000     0.000000000  0.000000000  0.045454545

  length of vectors
    22.000000000 22.000000000 22.000000000     0.045454545  0.045454545  0.045454545


 FORCES acting on ions:
    Electron-Ion                     Ewald-Force                    Non-Local-Force
 -----------------------------------------------------------------------------------------------
   -.200E+01 -.127E+02 0.389E+02   0.314E+01 0.634E+01 -.273E+02   -.114E+01 0.640E+01 -.116E+02
   0.236E+02 0.374E+02 0.715E+02   -.257E+02 -.415E+02 -.771E+02   0.220E+01 0.419E+01 0.588E+01
   -.575E+02 -.547E+02 0.276E+02   0.630E+02 0.592E+02 -.291E+02   -.565E+01 -.472E+01 0.161E+01
   0.305E+02 -.819E+02 0.118E+03   -.477E+02 0.988E+02 -.121E+03   0.173E+02 -.170E+02 0.378E+01
   -.646E+01 0.106E+03 -.219E+03   0.733E+01 -.123E+03 0.255E+03   -.883E+00 0.172E+02 -.365E+02
 -----------------------------------------------------------------------------------------------
   -.118E+02 -.613E+01 0.368E+02   -.888E-15 0.000E+00 -.568E-13   0.118E+02 0.613E+01 -.368E+02


 POSITION                                       TOTAL-FORCE (eV/Angst)
 -----------------------------------------------------------------------------------
     10.84030     10.62328     11.45798         0.015123     -0.135256      0.406997
     10.47311     10.68276      9.49112         0.089563      0.119680      0.243007
     11.52689     11.87916     10.06258        -0.205436     -0.204707      0.087234
     10.74997     11.26105     10.27863         0.123846     -0.135062      0.077881
     10.86924     10.12084     12.50888        -0.023097      0.355345     -0.815119
 -----------------------------------------------------------------------------------
    total drift:                                0.000731     -0.000160     -0.000829


--------------------------------------------------------------------------------------------------------



  FREE ENERGIE OF THE ION-ELECTRON SYSTEM (eV)
  ---------------------------------------------------
  free  energy   TOTEN  =       -34.42523218 eV

  energy  without entropy=      -34.42523218  energy(sigma->0) =      -34.42523218



--------------------------------------------------------------------------------------------------------


    POTLOK:  cpu time      3.4830: real time      3.4847


--------------------------------------------------------------------------------------------------------


 stress matrix after NEB project (eV)
      0.00000      0.00000      0.00000
      0.00000      0.00000      0.00000
      0.00000      0.00000      0.00000
  FORCES: max atom, RMS     0.889506    0.487474
  FORCE total and by dimension    1.090024    0.815119
  Stress total and by dimension    0.000000    0.000000
     LOOP+:  cpu time    232.7791: real time    233.1162
    4ORBIT:  cpu time      0.0000: real time      0.0000

 total amount of memory used by VASP MPI-rank0   174824. kBytes
=======================================================================

   base      :      30000. kBytes
   nonl-proj :       3245. kBytes
   fftplans  :      40084. kBytes
   grid      :      99778. kBytes
   one-center:          1. kBytes
   wavefun   :       1716. kBytes

  
  
 General timing and accounting informations for this job:
 ========================================================
  
                  Total CPU time used (sec):      254.978
                            User time (sec):      239.248
                          System time (sec):       15.730
                         Elapsed time (sec):      258.716
  
                   Maximum memory used (kb):      438364.
                   Average memory used (kb):          N/A
  
                          Minor page faults:       297850
                          Major page faults:         1168
                 Voluntary context switches:         3736
