 vasp.6.4.1 05Apr23 (build May 30 2023 08:45:49) gamma-only                      
 executed on        HPECrayEX_GCC date 2024.03.23  14:33:30
 running  512 mpi-ranks, with    1 threads/rank, on    4 nodes
 distrk:  each k-point on  512 cores,    1 groups
 distr:  one band on NCORE=   4 cores,  128 groups


--------------------------------------------------------------------------------------------------------


 INCAR:
   NPAR = 128
   ISMEAR = 0
   SIGMA = 0.01
   ALGO = C
   PREC = Accurate
   EDIFF = 1E-8
   ENCUT = 1000
   ISIF = 1
   IBRION = 1
   GGA = ML
   LUSE_VDW = .TRUE.
   ZAB_VDW = -1.8867
   AGGAC = 0.0000
   LASPH = .TRUE.

 POTCAR:    PAW_PBE C_h 06Feb2004                 
 POTCAR:    PAW_PBE O_h 06Feb2004                 
 POTCAR:    PAW_PBE N_h 06Feb2004                 
 POTCAR:    PAW_PBE H_h 06Feb2004                 
 -----------------------------------------------------------------------------
|                                                                             |
|               ----> ADVICE to this user running VASP <----                  |
|                                                                             |
|     You have switched on vdW-DFT.                                           |
|     This routine was written and supplied by Jiri Klimes. We recommend      |
|     that you carefully read and cite the following publications:            |
|       J. Klimes, D.R. Bowler, A. Michelides                                 |
|          J. Phys.: Cond Matt. 22 022201 (2010)                              |
|       J. Klimes, D.R. Bowler, A. Michelides                                 |
|          Phys. Rev. B. 83, 195131 (2011)                                    |
|     and references therein.                                                 |
|                                                                             |
 -----------------------------------------------------------------------------

 POTCAR:    PAW_PBE C_h 06Feb2004                 
   VRHFIN =C: s2p2                                                                                  
   LEXCH  = PE                                                                                      
   EATOM  =   147.1560 eV,   10.8157 Ry                                                             
                                                                                                    
   TITEL  = PAW_PBE C_h 06Feb2004                                                                   
   LULTRA =        F    use ultrasoft PP ?                                                          
   IUNSCR =        1    unscreen: 0-lin 1-nonlin 2-no                                               
   RPACOR =    0.800    partial core radius                                                         
   POMASS =   12.011; ZVAL   =    4.000    mass and valenz                                          
   RCORE  =    1.100    outmost cutoff radius                                                       
   RWIGS  =    1.630; RWIGS  =    0.863    wigner-seitz radius (au A)                               
   ENMAX  =  700.000; ENMIN  =  500.000 eV                                                          
   ICORE  =        2    local potential                                                             
   LCOR   =        T    correct aug charges                                                         
   LPAW   =        T    paw PP                                                                      
   EAUG   =  946.768                                                                                
   DEXC   =    0.000                                                                                
   RMAX   =    1.128    core radius for proj-oper                                                   
   RAUG   =    1.300    factor for augmentation sphere                                              
   RDEP   =    1.162    radius for radial grids                                                     
   RDEPT  =    1.088    core radius for aug-charge                                                  
                                                                                                    
   Atomic configuration                                                                             
    4 entries                                                                                       
     n  l   j            E        occ.                                                              
     1  0  0.50      -273.3789   2.0000                                                             
     2  0  0.50       -13.7508   2.0000                                                             
     2  1  0.50        -5.2854   2.0000                                                             
     3  2  1.50        -5.4423   0.0000                                                             
   Description                                                                                      
     l       E           TYP  RCUT    TYP  RCUT                                                     
     0    -13.7508458     23  1.100                                                                 
     0     -8.2022199     23  1.100                                                                 
     1     -5.2854383     23  1.100                                                                 
     1      1.1560700     23  1.100                                                                 
     2     -5.4423304      7  1.100                                                                 
  local pseudopotential read in
  partial core-charges read in
  partial kinetic energy density read in
  atomic valenz-charges read in
  non local Contribution for L=           0  read in
    real space projection operators read in
  non local Contribution for L=           0  read in
    real space projection operators read in
  non local Contribution for L=           1  read in
    real space projection operators read in
  non local Contribution for L=           1  read in
    real space projection operators read in
    PAW grid and wavefunctions read in

   number of l-projection  operators is LMAX  =           4
   number of lm-projection operators is LMMAX =           8

 POTCAR:    PAW_PBE O_h 06Feb2004                 
   VRHFIN =O: s2p4                                                                                  
   LEXCH  = PE                                                                                      
   EATOM  =   432.3788 eV,   31.7789 Ry                                                             
                                                                                                    
   TITEL  = PAW_PBE O_h 06Feb2004                                                                   
   LULTRA =        F    use ultrasoft PP ?                                                          
   IUNSCR =        1    unscreen: 0-lin 1-nonlin 2-no                                               
   RPACOR =    0.800    partial core radius                                                         
   POMASS =   16.000; ZVAL   =    6.000    mass and valenz                                          
   RCORE  =    1.100    outmost cutoff radius                                                       
   RWIGS  =    1.400; RWIGS  =    0.741    wigner-seitz radius (au A)                               
   ENMAX  =  700.000; ENMIN  =  500.000 eV                                                          
   ICORE  =        2    local potential                                                             
   LCOR   =        T    correct aug charges                                                         
   LPAW   =        T    paw PP                                                                      
   EAUG   =  888.804                                                                                
   DEXC   =    0.000                                                                                
   RMAX   =    1.128    core radius for proj-oper                                                   
   RAUG   =    1.300    factor for augmentation sphere                                              
   RDEP   =    1.125    radius for radial grids                                                     
   RDEPT  =    1.088    core radius for aug-charge                                                  
                                                                                                    
   Atomic configuration                                                                             
    4 entries                                                                                       
     n  l   j            E        occ.                                                              
     1  0  0.50      -514.6923   2.0000                                                             
     2  0  0.50       -23.9615   2.0000                                                             
     2  1  0.50        -9.0305   4.0000                                                             
     3  2  1.50        -9.5241   0.0000                                                             
   Description                                                                                      
     l       E           TYP  RCUT    TYP  RCUT                                                     
     0    -23.9615319     23  1.100                                                                 
     0    -25.3221145     23  1.100                                                                 
     1     -9.0304911     23  1.100                                                                 
     1     -5.4802209     23  1.100                                                                 
     2     -9.5240782      7  1.100                                                                 
  local pseudopotential read in
  partial core-charges read in
  partial kinetic energy density read in
  atomic valenz-charges read in
  non local Contribution for L=           0  read in
    real space projection operators read in
  non local Contribution for L=           0  read in
    real space projection operators read in
  non local Contribution for L=           1  read in
    real space projection operators read in
  non local Contribution for L=           1  read in
    real space projection operators read in
    PAW grid and wavefunctions read in

   number of l-projection  operators is LMAX  =           4
   number of lm-projection operators is LMMAX =           8

 POTCAR:    PAW_PBE N_h 06Feb2004                 
   VRHFIN =N: s2p3                                                                                  
   LEXCH  = PE                                                                                      
   EATOM  =   264.5486 eV,   19.4438 Ry                                                             
                                                                                                    
   TITEL  = PAW_PBE N_h 06Feb2004                                                                   
   LULTRA =        F    use ultrasoft PP ?                                                          
   IUNSCR =        1    unscreen: 0-lin 1-nonlin 2-no                                               
   RPACOR =    0.800    partial core radius                                                         
   POMASS =   14.001; ZVAL   =    5.000    mass and valenz                                          
   RCORE  =    1.100    outmost cutoff radius                                                       
   RWIGS  =    1.480; RWIGS  =    0.783    wigner-seitz radius (au A)                               
   ENMAX  =  700.000; ENMIN  =  500.000 eV                                                          
   ICORE  =        2    local potential                                                             
   LCOR   =        T    correct aug charges                                                         
   LPAW   =        T    paw PP                                                                      
   EAUG   =  904.640                                                                                
   DEXC   =    0.000                                                                                
   RMAX   =    1.127    core radius for proj-oper                                                   
   RAUG   =    1.300    factor for augmentation sphere                                              
   RDEP   =    1.115    radius for radial grids                                                     
   RDEPT  =    1.106    core radius for aug-charge                                                  
                                                                                                    
   Atomic configuration                                                                             
    4 entries                                                                                       
     n  l   j            E        occ.                                                              
     1  0  0.50      -384.7179   2.0000                                                             
     2  0  0.50       -18.5828   2.0000                                                             
     2  1  0.50        -7.0898   3.0000                                                             
     3  2  1.50        -6.8029   0.0000                                                             
   Description                                                                                      
     l       E           TYP  RCUT    TYP  RCUT                                                     
     0    -18.5828117     23  1.100                                                                 
     0    -15.0750597     23  1.100                                                                 
     1     -7.0897851     23  1.100                                                                 
     1     -1.9663412     23  1.100                                                                 
     2     -6.8029130      7  1.100                                                                 
  local pseudopotential read in
  partial core-charges read in
  partial kinetic energy density read in
  kinetic energy density of atom read in
  atomic valenz-charges read in
  non local Contribution for L=           0  read in
    real space projection operators read in
  non local Contribution for L=           0  read in
    real space projection operators read in
  non local Contribution for L=           1  read in
    real space projection operators read in
  non local Contribution for L=           1  read in
    real space projection operators read in
    PAW grid and wavefunctions read in

   number of l-projection  operators is LMAX  =           4
   number of lm-projection operators is LMMAX =           8

 POTCAR:    PAW_PBE H_h 06Feb2004                 
   VRHFIN =H: ultrasoft test                                                                        
   LEXCH  = PE                                                                                      
   EATOM  =    12.4884 eV,    0.9179 Ry                                                             
                                                                                                    
   TITEL  = PAW_PBE H_h 06Feb2004                                                                   
   LULTRA =        F    use ultrasoft PP ?                                                          
   IUNSCR =        0    unscreen: 0-lin 1-nonlin 2-no                                               
   RPACOR =    0.000    partial core radius                                                         
   POMASS =    1.000; ZVAL   =    1.000    mass and valenz                                          
   RCORE  =    0.800    outmost cutoff radius                                                       
   RWIGS  =    0.700; RWIGS  =    0.370    wigner-seitz radius (au A)                               
   ENMAX  =  700.000; ENMIN  =  350.000 eV                                                          
   RCLOC  =    0.701    cutoff for local pot                                                        
   LCOR   =        T    correct aug charges                                                         
   LPAW   =        T    paw PP                                                                      
   EAUG   = 1000.000                                                                                
   RMAX   =    0.819    core radius for proj-oper                                                   
   RAUG   =    1.000    factor for augmentation sphere                                              
   RDEP   =    0.817    radius for radial grids                                                     
   RDEPT  =    0.817    core radius for aug-charge                                                  
                                                                                                    
   Atomic configuration                                                                             
    2 entries                                                                                       
     n  l   j            E        occ.                                                              
     1  0  0.50        -6.4927   1.0000                                                             
     2  1  0.50        -3.4015   0.0000                                                             
   Description                                                                                      
     l       E           TYP  RCUT    TYP  RCUT                                                     
     0     -6.4927493     23  0.800                                                                 
     0      6.8029130     23  0.800                                                                 
     1     -6.8029130     23  0.800                                                                 
  local pseudopotential read in
  atomic valenz-charges read in
  non local Contribution for L=           0  read in
    real space projection operators read in
  non local Contribution for L=           0  read in
    real space projection operators read in
  non local Contribution for L=           1  read in
    real space projection operators read in
    PAW grid and wavefunctions read in

   number of l-projection  operators is LMAX  =           3
   number of lm-projection operators is LMMAX =           5

 -----------------------------------------------------------------------------
|                                                                             |
|               ----> ADVICE to this user running VASP <----                  |
|                                                                             |
|     You have a (more or less) 'large supercell' and for larger cells it     |
|     might be more efficient to use real-space projection operators.         |
|     Therefore, try LREAL= Auto in the INCAR file.                           |
|     Mind: For very accurate calculation, you might also keep the            |
|     reciprocal projection scheme (i.e. LREAL=.FALSE.).                      |
|                                                                             |
 -----------------------------------------------------------------------------

 -----------------------------------------------------------------------------
|                                                                             |
|               ----> ADVICE to this user running VASP <----                  |
|                                                                             |
|     You enforced a specific xc type in the INCAR file but a different       |
|     type was found in the POTCAR file.                                      |
|     I HOPE YOU KNOW WHAT YOU ARE DOING!                                     |
|                                                                             |
 -----------------------------------------------------------------------------

  PAW_PBE C_h 06Feb2004                 :
 energy of atom  1       EATOM= -147.1560
 kinetic energy error for atom=    0.0031 (will be added to EATOM!!)
  PAW_PBE O_h 06Feb2004                 :
 energy of atom  2       EATOM= -432.3788
 kinetic energy error for atom=    0.0171 (will be added to EATOM!!)
  PAW_PBE N_h 06Feb2004                 :
 energy of atom  3       EATOM= -264.5486
 kinetic energy error for atom=    0.0081 (will be added to EATOM!!)
  PAW_PBE H_h 06Feb2004                 :
 energy of atom  4       EATOM=  -12.4884
 kinetic energy error for atom=    0.0006 (will be added to EATOM!!)


 POSCAR: super cell
  positions in direct lattice
  No initial velocities read in
 exchange correlation table for  LEXCH =       44
   RHO(1)=    0.500       N(1)  =     2000
   RHO(2)=  100.500       N(2)  =     4000



--------------------------------------------------------------------------------------------------------


 ion  position               nearest neighbor table
   1  0.000  0.214  0.081-  34 1.27  65 1.36  82 1.36
   2  0.500  0.214  0.081-  33 1.27  66 1.36  81 1.36
   3  0.000  0.714  0.081-  36 1.27  67 1.36  84 1.36
   4  0.500  0.714  0.081-  35 1.27  68 1.36  83 1.36
   5  0.000  0.214  0.331-  38 1.27  69 1.36  86 1.36
   6  0.500  0.214  0.331-  37 1.27  70 1.36  85 1.36
   7  0.000  0.714  0.331-  40 1.27  71 1.36  88 1.36
   8  0.500  0.714  0.331-  39 1.27  72 1.36  87 1.36
   9  0.000  0.214  0.581-  42 1.27  73 1.36  90 1.36
  10  0.500  0.214  0.581-  41 1.27  74 1.36  89 1.36
  11  0.000  0.714  0.581-  44 1.27  75 1.36  92 1.36
  12  0.500  0.714  0.581-  43 1.27  76 1.36  91 1.36
  13  0.000  0.214  0.831-  46 1.27  77 1.36  94 1.36
  14  0.500  0.214  0.831-  45 1.27  78 1.36  93 1.36
  15  0.000  0.714  0.831-  48 1.27  79 1.36  96 1.36
  16  0.500  0.714  0.831-  47 1.27  80 1.36  95 1.36
  17  0.250  0.464  0.169-  49 1.27 115 1.36  97 1.36
  18  0.750  0.464  0.169-  50 1.27 116 1.36  98 1.36
  19  0.250  0.964  0.169-  51 1.27 113 1.36  99 1.36
  20  0.750  0.964  0.169-  52 1.27 114 1.36 100 1.36
  21  0.250  0.464  0.419-  53 1.27 119 1.36 101 1.36
  22  0.750  0.464  0.419-  54 1.27 120 1.36 102 1.36
  23  0.250  0.964  0.419-  55 1.27 117 1.36 103 1.36
  24  0.750  0.964  0.419-  56 1.27 118 1.36 104 1.36
  25  0.250  0.464  0.669-  57 1.27 123 1.36 105 1.36
  26  0.750  0.464  0.669-  58 1.27 124 1.36 106 1.36
  27  0.250  0.964  0.669-  59 1.27 121 1.36 107 1.36
  28  0.750  0.964  0.669-  60 1.27 122 1.36 108 1.36
  29  0.250  0.464  0.919-  61 1.27 127 1.36 109 1.36
  30  0.750  0.464  0.919-  62 1.27 128 1.36 110 1.36
  31  0.250  0.964  0.919-  63 1.27 125 1.36 111 1.36
  32  0.750  0.964  0.919-  64 1.27 126 1.36 112 1.36
  33  0.500  0.214  0.148-   2 1.27
  34  1.000  0.214  0.148-   1 1.27
  35  0.500  0.714  0.148-   4 1.27
  36  1.000  0.714  0.148-   3 1.27
  37  0.500  0.214  0.398-   6 1.27
  38  1.000  0.214  0.398-   5 1.27
  39  0.500  0.714  0.398-   8 1.27
  40  1.000  0.714  0.398-   7 1.27
  41  0.500  0.214  0.648-  10 1.27
  42  1.000  0.214  0.648-   9 1.27
  43  0.500  0.714  0.648-  12 1.27
  44  1.000  0.714  0.648-  11 1.27
  45  0.500  0.214  0.898-  14 1.27
  46  1.000  0.214  0.898-  13 1.27
  47  0.500  0.714  0.898-  16 1.27
  48  1.000  0.714  0.898-  15 1.27
  49  0.250  0.464  0.102-  17 1.27
  50  0.750  0.464  0.102-  18 1.27
  51  0.250  0.964  0.102-  19 1.27
  52  0.750  0.964  0.102-  20 1.27
  53  0.250  0.464  0.352-  21 1.27
  54  0.750  0.464  0.352-  22 1.27
  55  0.250  0.964  0.352-  23 1.27
  56  0.750  0.964  0.352-  24 1.27
  57  0.250  0.464  0.602-  25 1.27
  58  0.750  0.464  0.602-  26 1.27
  59  0.250  0.964  0.602-  27 1.27
  60  0.750  0.964  0.602-  28 1.27
  61  0.250  0.464  0.852-  29 1.27
  62  0.750  0.464  0.852-  30 1.27
  63  0.250  0.964  0.852-  31 1.27
  64  0.750  0.964  0.852-  32 1.27
  65  0.073  0.286  0.044- 205 1.01 129 1.01   1 1.36
  66  0.573  0.286  0.044- 206 1.01 130 1.01   2 1.36
  67  0.073  0.786  0.044- 207 1.01 131 1.01   3 1.36
  68  0.573  0.786  0.044- 208 1.01 132 1.01   4 1.36
  69  0.073  0.286  0.294- 133 1.01 193 1.02   5 1.36
  70  0.573  0.286  0.294- 194 1.01 134 1.01   6 1.36
  71  0.073  0.786  0.294- 195 1.01 135 1.01   7 1.36
  72  0.573  0.786  0.294- 196 1.01 136 1.01   8 1.36
  73  0.073  0.286  0.544- 197 1.01 137 1.01   9 1.36
  74  0.573  0.286  0.544- 198 1.01 138 1.01  10 1.36
  75  0.073  0.786  0.544- 199 1.01 139 1.01  11 1.36
  76  0.573  0.786  0.544- 200 1.01 140 1.01  12 1.36
  77  0.073  0.286  0.794- 201 1.01 141 1.01  13 1.36
  78  0.573  0.286  0.794- 202 1.01 142 1.01  14 1.36
  79  0.073  0.786  0.794- 203 1.01 143 1.01  15 1.36
  80  0.573  0.786  0.794- 204 1.01 144 1.01  16 1.36
  81  0.427  0.141  0.044- 221 1.01 145 1.01   2 1.36
  82  0.927  0.141  0.044- 222 1.01 146 1.01   1 1.36
  83  0.427  0.641  0.044- 223 1.01 147 1.01   4 1.36
  84  0.927  0.641  0.044- 224 1.01 148 1.01   3 1.36
  85  0.427  0.141  0.294- 209 1.01 149 1.01   6 1.36
  86  0.927  0.141  0.294- 210 1.01 150 1.01   5 1.36
  87  0.427  0.641  0.294- 211 1.01 151 1.01   8 1.36
  88  0.927  0.641  0.294- 212 1.01 152 1.01   7 1.36
  89  0.427  0.141  0.544- 213 1.01 153 1.01  10 1.36
  90  0.927  0.141  0.544- 214 1.01 154 1.01   9 1.36
  91  0.427  0.641  0.544- 215 1.01 155 1.01  12 1.36
  92  0.927  0.641  0.544- 216 1.01 156 1.01  11 1.36
  93  0.427  0.141  0.794- 217 1.01 157 1.01  14 1.36
  94  0.927  0.141  0.794- 218 1.01 158 1.01  13 1.36
  95  0.427  0.641  0.794- 219 1.01 159 1.01  16 1.36
  96  0.927  0.641  0.794- 220 1.01 160 1.01  15 1.36
  97  0.323  0.391  0.206- 229 1.01 161 1.01  17 1.36
  98  0.823  0.391  0.206- 230 1.01 162 1.01  18 1.36
  99  0.323  0.891  0.206- 231 1.01 163 1.01  19 1.36
 100  0.823  0.891  0.206- 232 1.01 164 1.01  20 1.36
 101  0.323  0.391  0.456- 233 1.01 165 1.01  21 1.36
 102  0.823  0.391  0.456- 234 1.01 166 1.01  22 1.36
 103  0.323  0.891  0.456- 235 1.01 167 1.01  23 1.36
 104  0.823  0.891  0.456- 236 1.01 168 1.01  24 1.36
 105  0.323  0.391  0.706- 237 1.01 169 1.01  25 1.36
 106  0.823  0.391  0.706- 238 1.01 170 1.01  26 1.36
 107  0.323  0.891  0.706- 239 1.01 171 1.01  27 1.36
 108  0.823  0.891  0.706- 240 1.01 172 1.01  28 1.36
 109  0.323  0.391  0.956- 225 1.01 173 1.01  29 1.36
 110  0.823  0.391  0.956- 226 1.01 174 1.01  30 1.36
 111  0.323  0.891  0.956- 227 1.01 175 1.01  31 1.36
 112  0.823  0.891  0.956- 228 1.01 176 1.01  32 1.36
 113  0.177  0.036  0.206- 245 1.01 177 1.01  19 1.36
 114  0.677  0.036  0.206- 246 1.01 178 1.01  20 1.36
 115  0.177  0.536  0.206- 247 1.01 179 1.01  17 1.36
 116  0.677  0.536  0.206- 248 1.01 180 1.01  18 1.36
 117  0.177  0.036  0.456- 249 1.01 181 1.01  23 1.36
 118  0.677  0.036  0.456- 250 1.01 182 1.01  24 1.36
 119  0.177  0.536  0.456- 251 1.01 183 1.01  21 1.36
 120  0.677  0.536  0.456- 252 1.01 184 1.01  22 1.36
 121  0.177  0.036  0.706- 253 1.01 185 1.01  27 1.36
 122  0.677  0.036  0.706- 254 1.01 186 1.01  28 1.36
 123  0.177  0.536  0.706- 255 1.01 187 1.01  25 1.36
 124  0.677  0.536  0.706- 256 1.01 188 1.01  26 1.36
 125  0.177  0.036  0.956- 241 1.01 189 1.01  31 1.36
 126  0.677  0.036  0.956- 242 1.01 190 1.01  32 1.36
 127  0.177  0.536  0.956- 243 1.01 191 1.01  29 1.36
 128  0.677  0.536  0.956- 244 1.01 192 1.01  30 1.36
 129  0.128  0.342  0.070-  65 1.01
 130  0.628  0.342  0.070-  66 1.01
 131  0.128  0.842  0.070-  67 1.01
 132  0.628  0.842  0.070-  68 1.01
 133  0.128  0.342  0.320-  69 1.01
 134  0.628  0.342  0.320-  70 1.01
 135  0.128  0.842  0.320-  71 1.01
 136  0.628  0.842  0.320-  72 1.01
 137  0.128  0.342  0.570-  73 1.01
 138  0.628  0.342  0.570-  74 1.01
 139  0.128  0.842  0.570-  75 1.01
 140  0.628  0.842  0.570-  76 1.01
 141  0.128  0.342  0.820-  77 1.01
 142  0.628  0.342  0.820-  78 1.01
 143  0.128  0.842  0.820-  79 1.01
 144  0.628  0.842  0.820-  80 1.01
 145  0.372  0.085  0.070-  81 1.01
 146  0.872  0.085  0.070-  82 1.01
 147  0.372  0.585  0.070-  83 1.01
 148  0.872  0.585  0.070-  84 1.01
 149  0.372  0.085  0.320-  85 1.01
 150  0.872  0.085  0.320-  86 1.01
 151  0.372  0.585  0.320-  87 1.01
 152  0.872  0.585  0.320-  88 1.01
 153  0.372  0.085  0.570-  89 1.01
 154  0.872  0.085  0.570-  90 1.01
 155  0.372  0.585  0.570-  91 1.01
 156  0.872  0.585  0.570-  92 1.01
 157  0.372  0.085  0.820-  93 1.01
 158  0.872  0.085  0.820-  94 1.01
 159  0.372  0.585  0.820-  95 1.01
 160  0.872  0.585  0.820-  96 1.01
 161  0.378  0.335  0.180-  97 1.01
 162  0.878  0.335  0.180-  98 1.01
 163  0.378  0.835  0.180-  99 1.01
 164  0.878  0.835  0.180- 100 1.01
 165  0.378  0.335  0.430- 101 1.01
 166  0.878  0.335  0.430- 102 1.01
 167  0.378  0.835  0.430- 103 1.01
 168  0.878  0.835  0.430- 104 1.01
 169  0.378  0.335  0.680- 105 1.01
 170  0.878  0.335  0.680- 106 1.01
 171  0.378  0.835  0.680- 107 1.01
 172  0.878  0.835  0.680- 108 1.01
 173  0.378  0.335  0.930- 109 1.01
 174  0.878  0.335  0.930- 110 1.01
 175  0.378  0.835  0.930- 111 1.01
 176  0.878  0.835  0.930- 112 1.01
 177  0.122  0.092  0.180- 113 1.01
 178  0.622  0.092  0.180- 114 1.01
 179  0.122  0.592  0.180- 115 1.01
 180  0.622  0.592  0.180- 116 1.01
 181  0.122  0.092  0.430- 117 1.01
 182  0.622  0.092  0.430- 118 1.01
 183  0.122  0.592  0.430- 119 1.01
 184  0.622  0.592  0.430- 120 1.01
 185  0.122  0.092  0.680- 121 1.01
 186  0.622  0.092  0.680- 122 1.01
 187  0.122  0.592  0.680- 123 1.01
 188  0.622  0.592  0.680- 124 1.01
 189  0.122  0.092  0.930- 125 1.01
 190  0.622  0.092  0.930- 126 1.01
 191  0.122  0.592  0.930- 127 1.01
 192  0.622  0.592  0.930- 128 1.01
 193  0.073  0.286  0.240-  69 1.02
 194  0.573  0.286  0.241-  70 1.01
 195  0.073  0.786  0.241-  71 1.01
 196  0.573  0.786  0.241-  72 1.01
 197  0.073  0.286  0.491-  73 1.01
 198  0.573  0.286  0.491-  74 1.01
 199  0.073  0.786  0.491-  75 1.01
 200  0.573  0.786  0.491-  76 1.01
 201  0.073  0.286  0.741-  77 1.01
 202  0.573  0.286  0.741-  78 1.01
 203  0.073  0.786  0.741-  79 1.01
 204  0.573  0.786  0.741-  80 1.01
 205  0.073  0.286  0.991-  65 1.01
 206  0.573  0.286  0.991-  66 1.01
 207  0.073  0.786  0.991-  67 1.01
 208  0.573  0.786  0.991-  68 1.01
 209  0.427  0.141  0.241-  85 1.01
 210  0.927  0.141  0.241-  86 1.01
 211  0.427  0.641  0.241-  87 1.01
 212  0.927  0.641  0.241-  88 1.01
 213  0.427  0.141  0.491-  89 1.01
 214  0.927  0.141  0.491-  90 1.01
 215  0.427  0.641  0.491-  91 1.01
 216  0.927  0.641  0.491-  92 1.01
 217  0.427  0.141  0.741-  93 1.01
 218  0.927  0.141  0.741-  94 1.01
 219  0.427  0.641  0.741-  95 1.01
 220  0.927  0.641  0.741-  96 1.01
 221  0.427  0.141  0.991-  81 1.01
 222  0.927  0.141  0.991-  82 1.01
 223  0.427  0.641  0.991-  83 1.01
 224  0.927  0.641  0.991-  84 1.01
 225  0.323  0.391  0.009- 109 1.01
 226  0.823  0.391  0.009- 110 1.01
 227  0.323  0.891  0.009- 111 1.01
 228  0.823  0.891  0.009- 112 1.01
 229  0.323  0.391  0.259-  97 1.01
 230  0.823  0.391  0.259-  98 1.01
 231  0.323  0.891  0.259-  99 1.01
 232  0.823  0.891  0.259- 100 1.01
 233  0.323  0.391  0.509- 101 1.01
 234  0.823  0.391  0.509- 102 1.01
 235  0.323  0.891  0.509- 103 1.01
 236  0.823  0.891  0.509- 104 1.01
 237  0.323  0.391  0.759- 105 1.01
 238  0.823  0.391  0.759- 106 1.01
 239  0.323  0.891  0.759- 107 1.01
 240  0.823  0.891  0.759- 108 1.01
 241  0.177  0.036  0.009- 125 1.01
 242  0.677  0.036  0.009- 126 1.01
 243  0.177  0.536  0.009- 127 1.01
 244  0.677  0.536  0.009- 128 1.01
 245  0.177  0.036  0.259- 113 1.01
 246  0.677  0.036  0.259- 114 1.01
 247  0.177  0.536  0.259- 115 1.01
 248  0.677  0.536  0.259- 116 1.01
 249  0.177  0.036  0.509- 117 1.01
 250  0.677  0.036  0.509- 118 1.01
 251  0.177  0.536  0.509- 119 1.01
 252  0.677  0.536  0.509- 120 1.01
 253  0.177  0.036  0.759- 121 1.01
 254  0.677  0.036  0.759- 122 1.01
 255  0.177  0.536  0.759- 123 1.01
 256  0.677  0.536  0.759- 124 1.01

  LATTYP: Found a simple tetragonal cell.
 ALAT       =    11.2595268647
 C/A-ratio  =     1.6875653193
  
  Lattice vectors:
  
 A1 = (  11.2595268647,   0.0000000000,   0.0000000000)
 A2 = (   0.0000000000,  11.2595268647,   0.0000000000)
 A3 = (   0.0000000000,   0.0000000000,  19.0011870488)


Analysis of symmetry for initial positions (statically):
=====================================================================
 Subroutine PRICEL returns:
 Original cell was already a primitive cell.
 

 Routine SETGRP: Setting up the symmetry group for a 
 simple tetragonal supercell.


 Subroutine GETGRP returns: Found  2 space group operations
 (whereof  1 operations were pure point group operations)
 out of a pool of 16 trial point group operations.


The static configuration has the point symmetry C_1 .
 The point group associated with its full space group is C_1h.


Analysis of symmetry for dynamics (positions and initial velocities):
=====================================================================
 Subroutine PRICEL returns:
 Original cell was already a primitive cell.
 

 Routine SETGRP: Setting up the symmetry group for a 
 simple tetragonal supercell.


 Subroutine GETGRP returns: Found  2 space group operations
 (whereof  1 operations were pure point group operations)
 out of a pool of 16 trial point group operations.


The dynamic configuration has the point symmetry C_1 .
 The point group associated with its full space group is C_1h.


 Subroutine INISYM returns: Found  2 space group operations
 (whereof  1 operations are pure point group operations),
 and found     1 'primitive' translations


----------------------------------------------------------------------------------------

                                     Primitive cell                                     

  volume of cell :    2408.9124

  direct lattice vectors                    reciprocal lattice vectors
    11.259526865  0.000000000  0.000000000     0.088813679  0.000000000  0.000000000
     0.000000000 11.259526865  0.000000000     0.000000000  0.088813679  0.000000000
     0.000000000  0.000000000 19.001187049     0.000000000  0.000000000  0.052628291

  length of vectors
    11.259526865 11.259526865 19.001187049     0.088813679  0.088813679  0.052628291

  position of ions in fractional coordinates (direct lattice)
     0.000000073  0.213561786  0.081074872
     0.500000073  0.213561786  0.081074872
     0.000000073  0.713561786  0.081074872
     0.500000073  0.713561786  0.081074872
     0.000000073  0.213561786  0.331074872
     0.500000073  0.213561786  0.331074872
     0.000000073  0.713561786  0.331074872
     0.500000073  0.713561786  0.331074872
     0.000000073  0.213561786  0.581074872
     0.500000073  0.213561786  0.581074872
     0.000000073  0.713561786  0.581074872
     0.500000073  0.713561786  0.581074872
     0.000000073  0.213561786  0.831074872
     0.500000073  0.213561786  0.831074872
     0.000000073  0.713561786  0.831074872
     0.500000073  0.713561786  0.831074872
     0.249999965  0.463561455  0.168925177
     0.749999965  0.463561455  0.168925177
     0.249999965  0.963561455  0.168925177
     0.749999965  0.963561455  0.168925177
     0.249999965  0.463561455  0.418925177
     0.749999965  0.463561455  0.418925177
     0.249999965  0.963561455  0.418925177
     0.749999965  0.963561455  0.418925177
     0.249999965  0.463561455  0.668925177
     0.749999965  0.463561455  0.668925177
     0.249999965  0.963561455  0.668925177
     0.749999965  0.963561455  0.668925177
     0.249999965  0.463561455  0.918925177
     0.749999965  0.463561455  0.918925177
     0.249999965  0.963561455  0.918925177
     0.749999965  0.963561455  0.918925177
     0.499999927  0.213561675  0.148156946
     0.999999927  0.213561675  0.148156946
     0.499999927  0.713561675  0.148156946
     0.999999927  0.713561675  0.148156946
     0.499999927  0.213561675  0.398156946
     0.999999927  0.213561675  0.398156946
     0.499999927  0.713561675  0.398156946
     0.999999927  0.713561675  0.398156946
     0.499999927  0.213561675  0.648156946
     0.999999927  0.213561675  0.648156946
     0.499999927  0.713561675  0.648156946
     0.999999927  0.713561675  0.648156946
     0.499999927  0.213561675  0.898156946
     0.999999927  0.213561675  0.898156946
     0.499999927  0.713561675  0.898156946
     0.999999927  0.713561675  0.898156946
     0.249999962  0.463561507  0.101843104
     0.749999962  0.463561507  0.101843104
     0.249999962  0.963561507  0.101843104
     0.749999962  0.963561507  0.101843104
     0.249999962  0.463561507  0.351843104
     0.749999962  0.463561507  0.351843104
     0.249999962  0.963561507  0.351843104
     0.749999962  0.963561507  0.351843104
     0.249999962  0.463561507  0.601843104
     0.749999962  0.463561507  0.601843104
     0.249999962  0.963561507  0.601843104
     0.749999962  0.963561507  0.601843104
     0.249999962  0.463561507  0.851843104
     0.749999962  0.463561507  0.851843104
     0.249999962  0.963561507  0.851843104
     0.749999962  0.963561507  0.851843104
     0.072882818  0.286443300  0.044052017
     0.572882818  0.286443300  0.044052017
     0.072882818  0.786443300  0.044052017
     0.572882818  0.786443300  0.044052017
     0.072882818  0.286443300  0.294052017
     0.572882818  0.286443300  0.294052017
     0.072882818  0.786443300  0.294052017
     0.572882818  0.786443300  0.294052017
     0.072882818  0.286443300  0.544052017
     0.572882818  0.286443300  0.544052017
     0.072882818  0.786443300  0.544052017
     0.572882818  0.786443300  0.544052017
     0.072882818  0.286443300  0.794052017
     0.572882818  0.286443300  0.794052017
     0.072882818  0.786443300  0.794052017
     0.572882818  0.786443300  0.794052017
     0.427117235  0.140680228  0.044052087
     0.927117235  0.140680228  0.044052087
     0.427117235  0.640680228  0.044052087
     0.927117235  0.640680228  0.044052087
     0.427117235  0.140680228  0.294052087
     0.927117235  0.140680228  0.294052087
     0.427117235  0.640680228  0.294052087
     0.927117235  0.640680228  0.294052087
     0.427117235  0.140680228  0.544052087
     0.927117235  0.140680228  0.544052087
     0.427117235  0.640680228  0.544052087
     0.927117235  0.640680228  0.544052087
     0.427117235  0.140680228  0.794052087
     0.927117235  0.140680228  0.794052087
     0.427117235  0.640680228  0.794052087
     0.927117235  0.640680228  0.794052087
     0.322882797  0.390679872  0.205947983
     0.822882797  0.390679872  0.205947983
     0.322882797  0.890679872  0.205947983
     0.822882797  0.890679872  0.205947983
     0.322882797  0.390679872  0.455947983
     0.822882797  0.390679872  0.455947983
     0.322882797  0.890679872  0.455947983
     0.822882797  0.890679872  0.455947983
     0.322882797  0.390679872  0.705947983
     0.822882797  0.390679872  0.705947983
     0.322882797  0.890679872  0.705947983
     0.822882797  0.890679872  0.705947983
     0.322882797  0.390679872  0.955947983
     0.822882797  0.390679872  0.955947983
     0.322882797  0.890679872  0.955947983
     0.822882797  0.890679872  0.955947983
     0.177117193  0.036443043  0.205947919
     0.677117193  0.036443043  0.205947919
     0.177117193  0.536443043  0.205947919
     0.677117193  0.536443043  0.205947919
     0.177117193  0.036443043  0.455947919
     0.677117193  0.036443043  0.455947919
     0.177117193  0.536443043  0.455947919
     0.677117193  0.536443043  0.455947919
     0.177117193  0.036443043  0.705947919
     0.677117193  0.036443043  0.705947919
     0.177117193  0.536443043  0.705947919
     0.677117193  0.536443043  0.705947919
     0.177117193  0.036443043  0.955947919
     0.677117193  0.036443043  0.955947919
     0.177117193  0.536443043  0.955947919
     0.677117193  0.536443043  0.955947919
     0.128419768  0.341982312  0.070232434
     0.628419768  0.341982312  0.070232434
     0.128419768  0.841982312  0.070232434
     0.628419768  0.841982312  0.070232434
     0.128419768  0.341982312  0.320232434
     0.628419768  0.341982312  0.320232434
     0.128419768  0.841982312  0.320232434
     0.628419768  0.841982312  0.320232434
     0.128419768  0.341982312  0.570232434
     0.628419768  0.341982312  0.570232434
     0.128419768  0.841982312  0.570232434
     0.628419768  0.841982312  0.570232434
     0.128419768  0.341982312  0.820232434
     0.628419768  0.341982312  0.820232434
     0.128419768  0.841982312  0.820232434
     0.628419768  0.841982312  0.820232434
     0.371580034  0.085140848  0.070232469
     0.871580034  0.085140848  0.070232469
     0.371580034  0.585140848  0.070232469
     0.871580034  0.585140848  0.070232469
     0.371580034  0.085140848  0.320232469
     0.871580034  0.085140848  0.320232469
     0.371580034  0.585140848  0.320232469
     0.871580034  0.585140848  0.320232469
     0.371580034  0.085140848  0.570232469
     0.871580034  0.085140848  0.570232469
     0.371580034  0.585140848  0.570232469
     0.871580034  0.585140848  0.570232469
     0.371580034  0.085140848  0.820232469
     0.871580034  0.085140848  0.820232469
     0.371580034  0.585140848  0.820232469
     0.871580034  0.585140848  0.820232469
     0.378419786  0.335140832  0.179767485
     0.878419786  0.335140832  0.179767485
     0.378419786  0.835140832  0.179767485
     0.878419786  0.835140832  0.179767485
     0.378419786  0.335140832  0.429767485
     0.878419786  0.335140832  0.429767485
     0.378419786  0.835140832  0.429767485
     0.878419786  0.835140832  0.429767485
     0.378419786  0.335140832  0.679767485
     0.878419786  0.335140832  0.679767485
     0.378419786  0.835140832  0.679767485
     0.878419786  0.835140832  0.679767485
     0.378419786  0.335140832  0.929767485
     0.878419786  0.335140832  0.929767485
     0.378419786  0.835140832  0.929767485
     0.878419786  0.835140832  0.929767485
     0.121580120  0.091982258  0.179767467
     0.621580120  0.091982258  0.179767467
     0.121580120  0.591982258  0.179767467
     0.621580120  0.591982258  0.179767467
     0.121580120  0.091982258  0.429767467
     0.621580120  0.091982258  0.429767467
     0.121580120  0.591982258  0.429767467
     0.621580120  0.591982258  0.429767467
     0.121580120  0.091982258  0.679767467
     0.621580120  0.091982258  0.679767467
     0.121580120  0.591982258  0.679767467
     0.621580120  0.591982258  0.679767467
     0.121580120  0.091982258  0.929767467
     0.621580120  0.091982258  0.929767467
     0.121580120  0.591982258  0.929767467
     0.621580120  0.591982258  0.929767467
     0.072864156  0.286425884  0.240151687
     0.572864156  0.286425884  0.240677967
     0.072864156  0.786425884  0.240677967
     0.572864156  0.786425884  0.240677967
     0.072864156  0.286425884  0.490677967
     0.572864156  0.286425884  0.490677967
     0.072864156  0.786425884  0.490677967
     0.572864156  0.786425884  0.490677967
     0.072864156  0.286425884  0.740677967
     0.572864156  0.286425884  0.740677967
     0.072864156  0.786425884  0.740677967
     0.572864156  0.786425884  0.740677967
     0.072864156  0.286425884  0.990677967
     0.572864156  0.286425884  0.990677967
     0.072864156  0.786425884  0.990677967
     0.572864156  0.786425884  0.990677967
     0.427135662  0.140697301  0.240677917
     0.927135662  0.140697301  0.240677917
     0.427135662  0.640697301  0.240677917
     0.927135662  0.640697301  0.240677917
     0.427135662  0.140697301  0.490677917
     0.927135662  0.140697301  0.490677917
     0.427135662  0.640697301  0.490677917
     0.927135662  0.640697301  0.490677917
     0.427135662  0.140697301  0.740677917
     0.927135662  0.140697301  0.740677917
     0.427135662  0.640697301  0.740677917
     0.927135662  0.640697301  0.740677917
     0.427135662  0.140697301  0.990677917
     0.927135662  0.140697301  0.990677917
     0.427135662  0.640697301  0.990677917
     0.927135662  0.640697301  0.990677917
     0.322864232  0.390697213  0.009322056
     0.822864232  0.390697213  0.009322056
     0.322864232  0.890697213  0.009322056
     0.822864232  0.890697213  0.009322056
     0.322864232  0.390697213  0.259322056
     0.822864232  0.390697213  0.259322056
     0.322864232  0.890697213  0.259322056
     0.822864232  0.890697213  0.259322056
     0.322864232  0.390697213  0.509322056
     0.822864232  0.390697213  0.509322056
     0.322864232  0.890697213  0.509322056
     0.822864232  0.890697213  0.509322056
     0.322864232  0.390697213  0.759322056
     0.822864232  0.390697213  0.759322056
     0.322864232  0.890697213  0.759322056
     0.822864232  0.890697213  0.759322056
     0.177135610  0.036425945  0.009322033
     0.677135610  0.036425945  0.009322033
     0.177135610  0.536425945  0.009322033
     0.677135610  0.536425945  0.009322033
     0.177135610  0.036425945  0.259322033
     0.677135610  0.036425945  0.259322033
     0.177135610  0.536425945  0.259322033
     0.677135610  0.536425945  0.259322033
     0.177135610  0.036425945  0.509322033
     0.677135610  0.036425945  0.509322033
     0.177135610  0.536425945  0.509322033
     0.677135610  0.536425945  0.509322033
     0.177135610  0.036425945  0.759322033
     0.677135610  0.036425945  0.759322033
     0.177135610  0.536425945  0.759322033
     0.677135610  0.536425945  0.759322033

  ion indices of the primitive-cell ions
   primitive index   ion index
                 1           1
                 2           2
                 3           3
                 4           4
                 5           5
                 6           6
                 7           7
                 8           8
                 9           9
                10          10
                11          11
                12          12
                13          13
                14          14
                15          15
                16          16
                17          17
                18          18
                19          19
                20          20
                21          21
                22          22
                23          23
                24          24
                25          25
                26          26
                27          27
                28          28
                29          29
                30          30
                31          31
                32          32
                33          33
                34          34
                35          35
                36          36
                37          37
                38          38
                39          39
                40          40
                41          41
                42          42
                43          43
                44          44
                45          45
                46          46
                47          47
                48          48
                49          49
                50          50
                51          51
                52          52
                53          53
                54          54
                55          55
                56          56
                57          57
                58          58
                59          59
                60          60
                61          61
                62          62
                63          63
                64          64
                65          65
                66          66
                67          67
                68          68
                69          69
                70          70
                71          71
                72          72
                73          73
                74          74
                75          75
                76          76
                77          77
                78          78
                79          79
                80          80
                81          81
                82          82
                83          83
                84          84
                85          85
                86          86
                87          87
                88          88
                89          89
                90          90
                91          91
                92          92
                93          93
                94          94
                95          95
                96          96
                97          97
                98          98
                99          99
               100         100
               101         101
               102         102
               103         103
               104         104
               105         105
               106         106
               107         107
               108         108
               109         109
               110         110
               111         111
               112         112
               113         113
               114         114
               115         115
               116         116
               117         117
               118         118
               119         119
               120         120
               121         121
               122         122
               123         123
               124         124
               125         125
               126         126
               127         127
               128         128
               129         129
               130         130
               131         131
               132         132
               133         133
               134         134
               135         135
               136         136
               137         137
               138         138
               139         139
               140         140
               141         141
               142         142
               143         143
               144         144
               145         145
               146         146
               147         147
               148         148
               149         149
               150         150
               151         151
               152         152
               153         153
               154         154
               155         155
               156         156
               157         157
               158         158
               159         159
               160         160
               161         161
               162         162
               163         163
               164         164
               165         165
               166         166
               167         167
               168         168
               169         169
               170         170
               171         171
               172         172
               173         173
               174         174
               175         175
               176         176
               177         177
               178         178
               179         179
               180         180
               181         181
               182         182
               183         183
               184         184
               185         185
               186         186
               187         187
               188         188
               189         189
               190         190
               191         191
               192         192
               193         193
               194         194
               195         195
               196         196
               197         197
               198         198
               199         199
               200         200
               201         201
               202         202
               203         203
               204         204
               205         205
               206         206
               207         207
               208         208
               209         209
               210         210
               211         211
               212         212
               213         213
               214         214
               215         215
               216         216
               217         217
               218         218
               219         219
               220         220
               221         221
               222         222
               223         223
               224         224
               225         225
               226         226
               227         227
               228         228
               229         229
               230         230
               231         231
               232         232
               233         233
               234         234
               235         235
               236         236
               237         237
               238         238
               239         239
               240         240
               241         241
               242         242
               243         243
               244         244
               245         245
               246         246
               247         247
               248         248
               249         249
               250         250
               251         251
               252         252
               253         253
               254         254
               255         255
               256         256

----------------------------------------------------------------------------------------



 KPOINTS: auto                                    

Automatic generation of k-mesh.
 Grid dimensions read from file:
 generate k-points for:    1    1    1

 Generating k-lattice:

  Cartesian coordinates                     Fractional coordinates (reciprocal lattice)
     0.088813679  0.000000000  0.000000000     1.000000000  0.000000000  0.000000000
     0.000000000  0.088813679  0.000000000     0.000000000  1.000000000  0.000000000
     0.000000000  0.000000000  0.052628291     0.000000000  0.000000000  1.000000000

  Length of vectors
     0.088813679  0.088813679  0.052628291

  Shift w.r.t. Gamma in fractional coordinates (k-lattice)
     0.000000000  0.000000000  0.000000000

 
 Subroutine IBZKPT returns following result:
 ===========================================
 
 Found      1 irreducible k-points:
 
 Following reciprocal coordinates:
            Coordinates               Weight
  0.000000  0.000000  0.000000      1.000000
 
 Following cartesian coordinates:
            Coordinates               Weight
  0.000000  0.000000  0.000000      1.000000
 


--------------------------------------------------------------------------------------------------------




 Dimension of arrays:
   k-points           NKPTS =      1   k-points in BZ     NKDIM =      1   number of bands    NBANDS=    640
   number of dos      NEDOS =    301   number of ions     NIONS =    256
   non local maximal  LDIM  =      4   non local SUM 2l+1 LMDIM =      8
   total plane-waves  NPLWV = ******
   max r-space proj   IRMAX =      1   max aug-charges    IRDMAX=   8744
   dimension x,y,z NGX =   120 NGY =  120 NGZ =  196
   dimension x,y,z NGXF=   240 NGYF=  240 NGZF=  392
   support grid    NGXF=   240 NGYF=  240 NGZF=  392
   ions per type =              32  32  64 128
   NGX,Y,Z   is equivalent  to a cutoff of  17.72, 17.72, 17.15 a.u.
   NGXF,Y,Z  is equivalent  to a cutoff of  35.44, 35.44, 34.30 a.u.

 SYSTEM =  unknown system                          
 POSCAR =  super cell                              

 Startparameter for this run:
   NWRITE =      2    write-flag & timer
   PREC   = accura    normal or accurate (medium, high low for compatibility)
   ISTART =      1    job   : 0-new  1-cont  2-samecut
   ICHARG =      0    charge: 1-file 2-atom 10-const
   ISPIN  =      1    spin polarized calculation?
   LNONCOLLINEAR =      F non collinear calculations
   LSORBIT =      F    spin-orbit coupling
   INIWAV =      1    electr: 0-lowe 1-rand  2-diag
   LASPH  =      T    aspherical Exc in radial PAW
 Electronic Relaxation 1
   ENCUT  = 1000.0 eV  73.50 Ry    8.57 a.u.  29.03 29.03 48.99*2*pi/ulx,y,z
   ENINI  = 1000.0     initial cutoff
   ENAUG  = 1000.0 eV  augmentation charge cutoff
   NELM   =     60;   NELMIN=  2; NELMDL=  0     # of ELM steps 
   EDIFF  = 0.1E-07   stopping-criterion for ELM
   LREAL  =      F    real-space projection
   NLSPLINE    = F    spline interpolate recip. space projectors
   LCOMPAT=      F    compatible to vasp.4.4
   GGA_COMPAT  = T    GGA compatible to vasp.4.4-vasp.4.6
   LMAXPAW     = -100 max onsite density
   LMAXMIX     =    2 max onsite mixed and CHGCAR
   VOSKOWN=      0    Vosko Wilk Nusair interpolation
   ROPT   =    0.00000   0.00000   0.00000   0.00000
 Ionic relaxation
   EDIFFG = 0.1E-06   stopping-criterion for IOM
   NSW    =      0    number of steps for IOM
   NBLOCK =      1;   KBLOCK =      1    inner block; outer block 
   IBRION =     -1    ionic relax: 0-MD 1-quasi-New 2-CG
   NFREE  =      0    steps in history (QN), initial steepest desc. (CG)
   ISIF   =      1    stress and relaxation
   IWAVPR =     10    prediction:  0-non 1-charg 2-wave 3-comb
   ISYM   =      2    0-nonsym 1-usesym 2-fastsym
   LCORR  =      T    Harris-Foulkes like correction to forces

   POTIM  = 0.5000    time-step for ionic-motion
   TEIN   =    0.0    initial temperature
   TEBEG  =    0.0;   TEEND  =   0.0 temperature during run
   SMASS  =  -3.00    Nose mass-parameter (am)
   estimated Nose-frequenzy (Omega)   =  0.10E-29 period in steps = 0.13E+47 mass=  -0.290E-26a.u.
   SCALEE = 1.0000    scale energy and forces
   NPACO  =    256;   APACO  = 10.0  distance and # of slots for P.C.
   PSTRESS=    0.0 pullay stress

  Mass of Ions in am
   POMASS =  12.01 16.00 14.00  1.00
  Ionic Valenz
   ZVAL   =   4.00  6.00  5.00  1.00
  Atomic Wigner-Seitz radii
   RWIGS  =  -1.00 -1.00 -1.00 -1.00
  virtual crystal weights 
   VCA    =   1.00  1.00  1.00  1.00
   NELECT =     768.0000    total number of electrons
   NUPDOWN=      -1.0000    fix difference up-down

 DOS related values:
   EMIN   =  10.00;   EMAX   =-10.00  energy-range for DOS
   EFERMI =   0.00;   METHOD = LEGACY      
   ISMEAR =     0;   SIGMA  =   0.01  broadening in eV -4-tet -1-fermi 0-gaus

 Electronic relaxation 2 (details)
   IALGO  =     58    algorithm
   LDIAG  =      T    sub-space diagonalisation (order eigenvalues)
   LSUBROT=      F    optimize rotation matrix (better conditioning)
   TURBO    =      0    0=normal 1=particle mesh
   IRESTART =      0    0=no restart 2=restart with 2 vectors
   NREBOOT  =      0    no. of reboots
   NMIN     =      0    reboot dimension
   EREF     =   0.00    reference energy to select bands
   IMIX   =      4    mixing-type and parameters
     AMIX     =   0.40;   BMIX     =  1.00
     AMIX_MAG =   1.60;   BMIX_MAG =  1.00
     AMIN     =   0.10
     WC   =   100.;   INIMIX=   1;  MIXPRE=   1;  MAXMIX= -45

 Intra band minimization:
   WEIMIN = 0.0000     energy-eigenvalue tresh-hold
   EBREAK =  0.39E-11  absolut break condition
   DEPER  =   0.30     relativ break condition  

   TIME   =   0.40     timestep for ELM

  volume/ion in A,a.u.               =       9.41        63.50
  Fermi-wavevector in a.u.,A,eV,Ry     =   1.118377  2.113426 17.017720  1.250767
  Thomas-Fermi vector in A             =   2.255008

 Write flags
   LWAVE        =      T    write WAVECAR
   LDOWNSAMPLE  =      F    k-point downsampling of WAVECAR
   LCHARG       =      T    write CHGCAR
   LVTOT        =      F    write LOCPOT, total local potential
   LVHAR        =      F    write LOCPOT, Hartree potential only
   LELF         =      F    write electronic localiz. function (ELF)
   LORBIT       =      0    0 simple, 1 ext, 2 COOP (PROOUT), +10 PAW based schemes


 Dipole corrections
   LMONO  =      F    monopole corrections only (constant potential shift)
   LDIPOL =      F    correct potential (dipole corrections)
   IDIPOL =      0    1-x, 2-y, 3-z, 4-all directions 
   EPSILON=  1.0000000 bulk dielectric constant

 Exchange correlation treatment:
   GGA     =    ML    GGA type
   LEXCH   =    44    internal setting for exchange type
   LIBXC   =     F    Libxc                    
   VOSKOWN =     0    Vosko Wilk Nusair interpolation
   LHFCALC =     F    Hartree Fock is set to
   LHFONE  =     F    Hartree Fock one center treatment
   AEXX    =    0.0000 exact exchange contribution

 vdW DFT:
   LUSE_VDW   =     T    switch on vdW DFT
   IVDW_NL    =     1    kernel type
   LSPIN_VDW  =     F    use spin-polarized vdW DFT
   Zab_VDW    =******    correlation parameter
   PARAM1     =0.1234
   PARAM2     =1.0000
   PARAM3     =0.0000
   -- rVV10 --
   BPARAM     = 6.3000
   CPARAM     = 0.0093

 Linear response parameters
   LEPSILON=     F    determine dielectric tensor
   LRPA    =     F    only Hartree local field effects (RPA)
   LNABLA  =     F    use nabla operator in PAW spheres
   LVEL    =     F    velocity operator in full k-point grid
   CSHIFT  =0.1000    complex shift for real part using Kramers Kronig
   OMEGAMAX=  -1.0    maximum frequency
   DEG_THRESHOLD= 0.2000000E-02 threshold for treating states as degnerate
   RTIME   =   -0.100 relaxation time in fs
  (WPLASMAI=    0.000 imaginary part of plasma frequency in eV, 0.658/RTIME)
   DFIELD  = 0.0000000 0.0000000 0.0000000 field for delta impulse in time

  Optional k-point grid parameters
   LKPOINTS_OPT  =     F    use optional k-point grid
   KPOINTS_OPT_MODE=     1    mode for optional k-point grid

 Orbital magnetization related:
   ORBITALMAG=     F  switch on orbital magnetization
   LCHIMAG   =     F  perturbation theory with respect to B field
   DQ        =  0.001000  dq finite difference perturbation B field
   LLRAUG    =     F  two centre corrections for induced B field
   LBONE     =     F  B-component reconstruction in AE one-centre
   LVGVCALC  =     T  calculate vGv susceptibility
   LVGVAPPL  =     F  apply vGv susceptibility instead of pGv for G=0

 Random number generation:
   RANDOM_GENERATOR = DEFAULT
   PCG_SEED         = not used


--------------------------------------------------------------------------------------------------------


 Static calculation
 charge density and potential will be updated during run
 non-spin polarized calculation
 Conjugate gradient for all bands (Freysoldt, et al. PRB 79, 241103 (2009))
 preconditioned conjugated gradient                                        
 perform sub-space diagonalisation
    before iterative eigenvector-optimisation
 modified Broyden-mixing scheme, WC =      100.0
 initial mixing is a Kerker type mixing with AMIX =  0.4000 and BMIX =      1.0000
 Hartree-type preconditioning will be used
 using additional bands          256
 reciprocal scheme for non local part
 use partial core corrections
 no Harris-corrections to forces 
 use gradient corrections 
 use of overlap-Matrix (Vanderbilt PP)
 Gauss-broadening in eV      SIGMA  =   0.01


--------------------------------------------------------------------------------------------------------


  energy-cutoff  :     1000.00
  volume of cell :     2408.91
      direct lattice vectors                 reciprocal lattice vectors
    11.259526865  0.000000000  0.000000000     0.088813679  0.000000000  0.000000000
     0.000000000 11.259526865  0.000000000     0.000000000  0.088813679  0.000000000
     0.000000000  0.000000000 19.001187049     0.000000000  0.000000000  0.052628291

  length of vectors
    11.259526865 11.259526865 19.001187049     0.088813679  0.088813679  0.052628291



 old parameters found on file WAVECAR:
  energy-cutoff  :     1000.00
  volume of cell :     2408.91
      direct lattice vectors                 reciprocal lattice vectors
    11.259526865  0.000000000  0.000000000     0.088813679  0.000000000  0.000000000
     0.000000000 11.259526865  0.000000000     0.000000000  0.088813679  0.000000000
     0.000000000  0.000000000 19.001187049     0.000000000  0.000000000  0.052628291

  length of vectors


 k-points in units of 2pi/SCALE and weight: auto                                    
   0.00000000  0.00000000  0.00000000       1.000

 k-points in reciprocal lattice and weights: auto                                    
   0.00000000  0.00000000  0.00000000       1.000

 position of ions in fractional coordinates (direct lattice) 
   0.00000007  0.21356179  0.08107487
   0.50000007  0.21356179  0.08107487
   0.00000007  0.71356179  0.08107487
   0.50000007  0.71356179  0.08107487
   0.00000007  0.21356179  0.33107487
   0.50000007  0.21356179  0.33107487
   0.00000007  0.71356179  0.33107487
   0.50000007  0.71356179  0.33107487
   0.00000007  0.21356179  0.58107487
   0.50000007  0.21356179  0.58107487
   0.00000007  0.71356179  0.58107487
   0.50000007  0.71356179  0.58107487
   0.00000007  0.21356179  0.83107487
   0.50000007  0.21356179  0.83107487
   0.00000007  0.71356179  0.83107487
   0.50000007  0.71356179  0.83107487
   0.24999997  0.46356145  0.16892518
   0.74999997  0.46356145  0.16892518
   0.24999997  0.96356145  0.16892518
   0.74999997  0.96356145  0.16892518
   0.24999997  0.46356145  0.41892518
   0.74999997  0.46356145  0.41892518
   0.24999997  0.96356145  0.41892518
   0.74999997  0.96356145  0.41892518
   0.24999997  0.46356145  0.66892518
   0.74999997  0.46356145  0.66892518
   0.24999997  0.96356145  0.66892518
   0.74999997  0.96356145  0.66892518
   0.24999997  0.46356145  0.91892518
   0.74999997  0.46356145  0.91892518
   0.24999997  0.96356145  0.91892518
   0.74999997  0.96356145  0.91892518
   0.49999993  0.21356168  0.14815695
   0.99999993  0.21356168  0.14815695
   0.49999993  0.71356168  0.14815695
   0.99999993  0.71356168  0.14815695
   0.49999993  0.21356168  0.39815695
   0.99999993  0.21356168  0.39815695
   0.49999993  0.71356168  0.39815695
   0.99999993  0.71356168  0.39815695
   0.49999993  0.21356168  0.64815695
   0.99999993  0.21356168  0.64815695
   0.49999993  0.71356168  0.64815695
   0.99999993  0.71356168  0.64815695
   0.49999993  0.21356168  0.89815695
   0.99999993  0.21356168  0.89815695
   0.49999993  0.71356168  0.89815695
   0.99999993  0.71356168  0.89815695
   0.24999996  0.46356151  0.10184310
   0.74999996  0.46356151  0.10184310
   0.24999996  0.96356151  0.10184310
   0.74999996  0.96356151  0.10184310
   0.24999996  0.46356151  0.35184310
   0.74999996  0.46356151  0.35184310
   0.24999996  0.96356151  0.35184310
   0.74999996  0.96356151  0.35184310
   0.24999996  0.46356151  0.60184310
   0.74999996  0.46356151  0.60184310
   0.24999996  0.96356151  0.60184310
   0.74999996  0.96356151  0.60184310
   0.24999996  0.46356151  0.85184310
   0.74999996  0.46356151  0.85184310
   0.24999996  0.96356151  0.85184310
   0.74999996  0.96356151  0.85184310
   0.07288282  0.28644330  0.04405202
   0.57288282  0.28644330  0.04405202
   0.07288282  0.78644330  0.04405202
   0.57288282  0.78644330  0.04405202
   0.07288282  0.28644330  0.29405202
   0.57288282  0.28644330  0.29405202
   0.07288282  0.78644330  0.29405202
   0.57288282  0.78644330  0.29405202
   0.07288282  0.28644330  0.54405202
   0.57288282  0.28644330  0.54405202
   0.07288282  0.78644330  0.54405202
   0.57288282  0.78644330  0.54405202
   0.07288282  0.28644330  0.79405202
   0.57288282  0.28644330  0.79405202
   0.07288282  0.78644330  0.79405202
   0.57288282  0.78644330  0.79405202
   0.42711723  0.14068023  0.04405209
   0.92711723  0.14068023  0.04405209
   0.42711723  0.64068023  0.04405209
   0.92711723  0.64068023  0.04405209
   0.42711723  0.14068023  0.29405209
   0.92711723  0.14068023  0.29405209
   0.42711723  0.64068023  0.29405209
   0.92711723  0.64068023  0.29405209
   0.42711723  0.14068023  0.54405209
   0.92711723  0.14068023  0.54405209
   0.42711723  0.64068023  0.54405209
   0.92711723  0.64068023  0.54405209
   0.42711723  0.14068023  0.79405209
   0.92711723  0.14068023  0.79405209
   0.42711723  0.64068023  0.79405209
   0.92711723  0.64068023  0.79405209
   0.32288280  0.39067987  0.20594798
   0.82288280  0.39067987  0.20594798
   0.32288280  0.89067987  0.20594798
   0.82288280  0.89067987  0.20594798
   0.32288280  0.39067987  0.45594798
   0.82288280  0.39067987  0.45594798
   0.32288280  0.89067987  0.45594798
   0.82288280  0.89067987  0.45594798
   0.32288280  0.39067987  0.70594798
   0.82288280  0.39067987  0.70594798
   0.32288280  0.89067987  0.70594798
   0.82288280  0.89067987  0.70594798
   0.32288280  0.39067987  0.95594798
   0.82288280  0.39067987  0.95594798
   0.32288280  0.89067987  0.95594798
   0.82288280  0.89067987  0.95594798
   0.17711719  0.03644304  0.20594792
   0.67711719  0.03644304  0.20594792
   0.17711719  0.53644304  0.20594792
   0.67711719  0.53644304  0.20594792
   0.17711719  0.03644304  0.45594792
   0.67711719  0.03644304  0.45594792
   0.17711719  0.53644304  0.45594792
   0.67711719  0.53644304  0.45594792
   0.17711719  0.03644304  0.70594792
   0.67711719  0.03644304  0.70594792
   0.17711719  0.53644304  0.70594792
   0.67711719  0.53644304  0.70594792
   0.17711719  0.03644304  0.95594792
   0.67711719  0.03644304  0.95594792
   0.17711719  0.53644304  0.95594792
   0.67711719  0.53644304  0.95594792
   0.12841977  0.34198231  0.07023243
   0.62841977  0.34198231  0.07023243
   0.12841977  0.84198231  0.07023243
   0.62841977  0.84198231  0.07023243
   0.12841977  0.34198231  0.32023243
   0.62841977  0.34198231  0.32023243
   0.12841977  0.84198231  0.32023243
   0.62841977  0.84198231  0.32023243
   0.12841977  0.34198231  0.57023243
   0.62841977  0.34198231  0.57023243
   0.12841977  0.84198231  0.57023243
   0.62841977  0.84198231  0.57023243
   0.12841977  0.34198231  0.82023243
   0.62841977  0.34198231  0.82023243
   0.12841977  0.84198231  0.82023243
   0.62841977  0.84198231  0.82023243
   0.37158003  0.08514085  0.07023247
   0.87158003  0.08514085  0.07023247
   0.37158003  0.58514085  0.07023247
   0.87158003  0.58514085  0.07023247
   0.37158003  0.08514085  0.32023247
   0.87158003  0.08514085  0.32023247
   0.37158003  0.58514085  0.32023247
   0.87158003  0.58514085  0.32023247
   0.37158003  0.08514085  0.57023247
   0.87158003  0.08514085  0.57023247
   0.37158003  0.58514085  0.57023247
   0.87158003  0.58514085  0.57023247
   0.37158003  0.08514085  0.82023247
   0.87158003  0.08514085  0.82023247
   0.37158003  0.58514085  0.82023247
   0.87158003  0.58514085  0.82023247
   0.37841979  0.33514083  0.17976748
   0.87841979  0.33514083  0.17976748
   0.37841979  0.83514083  0.17976748
   0.87841979  0.83514083  0.17976748
   0.37841979  0.33514083  0.42976748
   0.87841979  0.33514083  0.42976748
   0.37841979  0.83514083  0.42976748
   0.87841979  0.83514083  0.42976748
   0.37841979  0.33514083  0.67976748
   0.87841979  0.33514083  0.67976748
   0.37841979  0.83514083  0.67976748
   0.87841979  0.83514083  0.67976748
   0.37841979  0.33514083  0.92976748
   0.87841979  0.33514083  0.92976748
   0.37841979  0.83514083  0.92976748
   0.87841979  0.83514083  0.92976748
   0.12158012  0.09198226  0.17976747
   0.62158012  0.09198226  0.17976747
   0.12158012  0.59198226  0.17976747
   0.62158012  0.59198226  0.17976747
   0.12158012  0.09198226  0.42976747
   0.62158012  0.09198226  0.42976747
   0.12158012  0.59198226  0.42976747
   0.62158012  0.59198226  0.42976747
   0.12158012  0.09198226  0.67976747
   0.62158012  0.09198226  0.67976747
   0.12158012  0.59198226  0.67976747
   0.62158012  0.59198226  0.67976747
   0.12158012  0.09198226  0.92976747
   0.62158012  0.09198226  0.92976747
   0.12158012  0.59198226  0.92976747
   0.62158012  0.59198226  0.92976747
   0.07286416  0.28642588  0.24015169
   0.57286416  0.28642588  0.24067797
   0.07286416  0.78642588  0.24067797
   0.57286416  0.78642588  0.24067797
   0.07286416  0.28642588  0.49067797
   0.57286416  0.28642588  0.49067797
   0.07286416  0.78642588  0.49067797
   0.57286416  0.78642588  0.49067797
   0.07286416  0.28642588  0.74067797
   0.57286416  0.28642588  0.74067797
   0.07286416  0.78642588  0.74067797
   0.57286416  0.78642588  0.74067797
   0.07286416  0.28642588  0.99067797
   0.57286416  0.28642588  0.99067797
   0.07286416  0.78642588  0.99067797
   0.57286416  0.78642588  0.99067797
   0.42713566  0.14069730  0.24067792
   0.92713566  0.14069730  0.24067792
   0.42713566  0.64069730  0.24067792
   0.92713566  0.64069730  0.24067792
   0.42713566  0.14069730  0.49067792
   0.92713566  0.14069730  0.49067792
   0.42713566  0.64069730  0.49067792
   0.92713566  0.64069730  0.49067792
   0.42713566  0.14069730  0.74067792
   0.92713566  0.14069730  0.74067792
   0.42713566  0.64069730  0.74067792
   0.92713566  0.64069730  0.74067792
   0.42713566  0.14069730  0.99067792
   0.92713566  0.14069730  0.99067792
   0.42713566  0.64069730  0.99067792
   0.92713566  0.64069730  0.99067792
   0.32286423  0.39069721  0.00932206
   0.82286423  0.39069721  0.00932206
   0.32286423  0.89069721  0.00932206
   0.82286423  0.89069721  0.00932206
   0.32286423  0.39069721  0.25932206
   0.82286423  0.39069721  0.25932206
   0.32286423  0.89069721  0.25932206
   0.82286423  0.89069721  0.25932206
   0.32286423  0.39069721  0.50932206
   0.82286423  0.39069721  0.50932206
   0.32286423  0.89069721  0.50932206
   0.82286423  0.89069721  0.50932206
   0.32286423  0.39069721  0.75932206
   0.82286423  0.39069721  0.75932206
   0.32286423  0.89069721  0.75932206
   0.82286423  0.89069721  0.75932206
   0.17713561  0.03642594  0.00932203
   0.67713561  0.03642594  0.00932203
   0.17713561  0.53642594  0.00932203
   0.67713561  0.53642594  0.00932203
   0.17713561  0.03642594  0.25932203
   0.67713561  0.03642594  0.25932203
   0.17713561  0.53642594  0.25932203
   0.67713561  0.53642594  0.25932203
   0.17713561  0.03642594  0.50932203
   0.67713561  0.03642594  0.50932203
   0.17713561  0.53642594  0.50932203
   0.67713561  0.53642594  0.50932203
   0.17713561  0.03642594  0.75932203
   0.67713561  0.03642594  0.75932203
   0.17713561  0.53642594  0.75932203
   0.67713561  0.53642594  0.75932203

 position of ions in cartesian coordinates  (Angst):
   0.00000082  2.40460467  1.54051881
   5.62976425  2.40460467  1.54051881
   0.00000082  8.03436810  1.54051881
   5.62976425  8.03436810  1.54051881
   0.00000082  2.40460467  6.29081557
   5.62976425  2.40460467  6.29081557
   0.00000082  8.03436810  6.29081557
   5.62976425  8.03436810  6.29081557
   0.00000082  2.40460467 11.04111233
   5.62976425  2.40460467 11.04111233
   0.00000082  8.03436810 11.04111233
   5.62976425  8.03436810 11.04111233
   0.00000082  2.40460467 15.79140909
   5.62976425  2.40460467 15.79140909
   0.00000082  8.03436810 15.79140909
   5.62976425  8.03436810 15.79140909
   2.81488132  5.21948266  3.20977889
   8.44464475  5.21948266  3.20977889
   2.81488132 10.84924609  3.20977889
   8.44464475 10.84924609  3.20977889
   2.81488132  5.21948266  7.96007565
   8.44464475  5.21948266  7.96007565
   2.81488132 10.84924609  7.96007565
   8.44464475 10.84924609  7.96007565
   2.81488132  5.21948266 12.71037241
   8.44464475  5.21948266 12.71037241
   2.81488132 10.84924609 12.71037241
   8.44464475 10.84924609 12.71037241
   2.81488132  5.21948266 17.46066917
   8.44464475  5.21948266 17.46066917
   2.81488132 10.84924609 17.46066917
   8.44464475 10.84924609 17.46066917
   5.62976261  2.40460342  2.81515784
  11.25952604  2.40460342  2.81515784
   5.62976261  8.03436685  2.81515784
  11.25952604  8.03436685  2.81515784
   5.62976261  2.40460342  7.56545461
  11.25952604  2.40460342  7.56545461
   5.62976261  8.03436685  7.56545461
  11.25952604  8.03436685  7.56545461
   5.62976261  2.40460342 12.31575137
  11.25952604  2.40460342 12.31575137
   5.62976261  8.03436685 12.31575137
  11.25952604  8.03436685 12.31575137
   5.62976261  2.40460342 17.06604813
  11.25952604  2.40460342 17.06604813
   5.62976261  8.03436685 17.06604813
  11.25952604  8.03436685 17.06604813
   2.81488129  5.21948324  1.93513987
   8.44464472  5.21948324  1.93513987
   2.81488129 10.84924667  1.93513987
   8.44464472 10.84924667  1.93513987
   2.81488129  5.21948324  6.68543663
   8.44464472  5.21948324  6.68543663
   2.81488129 10.84924667  6.68543663
   8.44464472 10.84924667  6.68543663
   2.81488129  5.21948324 11.43573339
   8.44464472  5.21948324 11.43573339
   2.81488129 10.84924667 11.43573339
   8.44464472 10.84924667 11.43573339
   2.81488129  5.21948324 16.18603016
   8.44464472  5.21948324 16.18603016
   2.81488129 10.84924667 16.18603016
   8.44464472 10.84924667 16.18603016
   0.82062605  3.22521603  0.83704061
   6.45038948  3.22521603  0.83704061
   0.82062605  8.85497946  0.83704061
   6.45038948  8.85497946  0.83704061
   0.82062605  3.22521603  5.58733738
   6.45038948  3.22521603  5.58733738
   0.82062605  8.85497946  5.58733738
   6.45038948  8.85497946  5.58733738
   0.82062605  3.22521603 10.33763414
   6.45038948  3.22521603 10.33763414
   0.82062605  8.85497946 10.33763414
   6.45038948  8.85497946 10.33763414
   0.82062605  3.22521603 15.08793090
   6.45038948  3.22521603 15.08793090
   0.82062605  8.85497946 15.08793090
   6.45038948  8.85497946 15.08793090
   4.80913798  1.58399281  0.83704194
  10.43890141  1.58399281  0.83704194
   4.80913798  7.21375624  0.83704194
  10.43890141  7.21375624  0.83704194
   4.80913798  1.58399281  5.58733871
  10.43890141  1.58399281  5.58733871
   4.80913798  7.21375624  5.58733871
  10.43890141  7.21375624  5.58733871
   4.80913798  1.58399281 10.33763547
  10.43890141  1.58399281 10.33763547
   4.80913798  7.21375624 10.33763547
  10.43890141  7.21375624 10.33763547
   4.80913798  1.58399281 15.08793223
  10.43890141  1.58399281 15.08793223
   4.80913798  7.21375624 15.08793223
  10.43890141  7.21375624 15.08793223
   3.63550753  4.39887051  3.91325615
   9.26527096  4.39887051  3.91325615
   3.63550753 10.02863395  3.91325615
   9.26527096 10.02863395  3.91325615
   3.63550753  4.39887051  8.66355291
   9.26527096  4.39887051  8.66355291
   3.63550753 10.02863395  8.66355291
   9.26527096 10.02863395  8.66355291
   3.63550753  4.39887051 13.41384967
   9.26527096  4.39887051 13.41384967
   3.63550753 10.02863395 13.41384967
   9.26527096 10.02863395 13.41384967
   3.63550753  4.39887051 18.16414643
   9.26527096  4.39887051 18.16414643
   3.63550753 10.02863395 18.16414643
   9.26527096 10.02863395 18.16414643
   1.99425579  0.41033142  3.91325493
   7.62401923  0.41033142  3.91325493
   1.99425579  6.04009485  3.91325493
   7.62401923  6.04009485  3.91325493
   1.99425579  0.41033142  8.66355169
   7.62401923  0.41033142  8.66355169
   1.99425579  6.04009485  8.66355169
   7.62401923  6.04009485  8.66355169
   1.99425579  0.41033142 13.41384846
   7.62401923  0.41033142 13.41384846
   1.99425579  6.04009485 13.41384846
   7.62401923  6.04009485 13.41384846
   1.99425579  0.41033142 18.16414522
   7.62401923  0.41033142 18.16414522
   1.99425579  6.04009485 18.16414522
   7.62401923  6.04009485 18.16414522
   1.44594583  3.85055903  1.33449962
   7.07570926  3.85055903  1.33449962
   1.44594583  9.48032246  1.33449962
   7.07570926  9.48032246  1.33449962
   1.44594583  3.85055903  6.08479638
   7.07570926  3.85055903  6.08479638
   1.44594583  9.48032246  6.08479638
   7.07570926  9.48032246  6.08479638
   1.44594583  3.85055903 10.83509314
   7.07570926  3.85055903 10.83509314
   1.44594583  9.48032246 10.83509314
   7.07570926  9.48032246 10.83509314
   1.44594583  3.85055903 15.58538990
   7.07570926  3.85055903 15.58538990
   1.44594583  9.48032246 15.58538990
   7.07570926  9.48032246 15.58538990
   4.18381538  0.95864567  1.33450028
[...]
      5.62976      2.40460     17.06605         0.000071      0.000079     -0.000902
     11.25953      2.40460     17.06605         0.000067      0.000067     -0.000071
      5.62976      8.03437     17.06605         0.000072      0.000072     -0.000969
     11.25953      8.03437     17.06605         0.000079      0.000071     -0.000902
      2.81488      5.21948      1.93514        -0.000507     -0.000507     -0.000026
      8.44464      5.21948      1.93514         0.000225     -0.000056      0.000637
      2.81488     10.84925      1.93514        -0.000056      0.000225      0.000637
      8.44464     10.84925      1.93514         0.000368      0.000368      0.000297
      2.81488      5.21948      6.68544         0.000666      0.000666      0.001670
      8.44464      5.21948      6.68544        -0.000186      0.000222      0.000983
      2.81488     10.84925      6.68544         0.000222     -0.000186      0.000983
      8.44464     10.84925      6.68544        -0.000307     -0.000307      0.001386
      2.81488      5.21948     11.43573         0.000085      0.000085      0.001692
      8.44464      5.21948     11.43573         0.000033      0.000062      0.001619
      2.81488     10.84925     11.43573         0.000062      0.000033      0.001619
      8.44464     10.84925     11.43573         0.000018      0.000018      0.001600
      2.81488      5.21948     16.18603         0.000023      0.000023      0.001600
      8.44464      5.21948     16.18603         0.000120     -0.000026      0.001616
      2.81488     10.84925     16.18603        -0.000026      0.000120      0.001616
      8.44464     10.84925     16.18603         0.000077      0.000077      0.001558
      0.82063      3.22522      0.83704        -0.000560     -0.000560      0.000854
      6.45039      3.22522      0.83704         0.000611      0.000492     -0.001101
      0.82063      8.85498      0.83704         0.000492      0.000611     -0.001101
      6.45039      8.85498      0.83704         0.000535      0.000535     -0.001068
      0.82063      3.22522      5.58734        -0.002343     -0.002343     -0.386313
      6.45039      3.22522      5.58734         0.000486      0.000631     -0.001143
      0.82063      8.85498      5.58734         0.000631      0.000486     -0.001143
      6.45039      8.85498      5.58734         0.000530      0.000530     -0.001118
      0.82063      3.22522     10.33763         0.000417      0.000417     -0.000676
      6.45039      3.22522     10.33763         0.000443      0.000449     -0.000854
      0.82063      8.85498     10.33763         0.000449      0.000443     -0.000854
      6.45039      8.85498     10.33763         0.000465      0.000465     -0.000887
      0.82063      3.22522     15.08793         0.000368      0.000368     -0.000642
      6.45039      3.22522     15.08793         0.000472      0.000456     -0.000859
      0.82063      8.85498     15.08793         0.000456      0.000472     -0.000859
      6.45039      8.85498     15.08793         0.000473      0.000473     -0.000883
      4.80914      1.58399      0.83704        -0.000823     -0.000629     -0.001162
     10.43890      1.58399      0.83704         0.000468      0.000468      0.002163
      4.80914      7.21376      0.83704        -0.000721     -0.000721     -0.001134
     10.43890      7.21376      0.83704        -0.000629     -0.000823     -0.001162
      4.80914      1.58399      5.58734        -0.000465     -0.000751     -0.001152
     10.43890      1.58399      5.58734        -0.004132     -0.004132     -0.001526
      4.80914      7.21376      5.58734        -0.000644     -0.000644     -0.001193
     10.43890      7.21376      5.58734        -0.000751     -0.000465     -0.001152
      4.80914      1.58399     10.33764        -0.000567     -0.000620     -0.000914
     10.43890      1.58399     10.33764        -0.000645     -0.000645     -0.000772
      4.80914      7.21376     10.33764        -0.000577     -0.000577     -0.000929
     10.43890      7.21376     10.33764        -0.000620     -0.000567     -0.000914
      4.80914      1.58399     15.08793        -0.000621     -0.000609     -0.000922
     10.43890      1.58399     15.08793        -0.000521     -0.000521     -0.000705
      4.80914      7.21376     15.08793        -0.000626     -0.000626     -0.000942
     10.43890      7.21376     15.08793        -0.000609     -0.000621     -0.000922
      3.63551      4.39887      3.91326         0.000459     -0.000302      0.000345
      9.26527      4.39887      3.91326         0.000518     -0.000559      0.000487
      3.63551     10.02863      3.91326         0.000355     -0.000360      0.000783
      9.26527     10.02863      3.91326         0.000403     -0.000502      0.000651
      3.63551      4.39887      8.66355         0.000731     -0.000631      0.001237
      9.26527      4.39887      8.66355         0.000245     -0.000297      0.001006
      3.63551     10.02863      8.66355         0.000748     -0.000742      0.001084
      9.26527     10.02863      8.66355         0.000557     -0.000657      0.001112
      3.63551      4.39887     13.41385         0.000609     -0.000631      0.001193
      9.26527      4.39887     13.41385         0.000607     -0.000620      0.001177
      3.63551     10.02863     13.41385         0.000604     -0.000614      0.001170
      9.26527     10.02863     13.41385         0.000611     -0.000606      0.001168
      3.63551      4.39887     18.16415         0.000476     -0.000725      0.001157
      9.26527      4.39887     18.16415         0.000860     -0.000862      0.001249
      3.63551     10.02863     18.16415         0.000445     -0.000460      0.001046
      9.26527     10.02863     18.16415         0.000715     -0.000488      0.001132
      1.99426      0.41033      3.91325        -0.000559      0.000518      0.000487
      7.62402      0.41033      3.91325        -0.000502      0.000403      0.000651
      1.99426      6.04009      3.91325        -0.000302      0.000459      0.000345
      7.62402      6.04009      3.91325        -0.000360      0.000355      0.000783
      1.99426      0.41033      8.66355        -0.000297      0.000245      0.001006
      7.62402      0.41033      8.66355        -0.000657      0.000557      0.001112
      1.99426      6.04009      8.66355        -0.000631      0.000731      0.001237
      7.62402      6.04009      8.66355        -0.000742      0.000748      0.001084
      1.99426      0.41033     13.41385        -0.000620      0.000607      0.001177
      7.62402      0.41033     13.41385        -0.000606      0.000611      0.001168
      1.99426      6.04009     13.41385        -0.000631      0.000609      0.001193
      7.62402      6.04009     13.41385        -0.000614      0.000604      0.001170
      1.99426      0.41033     18.16415        -0.000862      0.000860      0.001249
      7.62402      0.41033     18.16415        -0.000488      0.000715      0.001132
      1.99426      6.04009     18.16415        -0.000725      0.000476      0.001157
      7.62402      6.04009     18.16415        -0.000460      0.000445      0.001046
      1.44595      3.85056      1.33450        -0.000214     -0.000214     -0.000863
      7.07571      3.85056      1.33450        -0.000839     -0.000735     -0.000578
      1.44595      9.48032      1.33450        -0.000735     -0.000839     -0.000578
      7.07571      9.48032      1.33450        -0.000809     -0.000809     -0.000595
      1.44595      3.85056      6.08480         0.000949      0.000949     -0.004207
      7.07571      3.85056      6.08480        -0.000707     -0.000799     -0.000571
      1.44595      9.48032      6.08480        -0.000799     -0.000707     -0.000571
      7.07571      9.48032      6.08480        -0.000727     -0.000727     -0.000554
      1.44595      3.85056     10.83509        -0.000858     -0.000858     -0.000644
      7.07571      3.85056     10.83509        -0.000803     -0.000816     -0.000655
      1.44595      9.48032     10.83509        -0.000816     -0.000803     -0.000655
      7.07571      9.48032     10.83509        -0.000804     -0.000804     -0.000649
      1.44595      3.85056     15.58539        -0.000783     -0.000783     -0.000653
      7.07571      3.85056     15.58539        -0.000829     -0.000815     -0.000649
      1.44595      9.48032     15.58539        -0.000815     -0.000829     -0.000649
      7.07571      9.48032     15.58539        -0.000829     -0.000829     -0.000650
      4.18382      0.95865      1.33450         0.000938      0.000795     -0.000628
      9.81358      0.95865      1.33450         0.000318      0.000318     -0.000480
      4.18382      6.58841      1.33450         0.000923      0.000923     -0.000661
      9.81358      6.58841      1.33450         0.000795      0.000938     -0.000628
      4.18382      0.95865      6.08480         0.000719      0.000969     -0.000628
      9.81358      0.95865      6.08480         0.001209      0.001209     -0.001278
      4.18382      6.58841      6.08480         0.000742      0.000742     -0.000546
      9.81358      6.58841      6.08480         0.000969      0.000719     -0.000628
      4.18382      0.95865     10.83509         0.000884      0.000906     -0.000702
      9.81358      0.95865     10.83509         0.000940      0.000940     -0.000692
      4.18382      6.58841     10.83509         0.000879      0.000879     -0.000704
      9.81358      6.58841     10.83509         0.000906      0.000884     -0.000702
      4.18382      0.95865     15.58539         0.000915      0.000900     -0.000696
      9.81358      0.95865     15.58539         0.000866      0.000866     -0.000698
      4.18382      6.58841     15.58539         0.000916      0.000916     -0.000699
      9.81358      6.58841     15.58539         0.000900      0.000915     -0.000696
      4.26083      3.77353      3.41580        -0.000740      0.000894      0.000656
      9.89059      3.77353      3.41580        -0.002512      0.001705      0.001295
      4.26083      9.40329      3.41580        -0.000859      0.000825      0.000648
      9.89059      9.40329      3.41580        -0.000900      0.000808      0.000699
      4.26083      3.77353      8.16609        -0.000977      0.000835      0.000642
      9.89059      3.77353      8.16609        -0.000411      0.000474      0.000327
      4.26083      9.40329      8.16609        -0.000890      0.000841      0.000679
      9.89059      9.40329      8.16609        -0.000841      0.000854      0.000640
      4.26083      3.77353     12.91639        -0.000826      0.000788      0.000601
      9.89059      3.77353     12.91639        -0.000803      0.000769      0.000576
      4.26083      9.40329     12.91639        -0.000827      0.000789      0.000608
      9.89059      9.40329     12.91639        -0.000819      0.000785      0.000602
      4.26083      3.77353     17.66669        -0.000783      0.000780      0.000605
      9.89059      3.77353     17.66669        -0.000913      0.000877      0.000516
      4.26083      9.40329     17.66669        -0.000817      0.000781      0.000601
      9.89059      9.40329     17.66669        -0.000823      0.000754      0.000603
      1.36893      1.03568      3.41580         0.001705     -0.002512      0.001295
      6.99870      1.03568      3.41580         0.000808     -0.000900      0.000699
      1.36893      6.66544      3.41580         0.000894     -0.000740      0.000656
      6.99870      6.66544      3.41580         0.000825     -0.000859      0.000648
      1.36893      1.03568      8.16609         0.000474     -0.000411      0.000327
      6.99870      1.03568      8.16609         0.000854     -0.000841      0.000640
      1.36893      6.66544      8.16609         0.000835     -0.000977      0.000642
      6.99870      6.66544      8.16609         0.000841     -0.000890      0.000679
      1.36893      1.03568     12.91639         0.000769     -0.000803      0.000576
      6.99870      1.03568     12.91639         0.000785     -0.000819      0.000602
      1.36893      6.66544     12.91639         0.000788     -0.000826      0.000601
      6.99870      6.66544     12.91639         0.000789     -0.000827      0.000608
      1.36893      1.03568     17.66669         0.000877     -0.000913      0.000516
      6.99870      1.03568     17.66669         0.000754     -0.000823      0.000603
      1.36893      6.66544     17.66669         0.000780     -0.000783      0.000605
      6.99870      6.66544     17.66669         0.000781     -0.000817      0.000601
      0.82042      3.22502      4.56317        -0.003281     -0.003281      0.399713
      6.45018      3.22502      4.57317        -0.001481     -0.001497      0.001813
      0.82042      8.85478      4.57317        -0.001497     -0.001481      0.001813
      6.45018      8.85478      4.57317        -0.001488     -0.001488      0.001752
      0.82042      3.22502      9.32346        -0.001566     -0.001566      0.001281
      6.45018      3.22502      9.32346        -0.001489     -0.001489      0.001608
      0.82042      8.85478      9.32346        -0.001489     -0.001489      0.001608
      6.45018      8.85478      9.32346        -0.001487     -0.001487      0.001630
      0.82042      3.22502     14.07376        -0.001526     -0.001526      0.001503
      6.45018      3.22502     14.07376        -0.001505     -0.001502      0.001552
      0.82042      8.85478     14.07376        -0.001502     -0.001505      0.001552
      6.45018      8.85478     14.07376        -0.001501     -0.001501      0.001564
      0.82042      3.22502     18.82406        -0.001605     -0.001605      0.001279
      6.45018      3.22502     18.82406        -0.001518     -0.001482      0.001608
      0.82042      8.85478     18.82406        -0.001482     -0.001518      0.001608
      6.45018      8.85478     18.82406        -0.001501     -0.001501      0.001630
      4.80935      1.58419      4.57317         0.001474      0.001535      0.001924
     10.43911      1.58419      4.57317         0.001114      0.001114      0.004157
      4.80935      7.21395      4.57317         0.001521      0.001521      0.001855
     10.43911      7.21395      4.57317         0.001535      0.001474      0.001924
      4.80935      1.58419      9.32346         0.001484      0.001531      0.001697
     10.43911      1.58419      9.32346         0.001608      0.001608      0.001453
      4.80935      7.21395      9.32346         0.001492      0.001492      0.001720
     10.43911      7.21395      9.32346         0.001531      0.001484      0.001697
      4.80935      1.58419     14.07376         0.001524      0.001524      0.001646
     10.43911      1.58419     14.07376         0.001548      0.001548      0.001595
      4.80935      7.21395     14.07376         0.001520      0.001520      0.001656
     10.43911      7.21395     14.07376         0.001524      0.001524      0.001646
      4.80935      1.58419     18.82406         0.001540      0.001499      0.001697
     10.43911      1.58419     18.82406         0.001819      0.001819      0.001451
      4.80935      7.21395     18.82406         0.001520      0.001520      0.001721
     10.43911      7.21395     18.82406         0.001499      0.001540      0.001697
      3.63530      4.39907      0.17713        -0.001383      0.001580     -0.001686
      9.26506      4.39907      0.17713        -0.001645      0.001635     -0.001687
      3.63530     10.02883      0.17713        -0.001490      0.001492     -0.001653
      9.26506     10.02883      0.17713        -0.001582      0.001399     -0.001654
      3.63530      4.39907      4.92743        -0.001902      0.001301     -0.001376
      9.26506      4.39907      4.92743        -0.000957      0.001250     -0.001375
      3.63530     10.02883      4.92743        -0.001531      0.001539     -0.001513
      9.26506     10.02883      4.92743        -0.001449      0.001619     -0.001512
      3.63530      4.39907      9.67772        -0.001506      0.001459     -0.001806
      9.26506      4.39907      9.67772        -0.001517      0.001523     -0.001805
      3.63530     10.02883      9.67772        -0.001493      0.001495     -0.001763
      9.26506     10.02883      9.67772        -0.001472      0.001508     -0.001763
      3.63530      4.39907     14.42802        -0.001476      0.001492     -0.001780
      9.26506      4.39907     14.42802        -0.001500      0.001501     -0.001780
      3.63530     10.02883     14.42802        -0.001483      0.001484     -0.001774
      9.26506     10.02883     14.42802        -0.001493      0.001479     -0.001774
      1.99446      0.41014      0.17713         0.001635     -0.001645     -0.001687
      7.62423      0.41014      0.17713         0.001399     -0.001582     -0.001654
      1.99446      6.03990      0.17713         0.001580     -0.001383     -0.001686
      7.62423      6.03990      0.17713         0.001492     -0.001490     -0.001653
      1.99446      0.41014      4.92743         0.001250     -0.000957     -0.001375
      7.62423      0.41014      4.92743         0.001619     -0.001449     -0.001512
      1.99446      6.03990      4.92743         0.001301     -0.001902     -0.001376
      7.62423      6.03990      4.92743         0.001539     -0.001531     -0.001513
      1.99446      0.41014      9.67772         0.001523     -0.001517     -0.001805
      7.62423      0.41014      9.67772         0.001508     -0.001472     -0.001763
      1.99446      6.03990      9.67772         0.001459     -0.001506     -0.001806
      7.62423      6.03990      9.67772         0.001495     -0.001493     -0.001763
      1.99446      0.41014     14.42802         0.001501     -0.001500     -0.001780
      7.62423      0.41014     14.42802         0.001479     -0.001493     -0.001774
      1.99446      6.03990     14.42802         0.001492     -0.001476     -0.001780
      7.62423      6.03990     14.42802         0.001484     -0.001483     -0.001774
 -----------------------------------------------------------------------------------
    total drift:                               -0.070519      0.074991      0.000123


--------------------------------------------------------------------------------------------------------



  FREE ENERGIE OF THE ION-ELECTRON SYSTEM (eV)
  ---------------------------------------------------
  free  energy   TOTEN  =     -1369.48831940 eV

  energy  without entropy=    -1369.48831940  energy(sigma->0) =    -1369.48831940



--------------------------------------------------------------------------------------------------------


    POTLOK:  cpu time      2.8245: real time      2.8257


--------------------------------------------------------------------------------------------------------


 writing wavefunctions
     LOOP+:  cpu time    171.0638: real time    171.7130
    4ORBIT:  cpu time      0.0000: real time      0.0000

 total amount of memory used by VASP MPI-rank0   182285. kBytes
=======================================================================

   base      :      30000. kBytes
   nonl-proj :      94142. kBytes
   fftplans  :      17710. kBytes
   grid      :      35082. kBytes
   one-center:         98. kBytes
   wavefun   :       5253. kBytes

  
  
 General timing and accounting informations for this job:
 ========================================================
  
                  Total CPU time used (sec):      273.312
                            User time (sec):      263.962
                          System time (sec):        9.350
                         Elapsed time (sec):      287.959
  
                   Maximum memory used (kb):      517568.
                   Average memory used (kb):          N/A
  
                          Minor page faults:       355493
                          Major page faults:         1164
                 Voluntary context switches:        10162
