       N       E                     dE             d eps       ncg     rms          ort
DAV:   1     0.115213091337E+05    0.11521E+05   -0.86689E+05   768   0.227E+03
DAV:   2    -0.807919303041E+03   -0.12329E+05   -0.11729E+05   768   0.347E+02
DAV:   3    -0.250396500507E+04   -0.16960E+04   -0.16802E+04   768   0.140E+02
DAV:   4    -0.257308007705E+04   -0.69115E+02   -0.68888E+02   768   0.293E+01
DAV:   5    -0.257569437726E+04   -0.26143E+01   -0.26126E+01   768   0.553E+00
SDA:   6    -0.208903950250E+04    0.48665E+03   -0.26126E+01   768   0.948E+03 0.000E+00
CGA:   7    -0.227843357310E+04   -0.18939E+03   -0.18938E+03   768   0.535E+02-0.228E+02
CGA:   8    -0.229850009871E+04   -0.20067E+02   -0.20233E+02   768   0.181E+02-0.112E+01
CGA:   9    -0.230589518649E+04   -0.73951E+01   -0.76198E+01   768   0.545E+01-0.102E+01
CGA:  10    -0.230771761121E+04   -0.18224E+01   -0.18351E+01   768   0.103E+01-0.743E-01
CGA:  11    -0.230809126259E+04   -0.37365E+00   -0.37400E+00   768   0.208E+00-0.230E-02
CGA:  12    -0.230817173342E+04   -0.80471E-01   -0.80528E-01   768   0.450E-01-0.404E-03
CGA:  13    -0.230818976635E+04   -0.18033E-01   -0.18056E-01   768   0.112E-01-0.150E-03
CGA:  14    -0.230819381886E+04   -0.40525E-02   -0.40457E-02   768   0.386E-02 0.611E-04
CGA:  15    -0.230819495976E+04   -0.11409E-02   -0.11395E-02   768   0.120E-02 0.380E-04
CGA:  16    -0.230819539781E+04   -0.43805E-03   -0.43648E-03   768   0.271E-03 0.154E-04
CGA:  17    -0.230819551306E+04   -0.11525E-03   -0.11375E-03   768   0.660E-04 0.991E-05
CGA:  18    -0.230819554205E+04   -0.28990E-04   -0.28752E-04   768   0.211E-04 0.160E-05
CGA:  19    -0.230819555068E+04   -0.86298E-05   -0.88203E-05   768   0.892E-05-0.145E-05
CGA:  20    -0.230819555349E+04   -0.28075E-05   -0.28655E-05   768   0.348E-05-0.954E-06
CGA:  21    -0.230819555470E+04   -0.12068E-05   -0.12709E-05   768   0.126E-05-0.527E-06
CGA:  22    -0.230819555518E+04   -0.48243E-06   -0.54859E-06   768   0.602E-06-0.300E-06
CGA:  23    -0.230819555532E+04   -0.14232E-06   -0.14219E-06   768   0.184E-06 0.354E-07
CGA:  24    -0.230819555535E+04   -0.30908E-07   -0.40332E-07   768   0.783E-07 0.971E-07
CGA:  25    -0.230819555536E+04   -0.77416E-08   -0.14030E-07   768   0.419E-07 0.515E-07
   1 F= -.23081956E+04 E0= -.23081956E+04  d E =-.100088E-45
