 vasp.6.4.1 05Apr23 (build Jun  6 2023 14:46:38) gamma-only                      
 executed on        HPECrayEX_GCC date 2024.10.02  17:37:49
 running  256 mpi-ranks, with    1 threads/rank, on    2 nodes
 distrk:  each k-point on  256 cores,    1 groups
 distr:  one band on NCORE=  64 cores,    4 groups


--------------------------------------------------------------------------------------------------------


 INCAR:
   NPAR = 4
   ISMEAR = 0
   SIGMA = 0.01
   PREC = Accurate
   EDIFF = 1E-7
   ENCUT = 1000
   GGA = ML
   LUSE_VDW = .TRUE.
   ZAB_VDW = -1.8867
   AGGAC = 0.0000
   LASPH = .TRUE.
   SYMPREC = 1E-7
   ALGO = Conjugate
   LWAVE = .FALSE.
   LCHARG = .FALSE.

 POTCAR:    PAW_PBE O_h 06Feb2004                 
 POTCAR:    PAW_PBE N_h 06Feb2004                 
 POTCAR:    PAW_PBE C_h 06Feb2004                 
 POTCAR:    PAW_PBE H_h 06Feb2004                 
 -----------------------------------------------------------------------------
|                                                                             |
|               ----> ADVICE to this user running VASP <----                  |
|                                                                             |
|     You have switched on vdW-DFT.                                           |
|     This routine was written and supplied by Jiri Klimes. We recommend      |
|     that you carefully read and cite the following publications:            |
|       J. Klimes, D.R. Bowler, A. Michelides                                 |
|          J. Phys.: Cond Matt. 22 022201 (2010)                              |
|       J. Klimes, D.R. Bowler, A. Michelides                                 |
|          Phys. Rev. B. 83, 195131 (2011)                                    |
|     and references therein.                                                 |
|                                                                             |
 -----------------------------------------------------------------------------

 POTCAR:    PAW_PBE O_h 06Feb2004                 
   VRHFIN =O: s2p4                                                                                  
   LEXCH  = PE                                                                                      
   EATOM  =   432.3788 eV,   31.7789 Ry                                                             
                                                                                                    
   TITEL  = PAW_PBE O_h 06Feb2004                                                                   
   LULTRA =        F    use ultrasoft PP ?                                                          
   IUNSCR =        1    unscreen: 0-lin 1-nonlin 2-no                                               
   RPACOR =    0.800    partial core radius                                                         
   POMASS =   16.000; ZVAL   =    6.000    mass and valenz                                          
   RCORE  =    1.100    outmost cutoff radius                                                       
   RWIGS  =    1.400; RWIGS  =    0.741    wigner-seitz radius (au A)                               
   ENMAX  =  700.000; ENMIN  =  500.000 eV                                                          
   ICORE  =        2    local potential                                                             
   LCOR   =        T    correct aug charges                                                         
   LPAW   =        T    paw PP                                                                      
   EAUG   =  888.804                                                                                
   DEXC   =    0.000                                                                                
   RMAX   =    1.128    core radius for proj-oper                                                   
   RAUG   =    1.300    factor for augmentation sphere                                              
   RDEP   =    1.125    radius for radial grids                                                     
   RDEPT  =    1.088    core radius for aug-charge                                                  
                                                                                                    
   Atomic configuration                                                                             
    4 entries                                                                                       
     n  l   j            E        occ.                                                              
     1  0  0.50      -514.6923   2.0000                                                             
     2  0  0.50       -23.9615   2.0000                                                             
     2  1  0.50        -9.0305   4.0000                                                             
     3  2  1.50        -9.5241   0.0000                                                             
   Description                                                                                      
     l       E           TYP  RCUT    TYP  RCUT                                                     
     0    -23.9615319     23  1.100                                                                 
     0    -25.3221145     23  1.100                                                                 
     1     -9.0304911     23  1.100                                                                 
     1     -5.4802209     23  1.100                                                                 
     2     -9.5240782      7  1.100                                                                 
  local pseudopotential read in
  partial core-charges read in
  partial kinetic energy density read in
  atomic valenz-charges read in
  non local Contribution for L=           0  read in
    real space projection operators read in
  non local Contribution for L=           0  read in
    real space projection operators read in
  non local Contribution for L=           1  read in
    real space projection operators read in
  non local Contribution for L=           1  read in
    real space projection operators read in
    PAW grid and wavefunctions read in

   number of l-projection  operators is LMAX  =           4
   number of lm-projection operators is LMMAX =           8

 POTCAR:    PAW_PBE N_h 06Feb2004                 
   VRHFIN =N: s2p3                                                                                  
   LEXCH  = PE                                                                                      
   EATOM  =   264.5486 eV,   19.4438 Ry                                                             
                                                                                                    
   TITEL  = PAW_PBE N_h 06Feb2004                                                                   
   LULTRA =        F    use ultrasoft PP ?                                                          
   IUNSCR =        1    unscreen: 0-lin 1-nonlin 2-no                                               
   RPACOR =    0.800    partial core radius                                                         
   POMASS =   14.001; ZVAL   =    5.000    mass and valenz                                          
   RCORE  =    1.100    outmost cutoff radius                                                       
   RWIGS  =    1.480; RWIGS  =    0.783    wigner-seitz radius (au A)                               
   ENMAX  =  700.000; ENMIN  =  500.000 eV                                                          
   ICORE  =        2    local potential                                                             
   LCOR   =        T    correct aug charges                                                         
   LPAW   =        T    paw PP                                                                      
   EAUG   =  904.640                                                                                
   DEXC   =    0.000                                                                                
   RMAX   =    1.127    core radius for proj-oper                                                   
   RAUG   =    1.300    factor for augmentation sphere                                              
   RDEP   =    1.115    radius for radial grids                                                     
   RDEPT  =    1.106    core radius for aug-charge                                                  
                                                                                                    
   Atomic configuration                                                                             
    4 entries                                                                                       
     n  l   j            E        occ.                                                              
     1  0  0.50      -384.7179   2.0000                                                             
     2  0  0.50       -18.5828   2.0000                                                             
     2  1  0.50        -7.0898   3.0000                                                             
     3  2  1.50        -6.8029   0.0000                                                             
   Description                                                                                      
     l       E           TYP  RCUT    TYP  RCUT                                                     
     0    -18.5828117     23  1.100                                                                 
     0    -15.0750597     23  1.100                                                                 
     1     -7.0897851     23  1.100                                                                 
     1     -1.9663412     23  1.100                                                                 
     2     -6.8029130      7  1.100                                                                 
  local pseudopotential read in
  partial core-charges read in
  partial kinetic energy density read in
  kinetic energy density of atom read in
  atomic valenz-charges read in
  non local Contribution for L=           0  read in
    real space projection operators read in
  non local Contribution for L=           0  read in
    real space projection operators read in
  non local Contribution for L=           1  read in
    real space projection operators read in
  non local Contribution for L=           1  read in
    real space projection operators read in
    PAW grid and wavefunctions read in

   number of l-projection  operators is LMAX  =           4
   number of lm-projection operators is LMMAX =           8

 POTCAR:    PAW_PBE C_h 06Feb2004                 
   VRHFIN =C: s2p2                                                                                  
   LEXCH  = PE                                                                                      
   EATOM  =   147.1560 eV,   10.8157 Ry                                                             
                                                                                                    
   TITEL  = PAW_PBE C_h 06Feb2004                                                                   
   LULTRA =        F    use ultrasoft PP ?                                                          
   IUNSCR =        1    unscreen: 0-lin 1-nonlin 2-no                                               
   RPACOR =    0.800    partial core radius                                                         
   POMASS =   12.011; ZVAL   =    4.000    mass and valenz                                          
   RCORE  =    1.100    outmost cutoff radius                                                       
   RWIGS  =    1.630; RWIGS  =    0.863    wigner-seitz radius (au A)                               
   ENMAX  =  700.000; ENMIN  =  500.000 eV                                                          
   ICORE  =        2    local potential                                                             
   LCOR   =        T    correct aug charges                                                         
   LPAW   =        T    paw PP                                                                      
   EAUG   =  946.768                                                                                
   DEXC   =    0.000                                                                                
   RMAX   =    1.128    core radius for proj-oper                                                   
   RAUG   =    1.300    factor for augmentation sphere                                              
   RDEP   =    1.162    radius for radial grids                                                     
   RDEPT  =    1.088    core radius for aug-charge                                                  
                                                                                                    
   Atomic configuration                                                                             
    4 entries                                                                                       
     n  l   j            E        occ.                                                              
     1  0  0.50      -273.3789   2.0000                                                             
     2  0  0.50       -13.7508   2.0000                                                             
     2  1  0.50        -5.2854   2.0000                                                             
     3  2  1.50        -5.4423   0.0000                                                             
   Description                                                                                      
     l       E           TYP  RCUT    TYP  RCUT                                                     
     0    -13.7508458     23  1.100                                                                 
     0     -8.2022199     23  1.100                                                                 
     1     -5.2854383     23  1.100                                                                 
     1      1.1560700     23  1.100                                                                 
     2     -5.4423304      7  1.100                                                                 
  local pseudopotential read in
  partial core-charges read in
  partial kinetic energy density read in
  atomic valenz-charges read in
  non local Contribution for L=           0  read in
    real space projection operators read in
  non local Contribution for L=           0  read in
    real space projection operators read in
  non local Contribution for L=           1  read in
    real space projection operators read in
  non local Contribution for L=           1  read in
    real space projection operators read in
    PAW grid and wavefunctions read in

   number of l-projection  operators is LMAX  =           4
   number of lm-projection operators is LMMAX =           8

 POTCAR:    PAW_PBE H_h 06Feb2004                 
   VRHFIN =H: ultrasoft test                                                                        
   LEXCH  = PE                                                                                      
   EATOM  =    12.4884 eV,    0.9179 Ry                                                             
                                                                                                    
   TITEL  = PAW_PBE H_h 06Feb2004                                                                   
   LULTRA =        F    use ultrasoft PP ?                                                          
   IUNSCR =        0    unscreen: 0-lin 1-nonlin 2-no                                               
   RPACOR =    0.000    partial core radius                                                         
   POMASS =    1.000; ZVAL   =    1.000    mass and valenz                                          
   RCORE  =    0.800    outmost cutoff radius                                                       
   RWIGS  =    0.700; RWIGS  =    0.370    wigner-seitz radius (au A)                               
   ENMAX  =  700.000; ENMIN  =  350.000 eV                                                          
   RCLOC  =    0.701    cutoff for local pot                                                        
   LCOR   =        T    correct aug charges                                                         
   LPAW   =        T    paw PP                                                                      
   EAUG   = 1000.000                                                                                
   RMAX   =    0.819    core radius for proj-oper                                                   
   RAUG   =    1.000    factor for augmentation sphere                                              
   RDEP   =    0.817    radius for radial grids                                                     
   RDEPT  =    0.817    core radius for aug-charge                                                  
                                                                                                    
   Atomic configuration                                                                             
    2 entries                                                                                       
     n  l   j            E        occ.                                                              
     1  0  0.50        -6.4927   1.0000                                                             
     2  1  0.50        -3.4015   0.0000                                                             
   Description                                                                                      
     l       E           TYP  RCUT    TYP  RCUT                                                     
     0     -6.4927493     23  0.800                                                                 
     0      6.8029130     23  0.800                                                                 
     1     -6.8029130     23  0.800                                                                 
  local pseudopotential read in
  atomic valenz-charges read in
  non local Contribution for L=           0  read in
    real space projection operators read in
  non local Contribution for L=           0  read in
    real space projection operators read in
  non local Contribution for L=           1  read in
    real space projection operators read in
    PAW grid and wavefunctions read in

   number of l-projection  operators is LMAX  =           3
   number of lm-projection operators is LMMAX =           5

 -----------------------------------------------------------------------------
|                                                                             |
|               ----> ADVICE to this user running VASP <----                  |
|                                                                             |
|     You have a (more or less) 'large supercell' and for larger cells it     |
|     might be more efficient to use real-space projection operators.         |
|     Therefore, try LREAL= Auto in the INCAR file.                           |
|     Mind: For very accurate calculation, you might also keep the            |
|     reciprocal projection scheme (i.e. LREAL=.FALSE.).                      |
|                                                                             |
 -----------------------------------------------------------------------------

 -----------------------------------------------------------------------------
|                                                                             |
|               ----> ADVICE to this user running VASP <----                  |
|                                                                             |
|     You enforced a specific xc type in the INCAR file but a different       |
|     type was found in the POTCAR file.                                      |
|     I HOPE YOU KNOW WHAT YOU ARE DOING!                                     |
|                                                                             |
 -----------------------------------------------------------------------------

  PAW_PBE O_h 06Feb2004                 :
 energy of atom  1       EATOM= -432.3788
 kinetic energy error for atom=    0.0171 (will be added to EATOM!!)
  PAW_PBE N_h 06Feb2004                 :
 energy of atom  2       EATOM= -264.5486
 kinetic energy error for atom=    0.0081 (will be added to EATOM!!)
  PAW_PBE C_h 06Feb2004                 :
 energy of atom  3       EATOM= -147.1560
 kinetic energy error for atom=    0.0031 (will be added to EATOM!!)
  PAW_PBE H_h 06Feb2004                 :
 energy of atom  4       EATOM=  -12.4884
 kinetic energy error for atom=    0.0006 (will be added to EATOM!!)


 POSCAR:  O  N  C  H
  positions in direct lattice
  No initial velocities read in
 exchange correlation table for  LEXCH =       44
   RHO(1)=    0.500       N(1)  =     2000
   RHO(2)=  100.500       N(2)  =     4000

 VTST: version 4.1, (05/19/21)

 CHAIN: initializing optimizer
 
 OPT: Using VASP Dynamics algorithm
 CHAIN: Read ICHAIN            0

 POSCAR:  O  N  C  H
  positions in direct lattice
  No initial velocities read in



--------------------------------------------------------------------------------------------------------


 ion  position               nearest neighbor table
   1  0.079  0.460  0.219- 177 0.99  97 1.39
   2  0.579  0.460  0.219- 178 0.99  98 1.39
   3  0.079  0.960  0.219- 179 0.99  99 1.39
   4  0.579  0.960  0.219- 180 0.99 100 1.39
   5  0.171  0.210  0.281- 181 0.99 101 1.39
   6  0.671  0.210  0.281- 182 0.99 102 1.39
   7  0.171  0.710  0.281- 183 0.99 103 1.39
   8  0.671  0.710  0.281- 184 0.99 104 1.39
   9  0.421  0.040  0.781- 185 0.99 105 1.39
  10  0.921  0.040  0.781- 186 0.99 106 1.39
  11  0.421  0.540  0.781- 187 0.99 107 1.39
  12  0.921  0.540  0.781- 188 0.99 108 1.39
  13  0.329  0.290  0.719- 189 0.99 109 1.39
  14  0.829  0.290  0.719- 190 0.99 110 1.39
  15  0.329  0.790  0.719- 191 0.99 111 1.39
  16  0.829  0.790  0.719- 192 0.99 112 1.39
  17  0.173  0.245  0.808- 145 1.25
  18  0.673  0.245  0.808- 146 1.25
  19  0.173  0.745  0.808- 147 1.25
  20  0.673  0.745  0.808- 148 1.25
  21  0.077  0.495  0.692- 149 1.25
  22  0.577  0.495  0.692- 150 1.25
  23  0.077  0.995  0.692- 151 1.25
  24  0.577  0.995  0.692- 152 1.25
  25  0.327  0.255  0.192- 153 1.25
  26  0.827  0.255  0.192- 154 1.25
  27  0.327  0.755  0.192- 155 1.25
  28  0.827  0.755  0.192- 156 1.25
  29  0.423  0.005  0.308- 157 1.25
  30  0.923  0.005  0.308- 158 1.25
  31  0.423  0.505  0.308- 159 1.25
  32  0.923  0.505  0.308- 160 1.25
  33  0.024  0.280  0.839- 258 1.02 145 1.36  49 1.43
  34  0.524  0.280  0.839- 257 1.02 146 1.36  50 1.43
  35  0.024  0.780  0.839- 260 1.02 147 1.36  51 1.43
  36  0.524  0.780  0.839- 259 1.02 148 1.36  52 1.43
  37  0.226  0.030  0.661- 261 1.02 151 1.36  53 1.43
  38  0.726  0.030  0.661- 262 1.02 152 1.36  54 1.43
  39  0.226  0.530  0.661- 263 1.02 149 1.36  55 1.43
  40  0.726  0.530  0.661- 264 1.02 150 1.36  56 1.43
  41  0.476  0.220  0.161- 266 1.02 153 1.36  57 1.43
  42  0.976  0.220  0.161- 265 1.02 154 1.36  58 1.43
  43  0.476  0.720  0.161- 268 1.02 155 1.36  59 1.43
  44  0.976  0.720  0.161- 267 1.02 156 1.36  60 1.43
  45  0.274  0.470  0.339- 269 1.02 159 1.36  61 1.43
  46  0.774  0.470  0.339- 270 1.02 160 1.36  62 1.43
  47  0.274  0.970  0.339- 271 1.02 157 1.36  63 1.43
  48  0.774  0.970  0.339- 272 1.02 158 1.36  64 1.43
  49  0.042  0.324  0.936-  65 1.40 130 1.41  33 1.43
  50  0.542  0.324  0.936-  66 1.40 129 1.41  34 1.43
  51  0.042  0.824  0.936-  67 1.40 132 1.41  35 1.43
  52  0.542  0.824  0.936-  68 1.40 131 1.41  36 1.43
  53  0.208  0.074  0.564-  69 1.40 133 1.41  37 1.43
  54  0.708  0.074  0.564-  70 1.40 134 1.41  38 1.43
  55  0.208  0.574  0.564-  71 1.40 135 1.41  39 1.43
  56  0.708  0.574  0.564-  72 1.40 136 1.41  40 1.43
  57  0.458  0.176  0.064-  73 1.40 138 1.41  41 1.43
  58  0.958  0.176  0.064-  74 1.40 137 1.41  42 1.43
  59  0.458  0.676  0.064-  75 1.40 140 1.41  43 1.43
  60  0.958  0.676  0.064-  76 1.40 139 1.41  44 1.43
  61  0.292  0.426  0.436-  77 1.40 141 1.41  45 1.43
  62  0.792  0.426  0.436-  78 1.40 142 1.41  46 1.43
  63  0.292  0.926  0.436-  79 1.40 143 1.41  47 1.43
  64  0.792  0.926  0.436-  80 1.40 144 1.41  48 1.43
  65  0.128  0.325  0.007- 193 1.08  81 1.40  49 1.40
  66  0.628  0.325  0.007- 194 1.08  82 1.40  50 1.40
  67  0.128  0.825  0.007- 195 1.08  83 1.40  51 1.40
  68  0.628  0.825  0.007- 196 1.08  84 1.40  52 1.40
  69  0.122  0.075  0.493- 197 1.08  85 1.40  53 1.40
  70  0.622  0.075  0.493- 198 1.08  86 1.40  54 1.40
  71  0.122  0.575  0.493- 199 1.08  87 1.40  55 1.40
  72  0.622  0.575  0.493- 200 1.08  88 1.40  56 1.40
  73  0.372  0.175  0.993- 201 1.08  89 1.40  57 1.40
  74  0.872  0.175  0.993- 202 1.08  90 1.40  58 1.40
  75  0.372  0.675  0.993- 203 1.08  91 1.40  59 1.40
  76  0.872  0.675  0.993- 204 1.08  92 1.40  60 1.40
  77  0.378  0.425  0.507- 205 1.08  93 1.40  61 1.40
  78  0.878  0.425  0.507- 206 1.08  94 1.40  62 1.40
  79  0.378  0.925  0.507- 207 1.08  95 1.40  63 1.40
  80  0.878  0.925  0.507- 208 1.08  96 1.40  64 1.40
  81  0.139  0.370  0.101- 209 1.08  65 1.40  97 1.40
  82  0.639  0.370  0.101- 210 1.08  66 1.40  98 1.40
  83  0.139  0.870  0.101- 211 1.08  67 1.40  99 1.40
  84  0.639  0.870  0.101- 212 1.08  68 1.40 100 1.40
  85  0.111  0.120  0.399- 213 1.08  69 1.40 101 1.40
  86  0.611  0.120  0.399- 214 1.08  70 1.40 102 1.40
  87  0.111  0.620  0.399- 215 1.08  71 1.40 103 1.40
  88  0.611  0.620  0.399- 216 1.08  72 1.40 104 1.40
  89  0.361  0.130  0.899- 217 1.08  73 1.40 105 1.40
  90  0.861  0.130  0.899- 218 1.08  74 1.40 106 1.40
  91  0.361  0.630  0.899- 219 1.08  75 1.40 107 1.40
  92  0.861  0.630  0.899- 220 1.08  76 1.40 108 1.40
  93  0.389  0.380  0.601- 221 1.08  77 1.40 109 1.40
  94  0.889  0.380  0.601- 222 1.08  78 1.40 110 1.40
  95  0.389  0.880  0.601- 223 1.08  79 1.40 111 1.40
  96  0.889  0.880  0.601- 224 1.08  80 1.40 112 1.40
  97  0.064  0.415  0.125-   1 1.39  81 1.40 114 1.40
  98  0.564  0.415  0.125-   2 1.39 113 1.39  82 1.40
  99  0.064  0.915  0.125-   3 1.39  83 1.40 116 1.40
 100  0.564  0.915  0.125-   4 1.39  84 1.40 115 1.40
 101  0.186  0.165  0.375-   5 1.39  85 1.40 117 1.40
 102  0.686  0.165  0.375-   6 1.39  86 1.40 118 1.40
 103  0.186  0.665  0.375-   7 1.39  87 1.40 119 1.40
 104  0.686  0.665  0.375-   8 1.39  88 1.40 120 1.40
 105  0.436  0.085  0.875-   9 1.39  89 1.40 122 1.40
 106  0.936  0.085  0.875-  10 1.39  90 1.40 121 1.40
 107  0.436  0.585  0.875-  11 1.39  91 1.40 124 1.40
 108  0.936  0.585  0.875-  12 1.39  92 1.40 123 1.40
 109  0.314  0.335  0.625-  13 1.39  93 1.40 125 1.40
 110  0.814  0.335  0.625-  14 1.39  94 1.40 126 1.40
 111  0.314  0.835  0.625-  15 1.39  95 1.40 127 1.40
 112  0.814  0.835  0.625-  16 1.39  96 1.40 128 1.40
 113  0.478  0.414  0.056- 225 1.09 129 1.39  98 1.39
 114  0.978  0.414  0.056- 226 1.08 130 1.39  97 1.40
 115  0.478  0.914  0.056- 227 1.08 131 1.39 100 1.40
 116  0.978  0.914  0.056- 228 1.08 132 1.39  99 1.40
 117  0.272  0.164  0.444- 229 1.08 133 1.39 101 1.40
 118  0.772  0.164  0.444- 230 1.08 134 1.39 102 1.40
 119  0.272  0.664  0.444- 231 1.08 135 1.39 103 1.40
 120  0.772  0.664  0.444- 232 1.08 136 1.39 104 1.40
 121  0.022  0.086  0.944- 233 1.08 137 1.39 106 1.40
 122  0.522  0.086  0.944- 234 1.08 138 1.39 105 1.40
 123  0.022  0.586  0.944- 235 1.08 139 1.39 108 1.40
 124  0.522  0.586  0.944- 236 1.08 140 1.39 107 1.40
 125  0.228  0.336  0.556- 237 1.08 141 1.39 109 1.40
 126  0.728  0.336  0.556- 238 1.08 142 1.39 110 1.40
 127  0.228  0.836  0.556- 239 1.08 143 1.39 111 1.40
 128  0.728  0.836  0.556- 240 1.08 144 1.39 112 1.40
 129  0.467  0.369  0.962- 241 1.08 113 1.39  50 1.41
 130  0.967  0.369  0.962- 242 1.08 114 1.39  49 1.41
 131  0.467  0.869  0.962- 243 1.08 115 1.39  52 1.41
 132  0.967  0.869  0.962- 244 1.08 116 1.39  51 1.41
 133  0.283  0.119  0.538- 245 1.08 117 1.39  53 1.41
 134  0.783  0.119  0.538- 246 1.08 118 1.39  54 1.41
 135  0.283  0.619  0.538- 247 1.08 119 1.39  55 1.41
 136  0.783  0.619  0.538- 248 1.08 120 1.39  56 1.41
 137  0.033  0.131  0.038- 249 1.08 121 1.39  58 1.41
 138  0.533  0.131  0.038- 250 1.08 122 1.39  57 1.41
 139  0.033  0.631  0.038- 251 1.08 123 1.39  60 1.41
 140  0.533  0.631  0.038- 252 1.08 124 1.39  59 1.41
 141  0.217  0.381  0.462- 253 1.08 125 1.39  61 1.41
 142  0.717  0.381  0.462- 254 1.08 126 1.39  62 1.41
 143  0.217  0.881  0.462- 255 1.08 127 1.39  63 1.41
 144  0.717  0.881  0.462- 256 1.08 128 1.39  64 1.41
 145  0.086  0.244  0.781-  17 1.25  33 1.36 161 1.52
 146  0.586  0.244  0.781-  18 1.25  34 1.36 162 1.52
 147  0.086  0.744  0.781-  19 1.25  35 1.36 163 1.52
 148  0.586  0.744  0.781-  20 1.25  36 1.36 164 1.52
 149  0.164  0.494  0.719-  21 1.25  39 1.36 165 1.52
 150  0.664  0.494  0.719-  22 1.25  40 1.36 166 1.52
 151  0.164  0.994  0.719-  23 1.25  37 1.36 167 1.52
 152  0.664  0.994  0.719-  24 1.25  38 1.36 168 1.52
 153  0.414  0.256  0.219-  25 1.25  41 1.36 169 1.52
 154  0.914  0.256  0.219-  26 1.25  42 1.36 170 1.52
 155  0.414  0.756  0.219-  27 1.25  43 1.36 171 1.52
 156  0.914  0.756  0.219-  28 1.25  44 1.36 172 1.52
 157  0.336  0.006  0.281-  29 1.25  47 1.36 173 1.52
 158  0.836  0.006  0.281-  30 1.25  48 1.36 174 1.52
 159  0.336  0.506  0.281-  31 1.25  45 1.36 175 1.52
 160  0.836  0.506  0.281-  32 1.25  46 1.36 176 1.52
 161  0.041  0.200  0.681- 306 1.09 273 1.09 289 1.09 145 1.52
 162  0.541  0.200  0.681- 305 1.09 274 1.09 290 1.09 146 1.52
 163  0.041  0.700  0.681- 308 1.09 275 1.09 291 1.09 147 1.52
 164  0.541  0.700  0.681- 307 1.09 276 1.09 292 1.09 148 1.52
 165  0.209  0.450  0.819- 309 1.09 277 1.09 293 1.09 149 1.52
 166  0.709  0.450  0.819- 310 1.09 278 1.09 294 1.09 150 1.52
 167  0.209  0.950  0.819- 311 1.09 279 1.09 295 1.09 151 1.52
 168  0.709  0.950  0.819- 312 1.09 280 1.09 296 1.09 152 1.52
 169  0.459  0.300  0.319- 314 1.09 281 1.09 297 1.09 153 1.52
 170  0.959  0.300  0.319- 313 1.09 282 1.09 298 1.09 154 1.52
 171  0.459  0.800  0.319- 316 1.09 283 1.09 299 1.09 155 1.52
 172  0.959  0.800  0.319- 315 1.09 284 1.09 300 1.09 156 1.52
 173  0.291  0.050  0.181- 317 1.09 285 1.09 301 1.09 157 1.52
 174  0.791  0.050  0.181- 318 1.09 286 1.09 302 1.09 158 1.52
 175  0.291  0.550  0.181- 319 1.09 287 1.09 303 1.09 159 1.52
 176  0.791  0.550  0.181- 320 1.09 288 1.09 304 1.09 160 1.52
 177  0.020  0.481  0.238-   1 0.99
 178  0.520  0.481  0.238-   2 0.99
 179  0.020  0.981  0.238-   3 0.99
 180  0.520  0.981  0.238-   4 0.99
 181  0.230  0.231  0.262-   5 0.99
 182  0.730  0.231  0.262-   6 0.99
 183  0.230  0.731  0.262-   7 0.99
 184  0.730  0.731  0.262-   8 0.99
 185  0.480  0.019  0.762-   9 0.99
 186  0.980  0.019  0.762-  10 0.99
 187  0.480  0.519  0.762-  11 0.99
 188  0.980  0.519  0.762-  12 0.99
 189  0.270  0.269  0.738-  13 0.99
 190  0.770  0.269  0.738-  14 0.99
 191  0.270  0.769  0.738-  15 0.99
 192  0.770  0.769  0.738-  16 0.99
 193  0.186  0.291  0.989-  65 1.08
 194  0.686  0.291  0.989-  66 1.08
 195  0.186  0.791  0.989-  67 1.08
 196  0.686  0.791  0.989-  68 1.08
 197  0.064  0.041  0.511-  69 1.08
 198  0.564  0.041  0.511-  70 1.08
 199  0.064  0.541  0.511-  71 1.08
 200  0.564  0.541  0.511-  72 1.08
 201  0.314  0.209  0.011-  73 1.08
 202  0.814  0.209  0.011-  74 1.08
 203  0.314  0.709  0.011-  75 1.08
 204  0.814  0.709  0.011-  76 1.08
 205  0.436  0.459  0.489-  77 1.08
 206  0.936  0.459  0.489-  78 1.08
 207  0.436  0.959  0.489-  79 1.08
 208  0.936  0.959  0.489-  80 1.08
 209  0.205  0.370  0.156-  81 1.08
 210  0.705  0.370  0.156-  82 1.08
 211  0.205  0.870  0.156-  83 1.08
 212  0.705  0.870  0.156-  84 1.08
 213  0.045  0.120  0.344-  85 1.08
 214  0.545  0.120  0.344-  86 1.08
 215  0.045  0.620  0.344-  87 1.08
 216  0.545  0.620  0.344-  88 1.08
 217  0.295  0.130  0.844-  89 1.08
 218  0.795  0.130  0.844-  90 1.08
 219  0.295  0.630  0.844-  91 1.08
 220  0.795  0.630  0.844-  92 1.08
 221  0.455  0.380  0.656-  93 1.08
 222  0.955  0.380  0.656-  94 1.08
 223  0.455  0.880  0.656-  95 1.08
 224  0.955  0.880  0.656-  96 1.08
 225  0.420  0.448  0.074- 113 1.09
 226  0.920  0.448  0.074- 114 1.08
 227  0.420  0.948  0.074- 115 1.08
 228  0.920  0.948  0.074- 116 1.08
 229  0.330  0.198  0.426- 117 1.08
 230  0.830  0.198  0.426- 118 1.08
 231  0.330  0.698  0.426- 119 1.08
 232  0.830  0.698  0.426- 120 1.08
 233  0.080  0.052  0.926- 121 1.08
 234  0.580  0.052  0.926- 122 1.08
 235  0.080  0.552  0.926- 123 1.08
 236  0.580  0.552  0.926- 124 1.08
 237  0.170  0.302  0.574- 125 1.08
 238  0.670  0.302  0.574- 126 1.08
 239  0.170  0.802  0.574- 127 1.08
 240  0.670  0.802  0.574- 128 1.08
 241  0.400  0.368  0.908- 129 1.08
 242  0.900  0.368  0.908- 130 1.08
 243  0.400  0.868  0.908- 131 1.08
 244  0.900  0.868  0.908- 132 1.08
 245  0.350  0.118  0.592- 133 1.08
 246  0.850  0.118  0.592- 134 1.08
 247  0.350  0.618  0.592- 135 1.08
 248  0.850  0.618  0.592- 136 1.08
 249  0.100  0.132  0.092- 137 1.08
 250  0.600  0.132  0.092- 138 1.08
 251  0.100  0.632  0.092- 139 1.08
 252  0.600  0.632  0.092- 140 1.08
 253  0.150  0.382  0.408- 141 1.08
 254  0.650  0.382  0.408- 142 1.08
 255  0.150  0.882  0.408- 143 1.08
 256  0.650  0.882  0.408- 144 1.08
 257  0.455  0.277  0.806-  34 1.02
 258  0.955  0.277  0.806-  33 1.02
 259  0.455  0.777  0.806-  36 1.02
 260  0.955  0.777  0.806-  35 1.02
 261  0.295  0.027  0.694-  37 1.02
 262  0.795  0.027  0.694-  38 1.02
 263  0.295  0.527  0.694-  39 1.02
 264  0.795  0.527  0.694-  40 1.02
 265  0.045  0.223  0.194-  42 1.02
 266  0.545  0.223  0.194-  41 1.02
 267  0.045  0.723  0.194-  44 1.02
 268  0.545  0.723  0.194-  43 1.02
 269  0.205  0.473  0.306-  45 1.02
 270  0.705  0.473  0.306-  46 1.02
 271  0.205  0.973  0.306-  47 1.02
 272  0.705  0.973  0.306-  48 1.02
 273  0.073  0.217  0.608- 161 1.09
 274  0.573  0.217  0.608- 162 1.09
 275  0.073  0.717  0.608- 163 1.09
 276  0.573  0.717  0.608- 164 1.09
 277  0.177  0.467  0.892- 165 1.09
 278  0.677  0.467  0.892- 166 1.09
 279  0.177  0.967  0.892- 167 1.09
 280  0.677  0.967  0.892- 168 1.09
 281  0.427  0.283  0.392- 169 1.09
 282  0.927  0.283  0.392- 170 1.09
 283  0.427  0.783  0.392- 171 1.09
 284  0.927  0.783  0.392- 172 1.09
 285  0.323  0.033  0.108- 173 1.09
 286  0.823  0.033  0.108- 174 1.09
 287  0.323  0.533  0.108- 175 1.09
 288  0.823  0.533  0.108- 176 1.09
 289  0.056  0.141  0.694- 161 1.09
 290  0.556  0.141  0.694- 162 1.09
 291  0.056  0.641  0.694- 163 1.09
 292  0.556  0.641  0.694- 164 1.09
 293  0.194  0.391  0.806- 165 1.09
 294  0.694  0.391  0.806- 166 1.09
 295  0.194  0.891  0.806- 167 1.09
 296  0.694  0.891  0.806- 168 1.09
 297  0.444  0.359  0.306- 169 1.09
 298  0.944  0.359  0.306- 170 1.09
 299  0.444  0.859  0.306- 171 1.09
 300  0.944  0.859  0.306- 172 1.09
 301  0.306  0.109  0.194- 173 1.09
 302  0.806  0.109  0.194- 174 1.09
 303  0.306  0.609  0.194- 175 1.09
 304  0.806  0.609  0.194- 176 1.09
 305  0.464  0.208  0.664- 162 1.09
 306  0.964  0.208  0.664- 161 1.09
 307  0.464  0.708  0.664- 164 1.09
 308  0.964  0.708  0.664- 163 1.09
 309  0.286  0.458  0.836- 165 1.09
 310  0.786  0.458  0.836- 166 1.09
 311  0.286  0.958  0.836- 167 1.09
 312  0.786  0.958  0.836- 168 1.09
 313  0.036  0.292  0.336- 170 1.09
 314  0.536  0.292  0.336- 169 1.09
 315  0.036  0.792  0.336- 172 1.09
 316  0.536  0.792  0.336- 171 1.09
 317  0.214  0.042  0.164- 173 1.09
 318  0.714  0.042  0.164- 174 1.09
 319  0.214  0.542  0.164- 175 1.09
 320  0.714  0.542  0.164- 176 1.09

  LATTYP: Found a simple monoclinic cell.
 ALAT       =    12.1917306389
 B/A-ratio  =     1.4767591082
 C/A-ratio  =     1.4349426793
 COS(beta)  =    -0.5869732518
  
  Lattice vectors:
  
 A1 = (  -1.6000837818,  -0.0000183391,  12.0862743582)
 A2 = (  -0.0000045660,  18.0042492661,   0.0000280351)
 A3 = ( -12.6933849704,   0.0000154216, -12.0388214100)


Analysis of symmetry for initial positions (statically):
=====================================================================
 Subroutine PRICEL returns:
 Original cell was already a primitive cell.
 

 Routine SETGRP: Setting up the symmetry group for a 
 simple monoclinic supercell.


 Subroutine GETGRP returns: Found  1 space group operations
 (whereof  1 operations were pure point group operations)
 out of a pool of  4 trial point group operations.


The static configuration has the point symmetry C_1 .


Analysis of symmetry for dynamics (positions and initial velocities):
=====================================================================
 Subroutine PRICEL returns:
 Original cell was already a primitive cell.
 

 Routine SETGRP: Setting up the symmetry group for a 
 simple monoclinic supercell.


 Subroutine GETGRP returns: Found  1 space group operations
 (whereof  1 operations were pure point group operations)
 out of a pool of  4 trial point group operations.


The dynamic configuration has the point symmetry C_1 .


 Subroutine INISYM returns: Found  1 space group operations
 (whereof  1 operations are pure point group operations),
 and found     1 'primitive' translations


----------------------------------------------------------------------------------------

                                     Primitive cell                                     

  volume of cell :    3108.9532

  direct lattice vectors                    reciprocal lattice vectors
    14.293468752  0.000002918 -0.047452948     0.069992787  0.000000003  0.009266240
    -0.000004566 18.004249266  0.000028035    -0.000000011  0.055542444  0.000000083
    -1.600083782 -0.000018339 12.086274358     0.000274805 -0.000000129  0.082774864

  length of vectors
    14.293547522 18.004249266 12.191730639     0.070603494  0.055542444  0.082775320

  position of ions in fractional coordinates (direct lattice)
     0.079149070  0.459664530  0.218874495
     0.579149070  0.459664530  0.218874495
     0.079149070  0.959664530  0.218874495
     0.579149070  0.959664530  0.218874495
     0.170850905  0.209664537  0.281125499
     0.670850905  0.209664537  0.281125499
     0.170850905  0.709664537  0.281125499
     0.670850905  0.709664537  0.281125499
     0.420850928  0.040335472  0.781125502
     0.920850928  0.040335472  0.781125502
     0.420850928  0.540335472  0.781125502
     0.920850928  0.540335472  0.781125502
     0.329149097  0.290335460  0.718874499
     0.829149097  0.290335460  0.718874499
     0.329149097  0.790335460  0.718874499
     0.829149097  0.790335460  0.718874499
     0.173475375  0.245126436  0.807534996
     0.673475375  0.245126436  0.807534996
     0.173475375  0.745126436  0.807534996
     0.673475375  0.745126436  0.807534996
     0.076524648  0.495126420  0.692465045
     0.576524648  0.495126420  0.692465045
     0.076524648  0.995126420  0.692465045
     0.576524648  0.995126420  0.692465045
     0.326524628  0.254873563  0.192465008
     0.826524628  0.254873563  0.192465008
     0.326524628  0.754873563  0.192465008
     0.826524628  0.754873563  0.192465008
     0.423475349  0.004873577  0.307534952
     0.923475349  0.004873577  0.307534952
     0.423475349  0.504873577  0.307534952
     0.923475349  0.504873577  0.307534952
     0.024220134  0.279700461  0.838712585
     0.524220134  0.279700461  0.838712585
     0.024220134  0.779700461  0.838712585
     0.524220134  0.779700461  0.838712585
     0.225779883  0.029700456  0.661287427
     0.725779883  0.029700456  0.661287427
     0.225779883  0.529700456  0.661287427
     0.725779883  0.529700456  0.661287427
     0.475779868  0.220299539  0.161287414
     0.975779868  0.220299539  0.161287414
     0.475779868  0.720299539  0.161287414
     0.975779868  0.720299539  0.161287414
     0.274220114  0.470299546  0.338712576
     0.774220114  0.470299546  0.338712576
     0.274220114  0.970299546  0.338712576
     0.774220114  0.970299546  0.338712576
     0.042329493  0.324459604  0.935706617
     0.542329493  0.324459604  0.935706617
     0.042329493  0.824459604  0.935706617
     0.542329493  0.824459604  0.935706617
     0.207670515  0.074459599  0.564293389
     0.707670515  0.074459599  0.564293389
     0.207670515  0.574459599  0.564293389
     0.707670515  0.574459599  0.564293389
     0.457670508  0.175540397  0.064293381
     0.957670508  0.175540397  0.064293381
     0.457670508  0.675540397  0.064293381
     0.957670508  0.675540397  0.064293381
     0.292329484  0.425540401  0.435706612
     0.792329484  0.425540401  0.435706612
     0.292329484  0.925540401  0.435706612
     0.792329484  0.925540401  0.435706612
     0.128258736  0.325077999  0.006813263
     0.628258736  0.325077999  0.006813263
     0.128258736  0.825077999  0.006813263
     0.628258736  0.825077999  0.006813263
     0.121741261  0.075077996  0.493186763
     0.621741261  0.075077996  0.493186763
     0.121741261  0.575077996  0.493186763
     0.621741261  0.575077996  0.493186763
     0.371741263  0.174922002  0.993186738
     0.871741263  0.174922002  0.993186738
     0.371741263  0.674922002  0.993186738
     0.871741263  0.674922002  0.993186738
     0.378258739  0.424922002  0.506813236
     0.878258739  0.424922002  0.506813236
     0.378258739  0.924922002  0.506813236
     0.878258739  0.924922002  0.506813236
     0.138814551  0.370347547  0.100841357
     0.638814551  0.370347547  0.100841357
     0.138814551  0.870347547  0.100841357
     0.638814551  0.870347547  0.100841357
     0.111185435  0.120347548  0.399158662
     0.611185435  0.120347548  0.399158662
     0.111185435  0.620347548  0.399158662
     0.611185435  0.620347548  0.399158662
     0.361185447  0.129652453  0.899158643
     0.861185447  0.129652453  0.899158643
     0.361185447  0.629652453  0.899158643
     0.861185447  0.629652453  0.899158643
     0.388814566  0.379652449  0.600841335
     0.888814566  0.379652449  0.600841335
     0.388814566  0.879652449  0.600841335
     0.888814566  0.879652449  0.600841335
     0.064107507  0.415062520  0.125353146
     0.564107507  0.415062520  0.125353146
     0.064107507  0.915062520  0.125353146
     0.564107507  0.915062520  0.125353146
     0.185892477  0.165062522  0.374646851
     0.685892477  0.165062522  0.374646851
     0.185892477  0.665062522  0.374646851
     0.685892477  0.665062522  0.374646851
     0.435892491  0.084937482  0.874646852
     0.935892491  0.084937482  0.874646852
     0.435892491  0.584937482  0.874646852
     0.935892491  0.584937482  0.874646852
     0.314107523  0.334937476  0.625353148
     0.814107523  0.334937476  0.625353148
     0.314107523  0.834937476  0.625353148
     0.814107523  0.834937476  0.625353148
     0.478469518  0.413642185  0.055564108
     0.977769748  0.413642185  0.055562738
     0.477769748  0.913642185  0.055562738
     0.977769748  0.913642185  0.055562738
     0.272230246  0.163642185  0.444437240
     0.772230246  0.163642185  0.444437240
     0.272230246  0.663642185  0.444437240
     0.772230246  0.663642185  0.444437240
     0.022230252  0.086357818  0.944437257
     0.522230252  0.086357818  0.944437257
     0.022230252  0.586357818  0.944437257
     0.522230252  0.586357818  0.944437257
     0.227769753  0.336357814  0.555562761
     0.727769753  0.336357814  0.555562761
     0.227769753  0.836357814  0.555562761
     0.727769753  0.836357814  0.555562761
     0.467232994  0.368654120  0.961703539
     0.967232994  0.368654120  0.961703539
     0.467232994  0.868654120  0.961703539
     0.967232994  0.868654120  0.961703539
     0.282767012  0.118654116  0.538296444
     0.782767012  0.118654116  0.538296444
     0.282767012  0.618654116  0.538296444
     0.782767012  0.618654116  0.538296444
     0.032767007  0.131345883  0.038296456
     0.532767007  0.131345883  0.038296456
     0.032767007  0.631345883  0.038296456
     0.532767007  0.631345883  0.038296456
     0.217232986  0.381345885  0.461703559
     0.717232986  0.381345885  0.461703559
     0.217232986  0.881345885  0.461703559
     0.717232986  0.881345885  0.461703559
     0.085715078  0.243736487  0.781051969
     0.585715078  0.243736487  0.781051969
     0.085715078  0.743736487  0.781051969
     0.585715078  0.743736487  0.781051969
     0.164284946  0.493736478  0.718948062
     0.664284946  0.493736478  0.718948062
     0.164284946  0.993736478  0.718948062
     0.664284946  0.993736478  0.718948062
     0.414284926  0.256263513  0.218948032
     0.914284926  0.256263513  0.218948032
     0.414284926  0.756263513  0.218948032
     0.914284926  0.756263513  0.218948032
     0.335715051  0.006263522  0.281051939
     0.835715051  0.006263522  0.281051939
     0.335715051  0.506263522  0.281051939
     0.835715051  0.506263522  0.281051939
     0.040653485  0.200295913  0.680530955
     0.540653485  0.200295913  0.680530955
     0.040653485  0.700295913  0.680530955
     0.540653485  0.700295913  0.680530955
     0.209346549  0.450295913  0.819469086
     0.709346549  0.450295913  0.819469086
     0.209346549  0.950295913  0.819469086
     0.709346549  0.950295913  0.819469086
     0.459346522  0.299704085  0.319469047
     0.959346522  0.299704085  0.319469047
     0.459346522  0.799704085  0.319469047
     0.959346522  0.799704085  0.319469047
     0.290653447  0.049704089  0.180530917
     0.790653447  0.049704089  0.180530917
     0.290653447  0.549704089  0.180530917
     0.790653447  0.549704089  0.180530917
     0.019617511  0.481135702  0.238104980
     0.519617511  0.481135702  0.238104980
     0.019617511  0.981135702  0.238104980
     0.519617511  0.981135702  0.238104980
     0.230382464  0.231135705  0.261894994
     0.730382464  0.231135705  0.261894994
     0.230382464  0.731135705  0.261894994
     0.730382464  0.731135705  0.261894994
     0.480382486  0.018864298  0.761895017
     0.980382486  0.018864298  0.761895017
     0.480382486  0.518864298  0.761895017
     0.980382486  0.518864298  0.761895017
     0.269617538  0.268864293  0.738105007
     0.769617538  0.268864293  0.738105007
     0.269617538  0.768864293  0.738105007
     0.769617538  0.768864293  0.738105007
     0.186336290  0.290781049  0.989322624
     0.686336290  0.290781049  0.989322624
     0.186336290  0.790781049  0.989322624
     0.686336290  0.790781049  0.989322624
     0.063663709  0.040781046  0.510677422
     0.563663709  0.040781046  0.510677422
     0.063663709  0.540781046  0.510677422
     0.563663709  0.540781046  0.510677422
     0.313663709  0.209218950  0.010677379
     0.813663709  0.209218950  0.010677379
     0.313663709  0.709218950  0.010677379
     0.813663709  0.709218950  0.010677379
     0.436336292  0.459218952  0.489322576
     0.936336292  0.459218952  0.489322576
     0.436336292  0.959218952  0.489322576
     0.936336292  0.959218952  0.489322576
     0.204961272  0.369611151  0.155964621
     0.704961272  0.369611151  0.155964621
     0.204961272  0.869611151  0.155964621
     0.704961272  0.869611151  0.155964621
     0.045038706  0.119611152  0.344035412
     0.545038706  0.119611152  0.344035412
     0.045038706  0.619611152  0.344035412
     0.545038706  0.619611152  0.344035412
     0.295038726  0.130388849  0.844035381
     0.795038726  0.130388849  0.844035381
     0.295038726  0.630388849  0.844035381
     0.795038726  0.630388849  0.844035381
     0.454961296  0.380388842  0.655964583
     0.954961296  0.380388842  0.655964583
     0.454961296  0.880388842  0.655964583
     0.954961296  0.880388842  0.655964583
     0.419501634  0.447861759  0.073745290
     0.919501634  0.447861759  0.073745290
     0.419501634  0.947861759  0.073745290
     0.919501634  0.947861759  0.073745290
     0.330498358  0.197861760  0.426254669
     0.830498358  0.197861760  0.426254669
     0.330498358  0.697861760  0.426254669
     0.830498358  0.697861760  0.426254669
     0.080498366  0.052138246  0.926254702
     0.580498366  0.052138246  0.926254702
     0.080498366  0.552138246  0.926254702
     0.580498366  0.552138246  0.926254702
     0.169501641  0.302138240  0.573745332
     0.669501641  0.302138240  0.573745332
     0.169501641  0.802138240  0.573745332
     0.669501641  0.802138240  0.573745332
     0.400244616  0.367540272  0.908083109
     0.900244616  0.367540272  0.908083109
     0.400244616  0.867540272  0.908083109
     0.900244616  0.867540272  0.908083109
     0.349755398  0.117540267  0.591916858
     0.849755398  0.117540267  0.591916858
     0.349755398  0.617540267  0.591916858
     0.849755398  0.617540267  0.591916858
     0.099755386  0.132459732  0.091916884
     0.599755386  0.132459732  0.091916884
     0.099755386  0.632459732  0.091916884
     0.599755386  0.632459732  0.091916884
     0.150244599  0.382459736  0.408083146
     0.650244599  0.382459736  0.408083146
     0.150244599  0.882459736  0.408083146
     0.650244599  0.882459736  0.408083146
     0.454927210  0.276839342  0.805711584
     0.954927210  0.276839342  0.805711584
     0.454927210  0.776839342  0.805711584
     0.954927210  0.776839342  0.805711584
     0.295072809  0.026839342  0.694288420
     0.795072809  0.026839342  0.694288420
     0.295072809  0.526839342  0.694288420
     0.795072809  0.526839342  0.694288420
     0.045072792  0.223160657  0.194288414
     0.545072792  0.223160657  0.194288414
     0.045072792  0.723160657  0.194288414
     0.545072792  0.723160657  0.194288414
     0.204927187  0.473160662  0.305711586
     0.704927187  0.473160662  0.305711586
     0.204927187  0.973160662  0.305711586
     0.704927187  0.973160662  0.305711586
     0.072795806  0.216675926  0.607828051
     0.572795806  0.216675926  0.607828051
     0.072795806  0.716675926  0.607828051
     0.572795806  0.716675926  0.607828051
     0.177204213  0.466675910  0.892171982
     0.677204213  0.466675910  0.892171982
     0.177204213  0.966675910  0.892171982
     0.677204213  0.966675910  0.892171982
     0.427204207  0.283324068  0.392171953
     0.927204207  0.283324068  0.392171953
     0.427204207  0.783324068  0.392171953
     0.927204207  0.783324068  0.392171953
     0.322795767  0.033324080  0.107828015
     0.822795767  0.033324080  0.107828015
     0.322795767  0.533324080  0.107828015
     0.822795767  0.533324080  0.107828015
     0.055680161  0.141268055  0.694113253
     0.555680161  0.141268055  0.694113253
     0.055680161  0.641268055  0.694113253
     0.555680161  0.641268055  0.694113253
     0.194319899  0.391268050  0.805886794
     0.694319899  0.391268050  0.805886794
     0.194319899  0.891268050  0.805886794
     0.694319899  0.891268050  0.805886794
     0.444319840  0.358731943  0.305886754
     0.944319840  0.358731943  0.305886754
     0.444319840  0.858731943  0.305886754
     0.944319840  0.858731943  0.305886754
     0.305680116  0.108731949  0.194113200
     0.805680116  0.108731949  0.194113200
     0.305680116  0.608731949  0.194113200
     0.805680116  0.608731949  0.194113200
     0.464445959  0.207956491  0.663587897
     0.964445959  0.207956491  0.663587897
     0.464445959  0.707956491  0.663587897
     0.964445959  0.707956491  0.663587897
     0.285554071  0.457956515  0.836412151
     0.785554071  0.457956515  0.836412151
     0.285554071  0.957956515  0.836412151
     0.785554071  0.957956515  0.836412151
     0.035554048  0.292043511  0.336412098
     0.535554048  0.292043511  0.336412098
     0.035554048  0.792043511  0.336412098
     0.535554048  0.792043511  0.336412098
     0.214445922  0.042043499  0.163587867
     0.714445922  0.042043499  0.163587867
     0.214445922  0.542043499  0.163587867
     0.714445922  0.542043499  0.163587867

  ion indices of the primitive-cell ions
   primitive index   ion index
                 1           1
                 2           2
                 3           3
                 4           4
                 5           5
                 6           6
                 7           7
                 8           8
                 9           9
                10          10
                11          11
                12          12
                13          13
                14          14
                15          15
                16          16
                17          17
                18          18
                19          19
                20          20
                21          21
                22          22
                23          23
                24          24
                25          25
                26          26
                27          27
                28          28
                29          29
                30          30
                31          31
                32          32
                33          33
                34          34
                35          35
                36          36
                37          37
                38          38
                39          39
                40          40
                41          41
                42          42
                43          43
                44          44
                45          45
                46          46
                47          47
                48          48
                49          49
                50          50
                51          51
                52          52
                53          53
                54          54
                55          55
                56          56
                57          57
                58          58
                59          59
                60          60
                61          61
                62          62
                63          63
                64          64
                65          65
                66          66
                67          67
                68          68
                69          69
                70          70
                71          71
                72          72
                73          73
                74          74
                75          75
                76          76
                77          77
                78          78
                79          79
                80          80
                81          81
                82          82
                83          83
                84          84
                85          85
                86          86
                87          87
                88          88
                89          89
                90          90
                91          91
                92          92
                93          93
                94          94
                95          95
                96          96
                97          97
                98          98
                99          99
               100         100
               101         101
               102         102
               103         103
               104         104
               105         105
               106         106
               107         107
               108         108
               109         109
               110         110
               111         111
               112         112
               113         113
               114         114
               115         115
               116         116
               117         117
               118         118
               119         119
               120         120
               121         121
               122         122
               123         123
               124         124
               125         125
               126         126
               127         127
               128         128
               129         129
               130         130
               131         131
               132         132
               133         133
               134         134
               135         135
               136         136
               137         137
               138         138
               139         139
               140         140
               141         141
               142         142
               143         143
               144         144
               145         145
               146         146
               147         147
               148         148
               149         149
               150         150
               151         151
               152         152
               153         153
               154         154
               155         155
               156         156
               157         157
               158         158
               159         159
               160         160
               161         161
               162         162
               163         163
               164         164
               165         165
               166         166
               167         167
               168         168
               169         169
               170         170
               171         171
               172         172
               173         173
               174         174
               175         175
               176         176
               177         177
               178         178
               179         179
               180         180
               181         181
               182         182
               183         183
               184         184
               185         185
               186         186
               187         187
               188         188
               189         189
               190         190
               191         191
               192         192
               193         193
               194         194
               195         195
               196         196
               197         197
               198         198
               199         199
               200         200
               201         201
               202         202
               203         203
               204         204
               205         205
               206         206
               207         207
               208         208
               209         209
               210         210
               211         211
               212         212
               213         213
               214         214
               215         215
               216         216
               217         217
               218         218
               219         219
               220         220
               221         221
               222         222
               223         223
               224         224
               225         225
               226         226
               227         227
               228         228
               229         229
               230         230
               231         231
               232         232
               233         233
               234         234
               235         235
               236         236
               237         237
               238         238
               239         239
               240         240
               241         241
               242         242
               243         243
               244         244
               245         245
               246         246
               247         247
               248         248
               249         249
               250         250
               251         251
               252         252
               253         253
               254         254
               255         255
               256         256
               257         257
               258         258
               259         259
               260         260
               261         261
               262         262
               263         263
               264         264
               265         265
               266         266
               267         267
               268         268
               269         269
               270         270
               271         271
               272         272
               273         273
               274         274
               275         275
               276         276
               277         277
               278         278
               279         279
               280         280
               281         281
               282         282
               283         283
               284         284
               285         285
               286         286
               287         287
               288         288
               289         289
               290         290
               291         291
               292         292
               293         293
               294         294
               295         295
               296         296
               297         297
               298         298
               299         299
               300         300
               301         301
               302         302
               303         303
               304         304
               305         305
               306         306
               307         307
               308         308
               309         309
               310         310
               311         311
               312         312
               313         313
               314         314
               315         315
               316         316
               317         317
               318         318
               319         319
               320         320

----------------------------------------------------------------------------------------



 KPOINTS: auto                                    

Automatic generation of k-mesh.
 Grid dimensions read from file:
 generate k-points for:    1    1    1

 Generating k-lattice:

  Cartesian coordinates                     Fractional coordinates (reciprocal lattice)
     0.069992787  0.000000003  0.009266240     1.000000000 -0.000000000 -0.000000000
    -0.000000011  0.055542444  0.000000083     0.000000000  1.000000000 -0.000000000
     0.000274805 -0.000000129  0.082774864    -0.000000000 -0.000000000  1.000000000

  Length of vectors
     0.070603494  0.055542444  0.082775320

  Shift w.r.t. Gamma in fractional coordinates (k-lattice)
     0.000000000  0.000000000  0.000000000

 
 Subroutine IBZKPT returns following result:
 ===========================================
 
 Found      1 irreducible k-points:
 
 Following reciprocal coordinates:
            Coordinates               Weight
  0.000000  0.000000  0.000000      1.000000
 
 Following cartesian coordinates:
            Coordinates               Weight
  0.000000  0.000000  0.000000      1.000000
 


--------------------------------------------------------------------------------------------------------




 Dimension of arrays:
   k-points           NKPTS =      1   k-points in BZ     NKDIM =      1   number of bands    NBANDS=    628
   number of dos      NEDOS =    301   number of ions     NIONS =    320
   non local maximal  LDIM  =      4   non local SUM 2l+1 LMDIM =      8
   total plane-waves  NPLWV = ******
   max r-space proj   IRMAX =      1   max aug-charges    IRDMAX=   8711
   dimension x,y,z NGX =   150 NGY =  192 NGZ =  126
   dimension x,y,z NGXF=   300 NGYF=  384 NGZF=  252
   support grid    NGXF=   300 NGYF=  384 NGZF=  252
   ions per type =              32  16 128 144
   NGX,Y,Z   is equivalent  to a cutoff of  17.45, 17.73, 17.18 a.u.
   NGXF,Y,Z  is equivalent  to a cutoff of  34.89, 35.46, 34.36 a.u.

 SYSTEM =  unknown system                          
 POSCAR =   O  N  C  H                             

 Startparameter for this run:
   NWRITE =      2    write-flag & timer
   PREC   = accura    normal or accurate (medium, high low for compatibility)
   ISTART =      0    job   : 0-new  1-cont  2-samecut
   ICHARG =      2    charge: 1-file 2-atom 10-const
   ISPIN  =      1    spin polarized calculation?
   LNONCOLLINEAR =      F non collinear calculations
   LSORBIT =      F    spin-orbit coupling
   INIWAV =      1    electr: 0-lowe 1-rand  2-diag
   LASPH  =      T    aspherical Exc in radial PAW
 Electronic Relaxation 1
   ENCUT  = 1000.0 eV  73.50 Ry    8.57 a.u.  36.86 46.42 31.44*2*pi/ulx,y,z
   ENINI  = 1000.0     initial cutoff
   ENAUG  = 1000.0 eV  augmentation charge cutoff
   NELM   =     60;   NELMIN=  2; NELMDL=  0     # of ELM steps 
   EDIFF  = 0.1E-06   stopping-criterion for ELM
   LREAL  =      F    real-space projection
   NLSPLINE    = F    spline interpolate recip. space projectors
   LCOMPAT=      F    compatible to vasp.4.4
   GGA_COMPAT  = T    GGA compatible to vasp.4.4-vasp.4.6
   LMAXPAW     = -100 max onsite density
   LMAXMIX     =    2 max onsite mixed and CHGCAR
   VOSKOWN=      0    Vosko Wilk Nusair interpolation
   ROPT   =    0.00000   0.00000   0.00000   0.00000
 Ionic relaxation
   EDIFFG = 0.1E-05   stopping-criterion for IOM
   NSW    =      0    number of steps for IOM
   NBLOCK =      1;   KBLOCK =      1    inner block; outer block 
   IBRION =     -1    ionic relax: 0-MD 1-quasi-New 2-CG
   NFREE  =      0    steps in history (QN), initial steepest desc. (CG)
   ISIF   =      2    stress and relaxation
   IWAVPR =     10    prediction:  0-non 1-charg 2-wave 3-comb
   ISYM   =      2    0-nonsym 1-usesym 2-fastsym
   LCORR  =      T    Harris-Foulkes like correction to forces

   POTIM  = 0.5000    time-step for ionic-motion
   TEIN   =    0.0    initial temperature
   TEBEG  =    0.0;   TEEND  =   0.0 temperature during run
   SMASS  =  -3.00    Nose mass-parameter (am)
   estimated Nose-frequenzy (Omega)   =  0.10E-29 period in steps = 0.13E+47 mass=  -0.467E-26a.u.
   SCALEE = 1.0000    scale energy and forces
   NPACO  =    256;   APACO  = 10.0  distance and # of slots for P.C.
   PSTRESS=    0.0 pullay stress

  Mass of Ions in am
   POMASS =  16.00 14.00 12.01  1.00
  Ionic Valenz
   ZVAL   =   6.00  5.00  4.00  1.00
  Atomic Wigner-Seitz radii
   RWIGS  =  -1.00 -1.00 -1.00 -1.00
  virtual crystal weights 
   VCA    =   1.00  1.00  1.00  1.00
   NELECT =     928.0000    total number of electrons
   NUPDOWN=      -1.0000    fix difference up-down

 DOS related values:
   EMIN   =  10.00;   EMAX   =-10.00  energy-range for DOS
   EFERMI =   0.00;   METHOD = LEGACY      
   ISMEAR =     0;   SIGMA  =   0.01  broadening in eV -4-tet -1-fermi 0-gaus

 Electronic relaxation 2 (details)
   IALGO  =     58    algorithm
   LDIAG  =      T    sub-space diagonalisation (order eigenvalues)
   LSUBROT=      F    optimize rotation matrix (better conditioning)
   TURBO    =      0    0=normal 1=particle mesh
   IRESTART =      0    0=no restart 2=restart with 2 vectors
   NREBOOT  =      0    no. of reboots
   NMIN     =      0    reboot dimension
   EREF     =   0.00    reference energy to select bands
   IMIX   =      4    mixing-type and parameters
     AMIX     =   0.40;   BMIX     =  1.00
     AMIX_MAG =   1.60;   BMIX_MAG =  1.00
     AMIN     =   0.10
     WC   =   100.;   INIMIX=   1;  MIXPRE=   1;  MAXMIX= -45

 Intra band minimization:
   WEIMIN = 0.0000     energy-eigenvalue tresh-hold
   EBREAK =  0.40E-10  absolut break condition
   DEPER  =   0.30     relativ break condition  

   TIME   =   0.40     timestep for ELM

  volume/ion in A,a.u.               =       9.72        65.56
  Fermi-wavevector in a.u.,A,eV,Ry     =   1.094089  2.067529 16.286600  1.197031
  Thomas-Fermi vector in A             =   2.230387

 Write flags
   LWAVE        =      F    write WAVECAR
   LDOWNSAMPLE  =      F    k-point downsampling of WAVECAR
   LCHARG       =      F    write CHGCAR
   LVTOT        =      F    write LOCPOT, total local potential
   LVHAR        =      F    write LOCPOT, Hartree potential only
   LELF         =      F    write electronic localiz. function (ELF)
   LORBIT       =      0    0 simple, 1 ext, 2 COOP (PROOUT), +10 PAW based schemes


 Dipole corrections
   LMONO  =      F    monopole corrections only (constant potential shift)
   LDIPOL =      F    correct potential (dipole corrections)
   IDIPOL =      0    1-x, 2-y, 3-z, 4-all directions 
   EPSILON=  1.0000000 bulk dielectric constant

 Exchange correlation treatment:
   GGA     =    ML    GGA type
   LEXCH   =    44    internal setting for exchange type
   LIBXC   =     F    Libxc                    
   VOSKOWN =     0    Vosko Wilk Nusair interpolation
   LHFCALC =     F    Hartree Fock is set to
   LHFONE  =     F    Hartree Fock one center treatment
   AEXX    =    0.0000 exact exchange contribution

 vdW DFT:
   LUSE_VDW   =     T    switch on vdW DFT
   IVDW_NL    =     1    kernel type
   LSPIN_VDW  =     F    use spin-polarized vdW DFT
   Zab_VDW    =******    correlation parameter
   PARAM1     =0.1234
   PARAM2     =1.0000
   PARAM3     =0.0000
   -- rVV10 --
   BPARAM     = 6.3000
   CPARAM     = 0.0093

 Linear response parameters
   LEPSILON=     F    determine dielectric tensor
   LRPA    =     F    only Hartree local field effects (RPA)
   LNABLA  =     F    use nabla operator in PAW spheres
   LVEL    =     F    velocity operator in full k-point grid
   CSHIFT  =0.1000    complex shift for real part using Kramers Kronig
   OMEGAMAX=  -1.0    maximum frequency
   DEG_THRESHOLD= 0.2000000E-02 threshold for treating states as degnerate
   RTIME   =   -0.100 relaxation time in fs
  (WPLASMAI=    0.000 imaginary part of plasma frequency in eV, 0.658/RTIME)
   DFIELD  = 0.0000000 0.0000000 0.0000000 field for delta impulse in time

  Optional k-point grid parameters
   LKPOINTS_OPT  =     F    use optional k-point grid
   KPOINTS_OPT_MODE=     1    mode for optional k-point grid

 Orbital magnetization related:
   ORBITALMAG=     F  switch on orbital magnetization
   LCHIMAG   =     F  perturbation theory with respect to B field
   DQ        =  0.001000  dq finite difference perturbation B field
   LLRAUG    =     F  two centre corrections for induced B field
   LBONE     =     F  B-component reconstruction in AE one-centre
   LVGVCALC  =     T  calculate vGv susceptibility
   LVGVAPPL  =     F  apply vGv susceptibility instead of pGv for G=0

 Random number generation:
   RANDOM_GENERATOR = DEFAULT
   PCG_SEED         = not used


--------------------------------------------------------------------------------------------------------


 Static calculation
 charge density and potential will be updated during run
 non-spin polarized calculation
 Conjugate gradient for all bands (Freysoldt, et al. PRB 79, 241103 (2009))
 preconditioned conjugated gradient                                        
 perform sub-space diagonalisation
    before iterative eigenvector-optimisation
 modified Broyden-mixing scheme, WC =      100.0
 initial mixing is a Kerker type mixing with AMIX =  0.4000 and BMIX =      1.0000
 Hartree-type preconditioning will be used
 using additional bands          164
 reciprocal scheme for non local part
 use partial core corrections
 no Harris-corrections to forces 
 use gradient corrections 
 use of overlap-Matrix (Vanderbilt PP)
 Gauss-broadening in eV      SIGMA  =   0.01


--------------------------------------------------------------------------------------------------------


  energy-cutoff  :     1000.00
  volume of cell :     3108.95
      direct lattice vectors                 reciprocal lattice vectors
    14.293468752  0.000002918 -0.047452948     0.069992787  0.000000003  0.009266240
    -0.000004566 18.004249266  0.000028035    -0.000000011  0.055542444  0.000000083
    -1.600083782 -0.000018339 12.086274358     0.000274805 -0.000000129  0.082774864

  length of vectors
    14.293547522 18.004249266 12.191730639     0.070603494  0.055542444  0.082775320



 k-points in units of 2pi/SCALE and weight: auto                                    
   0.00000000  0.00000000  0.00000000       1.000

 k-points in reciprocal lattice and weights: auto                                    
   0.00000000  0.00000000  0.00000000       1.000

 position of ions in fractional coordinates (direct lattice) 
   0.07914907  0.45966453  0.21887450
   0.57914907  0.45966453  0.21887450
   0.07914907  0.95966453  0.21887450
   0.57914907  0.95966453  0.21887450
   0.17085091  0.20966454  0.28112550
   0.67085091  0.20966454  0.28112550
   0.17085091  0.70966454  0.28112550
   0.67085091  0.70966454  0.28112550
   0.42085093  0.04033547  0.78112550
   0.92085093  0.04033547  0.78112550
   0.42085093  0.54033547  0.78112550
   0.92085093  0.54033547  0.78112550
   0.32914910  0.29033546  0.71887450
   0.82914910  0.29033546  0.71887450
   0.32914910  0.79033546  0.71887450
   0.82914910  0.79033546  0.71887450
   0.17347538  0.24512644  0.80753500
   0.67347538  0.24512644  0.80753500
   0.17347538  0.74512644  0.80753500
   0.67347538  0.74512644  0.80753500
   0.07652465  0.49512642  0.69246504
   0.57652465  0.49512642  0.69246504
   0.07652465  0.99512642  0.69246504
   0.57652465  0.99512642  0.69246504
   0.32652463  0.25487356  0.19246501
   0.82652463  0.25487356  0.19246501
   0.32652463  0.75487356  0.19246501
   0.82652463  0.75487356  0.19246501
   0.42347535  0.00487358  0.30753495
   0.92347535  0.00487358  0.30753495
   0.42347535  0.50487358  0.30753495
   0.92347535  0.50487358  0.30753495
   0.02422013  0.27970046  0.83871259
   0.52422013  0.27970046  0.83871259
   0.02422013  0.77970046  0.83871259
   0.52422013  0.77970046  0.83871259
   0.22577988  0.02970046  0.66128743
   0.72577988  0.02970046  0.66128743
   0.22577988  0.52970046  0.66128743
   0.72577988  0.52970046  0.66128743
   0.47577987  0.22029954  0.16128741
   0.97577987  0.22029954  0.16128741
   0.47577987  0.72029954  0.16128741
   0.97577987  0.72029954  0.16128741
   0.27422011  0.47029955  0.33871258
   0.77422011  0.47029955  0.33871258
   0.27422011  0.97029955  0.33871258
   0.77422011  0.97029955  0.33871258
   0.04232949  0.32445960  0.93570662
   0.54232949  0.32445960  0.93570662
   0.04232949  0.82445960  0.93570662
   0.54232949  0.82445960  0.93570662
   0.20767051  0.07445960  0.56429339
   0.70767051  0.07445960  0.56429339
   0.20767051  0.57445960  0.56429339
   0.70767051  0.57445960  0.56429339
   0.45767051  0.17554040  0.06429338
   0.95767051  0.17554040  0.06429338
   0.45767051  0.67554040  0.06429338
   0.95767051  0.67554040  0.06429338
   0.29232948  0.42554040  0.43570661
   0.79232948  0.42554040  0.43570661
   0.29232948  0.92554040  0.43570661
   0.79232948  0.92554040  0.43570661
   0.12825874  0.32507800  0.00681326
   0.62825874  0.32507800  0.00681326
   0.12825874  0.82507800  0.00681326
   0.62825874  0.82507800  0.00681326
   0.12174126  0.07507800  0.49318676
   0.62174126  0.07507800  0.49318676
   0.12174126  0.57507800  0.49318676
   0.62174126  0.57507800  0.49318676
   0.37174126  0.17492200  0.99318674
   0.87174126  0.17492200  0.99318674
   0.37174126  0.67492200  0.99318674
   0.87174126  0.67492200  0.99318674
   0.37825874  0.42492200  0.50681324
   0.87825874  0.42492200  0.50681324
   0.37825874  0.92492200  0.50681324
   0.87825874  0.92492200  0.50681324
   0.13881455  0.37034755  0.10084136
   0.63881455  0.37034755  0.10084136
   0.13881455  0.87034755  0.10084136
   0.63881455  0.87034755  0.10084136
   0.11118544  0.12034755  0.39915866
   0.61118544  0.12034755  0.39915866
   0.11118544  0.62034755  0.39915866
   0.61118544  0.62034755  0.39915866
   0.36118545  0.12965245  0.89915864
   0.86118545  0.12965245  0.89915864
   0.36118545  0.62965245  0.89915864
   0.86118545  0.62965245  0.89915864
   0.38881457  0.37965245  0.60084133
   0.88881457  0.37965245  0.60084133
   0.38881457  0.87965245  0.60084133
   0.88881457  0.87965245  0.60084133
   0.06410751  0.41506252  0.12535315
   0.56410751  0.41506252  0.12535315
   0.06410751  0.91506252  0.12535315
   0.56410751  0.91506252  0.12535315
   0.18589248  0.16506252  0.37464685
   0.68589248  0.16506252  0.37464685
   0.18589248  0.66506252  0.37464685
   0.68589248  0.66506252  0.37464685
   0.43589249  0.08493748  0.87464685
   0.93589249  0.08493748  0.87464685
   0.43589249  0.58493748  0.87464685
   0.93589249  0.58493748  0.87464685
   0.31410752  0.33493748  0.62535315
   0.81410752  0.33493748  0.62535315
   0.31410752  0.83493748  0.62535315
   0.81410752  0.83493748  0.62535315
   0.47846952  0.41364219  0.05556411
   0.97776975  0.41364219  0.05556274
   0.47776975  0.91364219  0.05556274
   0.97776975  0.91364219  0.05556274
   0.27223025  0.16364219  0.44443724
   0.77223025  0.16364219  0.44443724
   0.27223025  0.66364219  0.44443724
   0.77223025  0.66364219  0.44443724
   0.02223025  0.08635782  0.94443726
   0.52223025  0.08635782  0.94443726
   0.02223025  0.58635782  0.94443726
   0.52223025  0.58635782  0.94443726
   0.22776975  0.33635781  0.55556276
   0.72776975  0.33635781  0.55556276
   0.22776975  0.83635781  0.55556276
   0.72776975  0.83635781  0.55556276
   0.46723299  0.36865412  0.96170354
   0.96723299  0.36865412  0.96170354
   0.46723299  0.86865412  0.96170354
   0.96723299  0.86865412  0.96170354
   0.28276701  0.11865412  0.53829644
   0.78276701  0.11865412  0.53829644
   0.28276701  0.61865412  0.53829644
   0.78276701  0.61865412  0.53829644
   0.03276701  0.13134588  0.03829646
   0.53276701  0.13134588  0.03829646
   0.03276701  0.63134588  0.03829646
   0.53276701  0.63134588  0.03829646
   0.21723299  0.38134589  0.46170356
   0.71723299  0.38134589  0.46170356
   0.21723299  0.88134589  0.46170356
   0.71723299  0.88134589  0.46170356
   0.08571508  0.24373649  0.78105197
   0.58571508  0.24373649  0.78105197
   0.08571508  0.74373649  0.78105197
   0.58571508  0.74373649  0.78105197
   0.16428495  0.49373648  0.71894806
   0.66428495  0.49373648  0.71894806
   0.16428495  0.99373648  0.71894806
   0.66428495  0.99373648  0.71894806
   0.41428493  0.25626351  0.21894803
   0.91428493  0.25626351  0.21894803
   0.41428493  0.75626351  0.21894803
   0.91428493  0.75626351  0.21894803
   0.33571505  0.00626352  0.28105194
   0.83571505  0.00626352  0.28105194
   0.33571505  0.50626352  0.28105194
   0.83571505  0.50626352  0.28105194
   0.04065348  0.20029591  0.68053096
   0.54065348  0.20029591  0.68053096
   0.04065348  0.70029591  0.68053096
   0.54065348  0.70029591  0.68053096
   0.20934655  0.45029591  0.81946909
   0.70934655  0.45029591  0.81946909
   0.20934655  0.95029591  0.81946909
   0.70934655  0.95029591  0.81946909
   0.45934652  0.29970409  0.31946905
   0.95934652  0.29970409  0.31946905
   0.45934652  0.79970409  0.31946905
   0.95934652  0.79970409  0.31946905
   0.29065345  0.04970409  0.18053092
   0.79065345  0.04970409  0.18053092
   0.29065345  0.54970409  0.18053092
   0.79065345  0.54970409  0.18053092
   0.01961751  0.48113570  0.23810498
   0.51961751  0.48113570  0.23810498
   0.01961751  0.98113570  0.23810498
   0.51961751  0.98113570  0.23810498
   0.23038246  0.23113570  0.26189499
   0.73038246  0.23113570  0.26189499
   0.23038246  0.73113570  0.26189499
   0.73038246  0.73113570  0.26189499
   0.48038249  0.01886430  0.76189502
   0.98038249  0.01886430  0.76189502
   0.48038249  0.51886430  0.76189502
   0.98038249  0.51886430  0.76189502
   0.26961754  0.26886429  0.73810501
   0.76961754  0.26886429  0.73810501
   0.26961754  0.76886429  0.73810501
   0.76961754  0.76886429  0.73810501
   0.18633629  0.29078105  0.98932262
   0.68633629  0.29078105  0.98932262
[...]
     10.63580     15.03241      7.51958        -0.001495     -0.010366      0.030504
      6.75008      7.44732      0.64887        -0.576438      0.176919     -0.093239
     13.88681      7.44732      0.62516        -0.010880      0.004402     -0.006385
      6.74008     16.44944      0.64890        -0.010853      0.004437     -0.006337
     13.88681     16.44944      0.62517        -0.010876      0.004431     -0.006330
      3.17998      2.94625      5.35868         0.010861      0.004409      0.006328
     10.32671      2.94625      5.33495         0.010894      0.004428      0.006340
      3.17997     11.94837      5.35869         0.010860      0.004430      0.006377
     10.32671     11.94837      5.33496         0.010895      0.004430      0.006332
     -1.19343      1.55479     11.41368         0.010880     -0.004414      0.006334
      5.95330      1.55479     11.38995         0.010842     -0.004498      0.006280
     -1.19343     10.55692     11.41369         0.010873     -0.004426      0.006334
      5.95330     10.55692     11.38996         0.010813     -0.003972      0.006167
      2.36667      6.05586      6.70389        -0.010795     -0.004549     -0.006153
      9.51341      6.05586      6.68016        -0.010795     -0.004394     -0.006311
      2.36667     15.05799      6.70390        -0.010899     -0.004405     -0.006355
      9.51340     15.05799      6.68017        -0.010897     -0.004414     -0.006345
      5.13957      6.63732     11.60125         0.096298     -0.042582     -0.015117
     12.28631      6.63733     11.57753        -0.010332     -0.009867     -0.009656
      5.13957     15.63945     11.60127        -0.010331     -0.009858     -0.009671
     12.28630     15.63945     11.57754        -0.010339     -0.009865     -0.009662
      3.18040      2.13627      6.49258         0.010330     -0.009864      0.009656
     10.32714      2.13627      6.46886         0.010340     -0.009857      0.009640
      3.18040     11.13839      6.49260         0.010333     -0.009846      0.009643
     10.32713     11.13840      6.46887         0.010355     -0.009888      0.009694
      0.40708      2.36478      0.46131         0.010326      0.009867      0.009636
      7.55381      2.36478      0.43758         0.010382      0.009991      0.009744
      0.40707     11.36691      0.46132         0.010373      0.009881      0.009684
      7.55381     11.36691      0.43760         0.010359      0.009861      0.009473
      2.36625      6.86584      5.56998        -0.010288      0.009831     -0.009606
      9.51298      6.86584      5.54625        -0.010425      0.009832     -0.009668
      2.36624     15.86796      5.56999        -0.010344      0.009877     -0.009650
      9.51298     15.86796      5.54627        -0.010345      0.009875     -0.009652
     -0.02458      4.38828      9.43595        -0.016308      0.016610     -0.017513
      7.12215      4.38828      9.41222        -0.015042      0.015109     -0.017569
     -0.02459     13.39040      9.43596        -0.015872      0.016504     -0.017506
      7.12215     13.39040      9.41224        -0.015968      0.016494     -0.017497
      1.19782      8.88934      8.68162         0.016085      0.016621      0.017332
      8.34456      8.88934      8.65790         0.015938      0.016726      0.017268
      1.19782     17.89147      8.68164         0.015856      0.016488      0.017524
      8.34455     17.89147      8.65791         0.016025      0.016498      0.017532
      5.57123      4.61383      2.62661         0.015602     -0.016593      0.017856
     12.71797      4.61383      2.60289         0.015652     -0.016507      0.017506
      5.57123     13.61595      2.62663         0.016021     -0.016681      0.017397
     12.71796     13.61596      2.60290         0.015968     -0.016566      0.017475
      4.34883      0.11277      3.38094        -0.016004     -0.016624     -0.017425
     11.49556      0.11277      3.35721        -0.015962     -0.016573     -0.017477
      4.34882      9.11489      3.38095        -0.013526     -0.015688     -0.017944
     11.49556      9.11489      3.35723        -0.015947     -0.016605     -0.017400
     -0.50783      3.60617      8.22316         0.001940     -0.020902     -0.007688
      6.63891      3.60617      8.19943         0.002122     -0.020692     -0.008113
     -0.50783     12.60829      8.22317         0.001909     -0.020894     -0.007693
      6.63890     12.60829      8.19945         0.001914     -0.020890     -0.007693
      1.68107      8.10723      9.89441        -0.001972     -0.021014      0.007710
      8.82780      8.10723      9.87068        -0.001951     -0.020951      0.007728
      1.68106     17.10935      9.89442        -0.001922     -0.020886      0.007689
      8.82780     17.10935      9.87069        -0.001909     -0.020890      0.007678
      6.05448      5.39594      3.83940        -0.001761      0.020981      0.007466
     13.20121      5.39594      3.81568        -0.001902      0.020903      0.007697
      6.05447     14.39807      3.83942        -0.001920      0.020918      0.007716
     13.20121     14.39807      3.81569        -0.001909      0.020907      0.007706
      3.86558      0.89488      2.16816         0.001903      0.020911     -0.007716
     11.01232      0.89488      2.14443         0.001923      0.020914     -0.007704
      3.86558      9.89701      2.16817         0.001603      0.021114     -0.007702
     11.01231      9.89701      2.14444         0.001985      0.020856     -0.007758
     -0.10059      8.66248      2.87688        -0.015243     -0.003129      0.000355
      7.04615      8.66248      2.85316        -0.016429     -0.003272     -0.001046
     -0.10059     17.66461      2.87690        -0.015252     -0.003148      0.000377
      7.04614     17.66461      2.85317        -0.015245     -0.003179      0.000386
      2.87391      4.16142      3.15441         0.015067     -0.003165     -0.000301
     10.02064      4.16142      3.13068         0.015342     -0.003038     -0.000518
      2.87391     13.16355      3.15442         0.015313     -0.003179     -0.000415
     10.02064     13.16355      3.13070         0.015238     -0.003149     -0.000367
      5.64724      0.33962      9.18568         0.015339      0.003052     -0.000406
     12.79397      0.33963      9.16195         0.015247      0.003120     -0.000379
      5.64723      9.34175      9.18569         0.015210      0.003236     -0.000391
     12.79397      9.34175      9.16196         0.015262      0.003144     -0.000382
      2.67274      4.84069      8.90815        -0.015422      0.003040      0.000359
      9.81947      4.84069      8.88443        -0.015017      0.003195      0.000289
      2.67274     13.84281      8.90817        -0.015268      0.003090      0.000396
      9.81947     13.84281      8.88444        -0.015282      0.003106      0.000388
      1.08039      5.23528     11.94839        -0.006130      0.003539      0.009487
      8.22713      5.23528     11.92466        -0.006234      0.004170      0.009599
      1.08039     14.23740     11.94840        -0.006085      0.003550      0.009493
      8.22712     14.23740     11.92468        -0.006093      0.003552      0.009488
      0.09285      0.73422      6.16917         0.006089      0.003556     -0.009485
      7.23958      0.73422      6.14544         0.006087      0.003547     -0.009491
      0.09285      9.73635      6.16918         0.006083      0.003562     -0.009487
      7.23958      9.73635      6.14546         0.006081      0.003571     -0.009526
      4.46626      3.76683      0.11417         0.006024     -0.003592     -0.009486
     11.61299      3.76683      0.09044         0.006088     -0.003533     -0.009451
      4.46625     12.76896      0.11419         0.006079     -0.003582     -0.009470
     11.61299     12.76896      0.09046         0.006078     -0.003564     -0.009485
      5.45380      8.26788      5.89339        -0.006115     -0.003549      0.009416
     12.60053      8.26789      5.86967        -0.006085     -0.003557      0.009485
      5.45380     17.27001      5.89341        -0.006080     -0.003569      0.009477
     12.60053     17.27001      5.86968        -0.006083     -0.003565      0.009480
      2.68005      6.65457      1.87532         0.010765     -0.004924     -0.001249
      9.82678      6.65457      1.85159         0.012472     -0.008822     -0.001710
      2.68005     15.65669      1.87533         0.010808     -0.005030     -0.001231
      9.82678     15.65670      1.85160         0.010804     -0.005020     -0.001228
      0.09327      2.15350      4.15597        -0.010802     -0.005011      0.001233
      7.24001      2.15350      4.13225        -0.010815     -0.005035      0.001232
      0.09327     11.15563      4.15599        -0.010797     -0.005017      0.001229
      7.24001     11.15563      4.13226        -0.010801     -0.005080      0.001219
      2.86660      2.34754     10.18725        -0.010812      0.005004      0.001245
     10.01333      2.34754     10.16352        -0.010792      0.004991      0.001222
      2.86660     11.34966     10.18726        -0.010810      0.005000      0.001237
     10.01333     11.34966     10.16353        -0.010809      0.005018      0.001229
      5.45338      6.84860      7.90659         0.010871      0.005052     -0.001217
     12.60011      6.84861      7.88286         0.010805      0.005018     -0.001230
      5.45337     15.85073      7.90660         0.010806      0.004997     -0.001235
     12.60011     15.85073      7.88288         0.010803      0.005004     -0.001233
      5.87813      8.06341      0.87141         0.212585     -0.120512     -0.028390
     13.02487      8.06342      0.84769         0.002248     -0.001872      0.005414
      5.87813     17.06554      0.87143         0.002227     -0.001871      0.005425
     13.02486     17.06554      0.84770         0.002237     -0.001862      0.005416
      4.04192      3.56235      5.13615        -0.002239     -0.001852     -0.005406
     11.18866      3.56235      5.11243        -0.002248     -0.001859     -0.005416
      4.04192     12.56447      5.13617        -0.002239     -0.001887     -0.005429
     11.18866     12.56447      5.11244        -0.002231     -0.001863     -0.005410
     -0.33148      0.93869     11.19115        -0.002248      0.001850     -0.005414
      6.81525      0.93869     11.16742        -0.002259      0.001856     -0.005397
     -0.33149      9.94082     11.19116        -0.002231      0.001872     -0.005395
      6.81525      9.94082     11.16744        -0.002159      0.001935     -0.005496
      1.50472      5.43976      6.92641         0.002225      0.001855      0.005423
      8.65146      5.43976      6.90268         0.002229      0.001850      0.005408
      1.50472     14.44189      6.92642         0.002248      0.001856      0.005408
      8.65146     14.44189      6.90270         0.002246      0.001855      0.005408
      4.26787      6.61727     10.95636         0.002192      0.014710      0.022632
     11.41461      6.61727     10.93263         0.006282      0.000061      0.002608
      4.26787     15.61940     10.95637         0.006279      0.000048      0.002607
     11.41461     15.61940     10.93265         0.006280      0.000060      0.002602
      4.05210      2.11621      7.13748        -0.006278      0.000053     -0.002607
     11.19884      2.11622      7.11375        -0.006282      0.000063     -0.002603
      4.05210     11.11834      7.13749        -0.006280      0.000060     -0.002603
     11.19883     11.11834      7.11376        -0.006275      0.000067     -0.002599
      1.27878      2.38484      1.10620        -0.006288     -0.000070     -0.002595
      8.42551      2.38484      1.08248        -0.006294     -0.000073     -0.002600
      1.27877     11.38696      1.10622        -0.006271     -0.000093     -0.002608
      8.42551     11.38696      1.08249        -0.006312     -0.000084     -0.002575
      1.49455      6.88589      4.92509         0.006290     -0.000060      0.002611
      8.64128      6.88589      4.90136         0.006323      0.000011      0.002601
      1.49455     15.88802      4.92510         0.006285     -0.000074      0.002596
      8.64128     15.88802      4.90137         0.006282     -0.000077      0.002597
      5.21328      4.98427      9.71647        -0.002985     -0.000728      0.008182
     12.36001      4.98427      9.69274        -0.003328     -0.000718      0.008490
      5.21328     13.98640      9.71649        -0.003333     -0.000747      0.008516
     12.36001     13.98640      9.69276        -0.003328     -0.000722      0.008501
      3.10669      0.48321      8.37736         0.003291     -0.000743     -0.008532
     10.25343      0.48321      8.35363         0.003350     -0.000726     -0.008490
      3.10669      9.48533      8.37737         0.003345     -0.000670     -0.008484
     10.25343      9.48534      8.35365         0.003351     -0.000702     -0.008491
      0.33337      4.01784      2.34609         0.003297      0.000724     -0.008524
      7.48010      4.01784      2.32236         0.003525      0.000533     -0.008401
      0.33337     13.01996      2.34610         0.003364      0.000694     -0.008478
      7.48010     13.01996      2.32238         0.003288      0.000679     -0.008499
      2.43995      8.51890      3.68520        -0.003188      0.000671      0.008547
      9.58669      8.51890      3.66148        -0.003538      0.000640      0.008338
      2.43995     17.52102      3.68522        -0.003345      0.000697      0.008482
      9.58669     17.52102      3.66149        -0.003333      0.000696      0.008486
      0.06793      3.90108      7.34293         0.006178      0.000663      0.005350
      7.21466      3.90108      7.31920         0.006158      0.000574      0.005337
      0.06793     12.90320      7.34294         0.006183      0.000651      0.005352
      7.21466     12.90320      7.31922         0.006182      0.000656      0.005348
      1.10531      8.40213     10.77464        -0.006061      0.000649     -0.005345
      8.25205      8.40214     10.75091        -0.006146      0.000704     -0.005390
      1.10531     17.40426     10.77465        -0.006187      0.000652     -0.005352
      8.25204     17.40426     10.75093        -0.006183      0.000648     -0.005347
      5.47872      5.10103      4.71963        -0.006158     -0.000554     -0.005422
     12.62546      5.10103      4.69591        -0.006182     -0.000657     -0.005353
      5.47872     14.10316      4.71965        -0.006176     -0.000668     -0.005351
     12.62545     14.10316      4.69592        -0.006180     -0.000664     -0.005355
      4.44134      0.59997      1.28792         0.006177     -0.000681      0.005357
     11.58807      0.59998      1.26420         0.006180     -0.000662      0.005356
      4.44133      9.60210      1.28794         0.006671     -0.001188      0.005626
     11.58807      9.60210      1.26421         0.006242     -0.000650      0.005346
     -0.31478      2.54341      8.38660         0.005289      0.009899     -0.001337
      6.83196      2.54341      8.36288         0.005337      0.009951     -0.001241
     -0.31478     11.54554      8.38662         0.005295      0.009911     -0.001340
      6.83195     11.54554      8.36289         0.005285      0.009916     -0.001332
      1.48802      7.04447      9.73096        -0.005396      0.009895      0.001293
      8.63475      7.04447      9.70723        -0.005235      0.009865      0.001327
      1.48801     16.04660      9.73097        -0.005286      0.009905      0.001344
      8.63475     16.04660      9.70725        -0.005296      0.009905      0.001342
      5.86143      6.45870      3.67596        -0.005337     -0.009623      0.001356
     13.00816      6.45870      3.65223        -0.005289     -0.009910      0.001337
      5.86142     15.46082      3.67597        -0.005288     -0.009907      0.001340
     13.00816     15.46082      3.65224        -0.005293     -0.009907      0.001334
      4.05863      1.95763      2.33160         0.005275     -0.009916     -0.001324
     11.20537      1.95764      2.30788         0.005298     -0.009897     -0.001340
      4.05863     10.95976      2.33162         0.005284     -0.009858     -0.001256
     11.20536     10.95976      2.30789         0.005264     -0.009905     -0.001367
      5.57675      3.74409      7.99827        -0.014499      0.010411      0.007069
     12.72348      3.74409      7.97455        -0.014503      0.010402      0.007058
      5.57674     12.74621      7.99829        -0.014506      0.010387      0.007055
     12.72348     12.74622      7.97456        -0.014512      0.010394      0.007050
      2.74323      8.24515     10.09557         0.014495      0.010601     -0.006956
      9.88996      8.24515     10.07184         0.014485      0.010346     -0.007009
      2.74322     17.24727     10.09558         0.014512      0.010380     -0.007051
      9.88996     17.24727     10.07186         0.014507      0.010397     -0.007053
     -0.03010      5.25802      4.06429         0.014514     -0.010387     -0.007044
      7.11664      5.25802      4.04056         0.014520     -0.010461     -0.006976
     -0.03010     14.26014      4.06430         0.014513     -0.010403     -0.007052
      7.11663     14.26014      4.04058         0.014515     -0.010401     -0.007044
      2.80342      0.75696      1.96699        -0.014510     -0.010393      0.007047
      9.95016      0.75696      1.94327        -0.014516     -0.010411      0.007053
      2.80342      9.75908      1.96701        -0.014668     -0.010330      0.007190
      9.95015      9.75909      1.94328        -0.014641     -0.010374      0.007126
 -----------------------------------------------------------------------------------
    total drift:                               -0.000002      0.000009     -0.000006


--------------------------------------------------------------------------------------------------------



  FREE ENERGIE OF THE ION-ELECTRON SYSTEM (eV)
  ---------------------------------------------------
  free  energy   TOTEN  =     -1801.03925398 eV

  energy  without entropy=    -1801.03925398  energy(sigma->0) =    -1801.03925398



--------------------------------------------------------------------------------------------------------


    POTLOK:  cpu time      6.5586: real time      6.5617


--------------------------------------------------------------------------------------------------------


 stress matrix after NEB project (eV)
     -0.24806      0.02132     -0.93300
      0.02132     -2.17072     -0.01272
     -0.93299     -0.01272     -4.81732
  FORCES: max atom, RMS     0.610143    0.044195
  FORCE total and by dimension    0.790576    0.576438
  Stress total and by dimension    5.451817    4.817318
     LOOP+:  cpu time    459.0570: real time    459.8498
    4ORBIT:  cpu time      0.0000: real time      0.0000

 total amount of memory used by VASP MPI-rank0    77006. kBytes
=======================================================================

   base      :      30000. kBytes
   nonl-proj :       9375. kBytes
   fftplans  :       7414. kBytes
   grid      :      16932. kBytes
   one-center:          7. kBytes
   wavefun   :      13278. kBytes

  
  
 General timing and accounting informations for this job:
 ========================================================
  
                  Total CPU time used (sec):      484.684
                            User time (sec):      475.700
                          System time (sec):        8.984
                         Elapsed time (sec):      496.204
  
                   Maximum memory used (kb):      483032.
                   Average memory used (kb):          N/A
  
                          Minor page faults:       629882
                          Major page faults:          275
                 Voluntary context switches:         6432
