 vasp.6.4.1 05Apr23 (build Jun  6 2023 14:46:38) gamma-only                      
 executed on        HPECrayEX_GCC date 2024.08.22  06:55:48
 running  512 mpi-ranks, with    1 threads/rank, on    4 nodes
 distrk:  each k-point on  512 cores,    1 groups
 distr:  one band on NCORE=   2 cores,  256 groups


--------------------------------------------------------------------------------------------------------


 INCAR:
   ALGO = Conjugate
   NCORE = 2
   PREC = Accurate
   EDIFF = 1E-7
   ENCUT = 1000
   ISMEAR = 0
   SIGMA = 0.01
   ISIF = 0
   SYMPREC = 1E-7
   GGA = RP
   IVDW = 11
   LWAVE = .FALSE.
   LCHARG = .FALSE.
   LWAVE = .FALSE.
   LCHARG = .FALSE.

 POTCAR:    PAW_PBE C_h 06Feb2004                 
 POTCAR:    PAW_PBE H_h 06Feb2004                 
 POTCAR:    PAW_PBE O_h 06Feb2004                 
 POTCAR:    PAW_PBE C_h 06Feb2004                 
   VRHFIN =C: s2p2                                                                                  
   LEXCH  = PE                                                                                      
   EATOM  =   147.1560 eV,   10.8157 Ry                                                             
                                                                                                    
   TITEL  = PAW_PBE C_h 06Feb2004                                                                   
   LULTRA =        F    use ultrasoft PP ?                                                          
   IUNSCR =        1    unscreen: 0-lin 1-nonlin 2-no                                               
   RPACOR =    0.800    partial core radius                                                         
   POMASS =   12.011; ZVAL   =    4.000    mass and valenz                                          
   RCORE  =    1.100    outmost cutoff radius                                                       
   RWIGS  =    1.630; RWIGS  =    0.863    wigner-seitz radius (au A)                               
   ENMAX  =  700.000; ENMIN  =  500.000 eV                                                          
   ICORE  =        2    local potential                                                             
   LCOR   =        T    correct aug charges                                                         
   LPAW   =        T    paw PP                                                                      
   EAUG   =  946.768                                                                                
   DEXC   =    0.000                                                                                
   RMAX   =    1.128    core radius for proj-oper                                                   
   RAUG   =    1.300    factor for augmentation sphere                                              
   RDEP   =    1.162    radius for radial grids                                                     
   RDEPT  =    1.088    core radius for aug-charge                                                  
                                                                                                    
   Atomic configuration                                                                             
    4 entries                                                                                       
     n  l   j            E        occ.                                                              
     1  0  0.50      -273.3789   2.0000                                                             
     2  0  0.50       -13.7508   2.0000                                                             
     2  1  0.50        -5.2854   2.0000                                                             
     3  2  1.50        -5.4423   0.0000                                                             
   Description                                                                                      
     l       E           TYP  RCUT    TYP  RCUT                                                     
     0    -13.7508458     23  1.100                                                                 
     0     -8.2022199     23  1.100                                                                 
     1     -5.2854383     23  1.100                                                                 
     1      1.1560700     23  1.100                                                                 
     2     -5.4423304      7  1.100                                                                 
  local pseudopotential read in
  partial core-charges read in
  partial kinetic energy density read in
  atomic valenz-charges read in
  non local Contribution for L=           0  read in
    real space projection operators read in
  non local Contribution for L=           0  read in
    real space projection operators read in
  non local Contribution for L=           1  read in
    real space projection operators read in
  non local Contribution for L=           1  read in
    real space projection operators read in
    PAW grid and wavefunctions read in

   number of l-projection  operators is LMAX  =           4
   number of lm-projection operators is LMMAX =           8

 POTCAR:    PAW_PBE H_h 06Feb2004                 
   VRHFIN =H: ultrasoft test                                                                        
   LEXCH  = PE                                                                                      
   EATOM  =    12.4884 eV,    0.9179 Ry                                                             
                                                                                                    
   TITEL  = PAW_PBE H_h 06Feb2004                                                                   
   LULTRA =        F    use ultrasoft PP ?                                                          
   IUNSCR =        0    unscreen: 0-lin 1-nonlin 2-no                                               
   RPACOR =    0.000    partial core radius                                                         
   POMASS =    1.000; ZVAL   =    1.000    mass and valenz                                          
   RCORE  =    0.800    outmost cutoff radius                                                       
   RWIGS  =    0.700; RWIGS  =    0.370    wigner-seitz radius (au A)                               
   ENMAX  =  700.000; ENMIN  =  350.000 eV                                                          
   RCLOC  =    0.701    cutoff for local pot                                                        
   LCOR   =        T    correct aug charges                                                         
   LPAW   =        T    paw PP                                                                      
   EAUG   = 1000.000                                                                                
   RMAX   =    0.819    core radius for proj-oper                                                   
   RAUG   =    1.000    factor for augmentation sphere                                              
   RDEP   =    0.817    radius for radial grids                                                     
   RDEPT  =    0.817    core radius for aug-charge                                                  
                                                                                                    
   Atomic configuration                                                                             
    2 entries                                                                                       
     n  l   j            E        occ.                                                              
     1  0  0.50        -6.4927   1.0000                                                             
     2  1  0.50        -3.4015   0.0000                                                             
   Description                                                                                      
     l       E           TYP  RCUT    TYP  RCUT                                                     
     0     -6.4927493     23  0.800                                                                 
     0      6.8029130     23  0.800                                                                 
     1     -6.8029130     23  0.800                                                                 
  local pseudopotential read in
  atomic valenz-charges read in
  non local Contribution for L=           0  read in
    real space projection operators read in
  non local Contribution for L=           0  read in
    real space projection operators read in
  non local Contribution for L=           1  read in
    real space projection operators read in
    PAW grid and wavefunctions read in

   number of l-projection  operators is LMAX  =           3
   number of lm-projection operators is LMMAX =           5

 POTCAR:    PAW_PBE O_h 06Feb2004                 
   VRHFIN =O: s2p4                                                                                  
   LEXCH  = PE                                                                                      
   EATOM  =   432.3788 eV,   31.7789 Ry                                                             
                                                                                                    
   TITEL  = PAW_PBE O_h 06Feb2004                                                                   
   LULTRA =        F    use ultrasoft PP ?                                                          
   IUNSCR =        1    unscreen: 0-lin 1-nonlin 2-no                                               
   RPACOR =    0.800    partial core radius                                                         
   POMASS =   16.000; ZVAL   =    6.000    mass and valenz                                          
   RCORE  =    1.100    outmost cutoff radius                                                       
   RWIGS  =    1.400; RWIGS  =    0.741    wigner-seitz radius (au A)                               
   ENMAX  =  700.000; ENMIN  =  500.000 eV                                                          
   ICORE  =        2    local potential                                                             
   LCOR   =        T    correct aug charges                                                         
   LPAW   =        T    paw PP                                                                      
   EAUG   =  888.804                                                                                
   DEXC   =    0.000                                                                                
   RMAX   =    1.128    core radius for proj-oper                                                   
   RAUG   =    1.300    factor for augmentation sphere                                              
   RDEP   =    1.125    radius for radial grids                                                     
   RDEPT  =    1.088    core radius for aug-charge                                                  
                                                                                                    
   Atomic configuration                                                                             
    4 entries                                                                                       
     n  l   j            E        occ.                                                              
     1  0  0.50      -514.6923   2.0000                                                             
     2  0  0.50       -23.9615   2.0000                                                             
     2  1  0.50        -9.0305   4.0000                                                             
     3  2  1.50        -9.5241   0.0000                                                             
   Description                                                                                      
     l       E           TYP  RCUT    TYP  RCUT                                                     
     0    -23.9615319     23  1.100                                                                 
     0    -25.3221145     23  1.100                                                                 
     1     -9.0304911     23  1.100                                                                 
     1     -5.4802209     23  1.100                                                                 
     2     -9.5240782      7  1.100                                                                 
  local pseudopotential read in
  partial core-charges read in
  partial kinetic energy density read in
  atomic valenz-charges read in
  non local Contribution for L=           0  read in
    real space projection operators read in
  non local Contribution for L=           0  read in
    real space projection operators read in
  non local Contribution for L=           1  read in
    real space projection operators read in
  non local Contribution for L=           1  read in
    real space projection operators read in
    PAW grid and wavefunctions read in

   number of l-projection  operators is LMAX  =           4
   number of lm-projection operators is LMMAX =           8

 -----------------------------------------------------------------------------
|                                                                             |
|               ----> ADVICE to this user running VASP <----                  |
|                                                                             |
|     You enforced a specific xc type in the INCAR file but a different       |
|     type was found in the POTCAR file.                                      |
|     I HOPE YOU KNOW WHAT YOU ARE DOING!                                     |
|                                                                             |
 -----------------------------------------------------------------------------

  PAW_PBE C_h 06Feb2004                 :
 energy of atom  1       EATOM= -147.1560
 kinetic energy error for atom=    0.0031 (will be added to EATOM!!)
  PAW_PBE H_h 06Feb2004                 :
 energy of atom  2       EATOM=  -12.4884
 kinetic energy error for atom=    0.0006 (will be added to EATOM!!)
  PAW_PBE O_h 06Feb2004                 :
 energy of atom  3       EATOM= -432.3788
 kinetic energy error for atom=    0.0171 (will be added to EATOM!!)


 POSCAR:  C  H  O
  positions in cartesian coordinates
  No initial velocities read in
 exchange correlation table for  LEXCH =        9
   RHO(1)=    0.500       N(1)  =     2000
   RHO(2)=  100.500       N(2)  =     4000

 VTST: version 4.1, (05/19/21)

 CHAIN: initializing optimizer
 
 OPT: Using VASP Dynamics algorithm
 CHAIN: Read ICHAIN            0

 POSCAR:  C  H  O
  positions in cartesian coordinates
  No initial velocities read in



--------------------------------------------------------------------------------------------------------


 ion  position               nearest neighbor table
   1  0.444  0.465  0.477-   6 1.09   5 1.11  10 1.42  12 1.42
   2  0.530  0.524  0.477-   4 1.09   9 1.11  10 1.42  11 1.42
   3  0.444  0.558  0.525-   7 1.09   8 1.11  12 1.42  11 1.42
   4  0.580  0.522  0.481-   2 1.09
   5  0.428  0.486  0.434-   1 1.11
   6  0.428  0.418  0.481-   1 1.09
   7  0.428  0.582  0.566-   3 1.09
   8  0.428  0.582  0.484-   3 1.11
   9  0.517  0.547  0.434-   2 1.11
  10  0.508  0.464  0.478-   1 1.42   2 1.42
  11  0.508  0.558  0.527-   3 1.42   2 1.42
  12  0.420  0.498  0.527-   3 1.42   1 1.42

  LATTYP: Found a simple cubic cell.
 ALAT       =    22.0000000000
  
  Lattice vectors:
  
 A1 = (  22.0000000000,   0.0000000000,   0.0000000000)
 A2 = (   0.0000000000,  22.0000000000,   0.0000000000)
 A3 = (   0.0000000000,   0.0000000000,  22.0000000000)


Analysis of symmetry for initial positions (statically):
=====================================================================
 Subroutine PRICEL returns:
 Original cell was already a primitive cell.
 

 Routine SETGRP: Setting up the symmetry group for a 
 simple cubic supercell.


 Subroutine GETGRP returns: Found  1 space group operations
 (whereof  1 operations were pure point group operations)
 out of a pool of 48 trial point group operations.


The static configuration has the point symmetry C_1 .


Analysis of symmetry for dynamics (positions and initial velocities):
=====================================================================
 Subroutine PRICEL returns:
 Original cell was already a primitive cell.
 

 Routine SETGRP: Setting up the symmetry group for a 
 simple cubic supercell.


 Subroutine GETGRP returns: Found  1 space group operations
 (whereof  1 operations were pure point group operations)
 out of a pool of 48 trial point group operations.


The dynamic configuration has the point symmetry C_1 .


 Subroutine INISYM returns: Found  1 space group operations
 (whereof  1 operations are pure point group operations),
 and found     1 'primitive' translations


----------------------------------------------------------------------------------------

                                     Primitive cell                                     

  volume of cell :   10648.0000

  direct lattice vectors                    reciprocal lattice vectors
    22.000000000  0.000000000  0.000000000     0.045454545  0.000000000  0.000000000
     0.000000000 22.000000000  0.000000000     0.000000000  0.045454545  0.000000000
     0.000000000  0.000000000 22.000000000     0.000000000  0.000000000  0.045454545

  length of vectors
    22.000000000 22.000000000 22.000000000     0.045454545  0.045454545  0.045454545

  position of ions in fractional coordinates (direct lattice)
     0.443610682  0.465137045  0.476809773
     0.530442500  0.524328409  0.476777045
     0.443687045  0.558299773  0.525434318
     0.579831136  0.522132045  0.480906591
     0.427778409  0.486202500  0.433834318
     0.427617045  0.418355682  0.480904773
     0.427776136  0.581644318  0.566210227
     0.427792955  0.581544773  0.483626136
     0.516631136  0.546735682  0.433789773
     0.508062500  0.463873864  0.477642500
     0.508148409  0.558316136  0.526835227
     0.420168864  0.498286591  0.526896591

  ion indices of the primitive-cell ions
   primitive index   ion index
                 1           1
                 2           2
                 3           3
                 4           4
                 5           5
                 6           6
                 7           7
                 8           8
                 9           9
                10          10
                11          11
                12          12

----------------------------------------------------------------------------------------



 KPOINTS: auto                                    

Automatic generation of k-mesh.
 Grid dimensions read from file:
 generate k-points for:    1    1    1

 Generating k-lattice:

  Cartesian coordinates                     Fractional coordinates (reciprocal lattice)
     0.045454545  0.000000000  0.000000000     1.000000000  0.000000000  0.000000000
     0.000000000  0.045454545  0.000000000     0.000000000  1.000000000  0.000000000
     0.000000000  0.000000000  0.045454545     0.000000000  0.000000000  1.000000000

  Length of vectors
     0.045454545  0.045454545  0.045454545

  Shift w.r.t. Gamma in fractional coordinates (k-lattice)
     0.000000000  0.000000000  0.000000000

 
 Subroutine IBZKPT returns following result:
 ===========================================
 
 Found      1 irreducible k-points:
 
 Following reciprocal coordinates:
            Coordinates               Weight
  0.000000  0.000000  0.000000      1.000000
 
 Following cartesian coordinates:
            Coordinates               Weight
  0.000000  0.000000  0.000000      1.000000
 


--------------------------------------------------------------------------------------------------------




 Dimension of arrays:
   k-points           NKPTS =      1   k-points in BZ     NKDIM =      1   number of bands    NBANDS=    256
   number of dos      NEDOS =    301   number of ions     NIONS =     12
   non local maximal  LDIM  =      4   non local SUM 2l+1 LMDIM =      8
   total plane-waves  NPLWV = ******
   max r-space proj   IRMAX =      1   max aug-charges    IRDMAX=   9667
   dimension x,y,z NGX =   240 NGY =  240 NGZ =  240
   dimension x,y,z NGXF=   480 NGYF=  480 NGZF=  480
   support grid    NGXF=   480 NGYF=  480 NGZF=  480
   ions per type =               3   6   3
   NGX,Y,Z   is equivalent  to a cutoff of  18.14, 18.14, 18.14 a.u.
   NGXF,Y,Z  is equivalent  to a cutoff of  36.27, 36.27, 36.27 a.u.

 SYSTEM =  unknown system                          
 POSCAR =   C  H  O                                

 Startparameter for this run:
   NWRITE =      2    write-flag & timer
   PREC   = accura    normal or accurate (medium, high low for compatibility)
   ISTART =      0    job   : 0-new  1-cont  2-samecut
   ICHARG =      2    charge: 1-file 2-atom 10-const
   ISPIN  =      1    spin polarized calculation?
   LNONCOLLINEAR =      F non collinear calculations
   LSORBIT =      F    spin-orbit coupling
   INIWAV =      1    electr: 0-lowe 1-rand  2-diag
   LASPH  =      F    aspherical Exc in radial PAW
 Electronic Relaxation 1
   ENCUT  = 1000.0 eV  73.50 Ry    8.57 a.u.  56.73 56.73 56.73*2*pi/ulx,y,z
   ENINI  = 1000.0     initial cutoff
   ENAUG  = 1000.0 eV  augmentation charge cutoff
   NELM   =     60;   NELMIN=  2; NELMDL= -5     # of ELM steps 
   EDIFF  = 0.1E-06   stopping-criterion for ELM
   LREAL  =      F    real-space projection
   NLSPLINE    = F    spline interpolate recip. space projectors
   LCOMPAT=      F    compatible to vasp.4.4
   GGA_COMPAT  = T    GGA compatible to vasp.4.4-vasp.4.6
   LMAXPAW     = -100 max onsite density
   LMAXMIX     =    2 max onsite mixed and CHGCAR
   VOSKOWN=      0    Vosko Wilk Nusair interpolation
   ROPT   =    0.00000   0.00000   0.00000
 Ionic relaxation
   EDIFFG = 0.1E-05   stopping-criterion for IOM
   NSW    =      0    number of steps for IOM
   NBLOCK =      1;   KBLOCK =      1    inner block; outer block 
   IBRION =     -1    ionic relax: 0-MD 1-quasi-New 2-CG
   NFREE  =      0    steps in history (QN), initial steepest desc. (CG)
   ISIF   =      0    stress and relaxation
   IWAVPR =     10    prediction:  0-non 1-charg 2-wave 3-comb
   ISYM   =      2    0-nonsym 1-usesym 2-fastsym
   LCORR  =      T    Harris-Foulkes like correction to forces

   POTIM  = 0.5000    time-step for ionic-motion
   TEIN   =    0.0    initial temperature
   TEBEG  =    0.0;   TEEND  =   0.0 temperature during run
   SMASS  =  -3.00    Nose mass-parameter (am)
   estimated Nose-frequenzy (Omega)   =  0.10E-29 period in steps = 0.13E+47 mass=  -0.111E-25a.u.
   SCALEE = 1.0000    scale energy and forces
   NPACO  =    256;   APACO  = 10.0  distance and # of slots for P.C.
   PSTRESS=    0.0 pullay stress

  Mass of Ions in am
   POMASS =  12.01  1.00 16.00
  Ionic Valenz
   ZVAL   =   4.00  1.00  6.00
  Atomic Wigner-Seitz radii
   RWIGS  =  -1.00 -1.00 -1.00
  virtual crystal weights 
   VCA    =   1.00  1.00  1.00
   NELECT =      36.0000    total number of electrons
   NUPDOWN=      -1.0000    fix difference up-down

 DOS related values:
   EMIN   =  10.00;   EMAX   =-10.00  energy-range for DOS
   EFERMI =   0.00;   METHOD = LEGACY      
   ISMEAR =     0;   SIGMA  =   0.01  broadening in eV -4-tet -1-fermi 0-gaus

 Electronic relaxation 2 (details)
   IALGO  =     58    algorithm
   LDIAG  =      T    sub-space diagonalisation (order eigenvalues)
   LSUBROT=      F    optimize rotation matrix (better conditioning)
   TURBO    =      0    0=normal 1=particle mesh
   IRESTART =      0    0=no restart 2=restart with 2 vectors
   NREBOOT  =      0    no. of reboots
   NMIN     =      0    reboot dimension
   EREF     =   0.00    reference energy to select bands
   IMIX   =      4    mixing-type and parameters
     AMIX     =   0.40;   BMIX     =  1.00
     AMIX_MAG =   1.60;   BMIX_MAG =  1.00
     AMIN     =   0.10
     WC   =   100.;   INIMIX=   1;  MIXPRE=   1;  MAXMIX= -45

 Intra band minimization:
   WEIMIN = 0.0000     energy-eigenvalue tresh-hold
   EBREAK =  0.98E-10  absolut break condition
   DEPER  =   0.30     relativ break condition  

   TIME   =   0.40     timestep for ELM

  volume/ion in A,a.u.               =     887.33      5988.02
  Fermi-wavevector in a.u.,A,eV,Ry     =   0.245708  0.464321  0.821418  0.060373
  Thomas-Fermi vector in A             =   1.056973

 Write flags
   LWAVE        =      F    write WAVECAR
   LDOWNSAMPLE  =      F    k-point downsampling of WAVECAR
   LCHARG       =      F    write CHGCAR
   LVTOT        =      F    write LOCPOT, total local potential
   LVHAR        =      F    write LOCPOT, Hartree potential only
   LELF         =      F    write electronic localiz. function (ELF)
   LORBIT       =      0    0 simple, 1 ext, 2 COOP (PROOUT), +10 PAW based schemes


 Dipole corrections
   LMONO  =      F    monopole corrections only (constant potential shift)
   LDIPOL =      F    correct potential (dipole corrections)
   IDIPOL =      0    1-x, 2-y, 3-z, 4-all directions 
   EPSILON=  1.0000000 bulk dielectric constant

 Exchange correlation treatment:
   GGA     =    RP    GGA type
   LEXCH   =     9    internal setting for exchange type
   LIBXC   =     F    Libxc                    
   VOSKOWN =     0    Vosko Wilk Nusair interpolation
   LHFCALC =     F    Hartree Fock is set to
   LHFONE  =     F    Hartree Fock one center treatment
   AEXX    =    0.0000 exact exchange contribution

 Linear response parameters
   LEPSILON=     F    determine dielectric tensor
   LRPA    =     F    only Hartree local field effects (RPA)
   LNABLA  =     F    use nabla operator in PAW spheres
   LVEL    =     F    velocity operator in full k-point grid
   CSHIFT  =0.1000    complex shift for real part using Kramers Kronig
   OMEGAMAX=  -1.0    maximum frequency
   DEG_THRESHOLD= 0.2000000E-02 threshold for treating states as degnerate
   RTIME   =   -0.100 relaxation time in fs
  (WPLASMAI=    0.000 imaginary part of plasma frequency in eV, 0.658/RTIME)
   DFIELD  = 0.0000000 0.0000000 0.0000000 field for delta impulse in time

  Optional k-point grid parameters
   LKPOINTS_OPT  =     F    use optional k-point grid
   KPOINTS_OPT_MODE=     1    mode for optional k-point grid

 Orbital magnetization related:
   ORBITALMAG=     F  switch on orbital magnetization
   LCHIMAG   =     F  perturbation theory with respect to B field
   DQ        =  0.001000  dq finite difference perturbation B field
   LLRAUG    =     F  two centre corrections for induced B field
   LBONE     =     F  B-component reconstruction in AE one-centre
   LVGVCALC  =     T  calculate vGv susceptibility
   LVGVAPPL  =     F  apply vGv susceptibility instead of pGv for G=0

 Random number generation:
   RANDOM_GENERATOR = DEFAULT
   PCG_SEED         = not used


--------------------------------------------------------------------------------------------------------


 Static calculation
 charge density and potential will be updated during run
 non-spin polarized calculation
 Conjugate gradient for all bands (Freysoldt, et al. PRB 79, 241103 (2009))
 preconditioned conjugated gradient                                        
 perform sub-space diagonalisation
    before iterative eigenvector-optimisation
 modified Broyden-mixing scheme, WC =      100.0
 initial mixing is a Kerker type mixing with AMIX =  0.4000 and BMIX =      1.0000
 Hartree-type preconditioning will be used
 using additional bands          238
 reciprocal scheme for non local part
 use partial core corrections
 no Harris-corrections to forces 
 use gradient corrections 
 use of overlap-Matrix (Vanderbilt PP)
 Gauss-broadening in eV      SIGMA  =   0.01


--------------------------------------------------------------------------------------------------------


  energy-cutoff  :     1000.00
  volume of cell :    10648.00
      direct lattice vectors                 reciprocal lattice vectors
    22.000000000  0.000000000  0.000000000     0.045454545  0.000000000  0.000000000
     0.000000000 22.000000000  0.000000000     0.000000000  0.045454545  0.000000000
     0.000000000  0.000000000 22.000000000     0.000000000  0.000000000  0.045454545

  length of vectors
    22.000000000 22.000000000 22.000000000     0.045454545  0.045454545  0.045454545



 k-points in units of 2pi/SCALE and weight: auto                                    
   0.00000000  0.00000000  0.00000000       1.000

 k-points in reciprocal lattice and weights: auto                                    
   0.00000000  0.00000000  0.00000000       1.000

 position of ions in fractional coordinates (direct lattice) 
   0.44361068  0.46513705  0.47680977
   0.53044250  0.52432841  0.47677705
   0.44368705  0.55829977  0.52543432
   0.57983114  0.52213205  0.48090659
   0.42777841  0.48620250  0.43383432
   0.42761705  0.41835568  0.48090477
   0.42777614  0.58164432  0.56621023
   0.42779295  0.58154477  0.48362614
   0.51663114  0.54673568  0.43378977
   0.50806250  0.46387386  0.47764250
   0.50814841  0.55831614  0.52683523
   0.42016886  0.49828659  0.52689659

 position of ions in cartesian coordinates  (Angst):
   9.75943500 10.23301500 10.48981500
  11.66973500 11.53522500 10.48909500
   9.76111500 12.28259500 11.55955500
  12.75628500 11.48690500 10.57994500
   9.41112500 10.69645500  9.54435500
   9.40757500  9.20382500 10.57990500
   9.41107500 12.79617500 12.45662500
   9.41144500 12.79398500 10.63977500
  11.36588500 12.02818500  9.54337500
  11.17737500 10.20522500 10.50813500
  11.17926500 12.28295500 11.59037500
   9.24371500 10.96230500 11.59172500



--------------------------------------------------------------------------------------------------------


 use parallel FFT for orbitals z direction half grid
 k-point   1 :   0.0000 0.0000 0.0000  plane waves:  381993

 maximum and minimum number of plane-waves per node :    191003   190990

 maximum number of plane-waves:    381993
 maximum index in each direction: 
   IXMAX=   56   IYMAX=   56   IZMAX=   56
   IXMIN=  -56   IYMIN=  -56   IZMIN=    0


 parallel 3D FFT for wavefunctions:
    minimum data exchange during FFTs selected (reduces bandwidth)
 parallel 3D FFT for charge:
    minimum data exchange during FFTs selected (reduces bandwidth)


 total amount of memory used by VASP MPI-rank0   556134. kBytes
=======================================================================

   base      :      30000. kBytes
   nonl-proj :      73433. kBytes
   fftplans  :     151777. kBytes
   grid      :     291732. kBytes
   one-center:          9. kBytes
   wavefun   :       9183. kBytes

     INWAV:  cpu time      0.0001: real time      0.0001
 Broyden mixing: mesh for mixing (old mesh)
   NGX =113   NGY =113   NGZ =113
  (NGX  =480   NGY  =480   NGZ  =480)
  gives a total of ****** points

 initial charge density was supplied:
 charge density of overlapping atoms calculated
 number of electron      36.0000000 magnetization 
 keeping initial charge density in first step


--------------------------------------------------------------------------------------------------------


 Maximum index for augmentation-charges            0 (set IRDMAX)


--------------------------------------------------------------------------------------------------------


 First call to EWALD:  gamma=   0.081
 Maximum number of real-space cells 3x 3x 3
 Maximum number of reciprocal cells 3x 3x 3

    FEWALD:  cpu time      0.0035: real time      0.0035


--------------------------------------- Ionic step        1  -------------------------------------------




--------------------------------------- Iteration      1(   1)  ---------------------------------------


    POTLOK:  cpu time      0.8650: real time      0.8667
    SETDIJ:  cpu time      0.0106: real time      0.0108
    TRIAL :  cpu time      5.7167: real time      5.7213
    CORREC:  cpu time      0.0025: real time      0.0025
    --------------------------------------------
      LOOP:  cpu time      6.6061: real time      6.6129

 eigenvalue-minimisations  :   512
 total energy-change (2. order) : 0.4174196E+03  (-0.1500663E+04)
 number of electron      36.0000000 magnetization 
 augmentation part       36.0000000 magnetization 

 Free energy of the ion-electron system (eV)
  ---------------------------------------------------
  alpha Z        PSCENC =         0.34590649
  Ewald energy   TEWEN  =      2898.72375109
  -Hartree energ DENC   =     -4279.26319512
  -exchange      EXHF   =         0.00000000
  -V(xc)+E(xc)   XCENC  =       113.10898351
  PAW double counting   =      1390.51320615    -1377.31929996
  entropy T*S    EENTRO =        -0.00003002
  eigenvalues    EBANDS =      -142.44994397
  atomic energy  EATOM  =      1813.76025938
  ---------------------------------------------------
  free energy    TOTEN  =       417.41963754 eV

  energy without entropy =      417.41966756  energy(sigma->0) =      417.41965255


--------------------------------------------------------------------------------------------------------




--------------------------------------- Iteration      1(   2)  ---------------------------------------


    TRIAL :  cpu time     14.8830: real time     14.8912
    CORREC:  cpu time      0.0032: real time      0.0032
    --------------------------------------------
      LOOP:  cpu time     14.9023: real time     14.9259

 eigenvalue-minimisations  :  1024
 total energy-change (2. order) :-0.4776246E+03  (-0.4776198E+03)
 number of electron      36.0000000 magnetization 
 augmentation part       36.0000000 magnetization 

 Free energy of the ion-electron system (eV)
  ---------------------------------------------------
  alpha Z        PSCENC =         0.34590649
  Ewald energy   TEWEN  =      2898.72375109
  -Hartree energ DENC   =     -4279.26319512
  -exchange      EXHF   =         0.00000000
  -V(xc)+E(xc)   XCENC  =       113.10898351
  PAW double counting   =      1390.51320615    -1377.31929996
  entropy T*S    EENTRO =        -0.00000000
  eigenvalues    EBANDS =      -620.07459160
  atomic energy  EATOM  =      1813.76025938
  ---------------------------------------------------
  free energy    TOTEN  =       -60.20498007 eV

  energy without entropy =      -60.20498007  energy(sigma->0) =      -60.20498007


--------------------------------------------------------------------------------------------------------




--------------------------------------- Iteration      1(   3)  ---------------------------------------


    TRIAL :  cpu time      5.8808: real time      5.8832
    CORREC:  cpu time      0.0033: real time      0.0035
    --------------------------------------------
      LOOP:  cpu time      5.9023: real time      5.9221

 eigenvalue-minimisations  :   512
 total energy-change (2. order) :-0.1117459E+02  (-0.1117459E+02)
 number of electron      36.0000000 magnetization 
 augmentation part       36.0000000 magnetization 

 Free energy of the ion-electron system (eV)
  ---------------------------------------------------
  alpha Z        PSCENC =         0.34590649
  Ewald energy   TEWEN  =      2898.72375109
  -Hartree energ DENC   =     -4279.26319512
  -exchange      EXHF   =         0.00000000
  -V(xc)+E(xc)   XCENC  =       113.10898351
  PAW double counting   =      1390.51320615    -1377.31929996
  entropy T*S    EENTRO =        -0.00000000
  eigenvalues    EBANDS =      -631.24917983
  atomic energy  EATOM  =      1813.76025938
  ---------------------------------------------------
  free energy    TOTEN  =       -71.37956830 eV

  energy without entropy =      -71.37956830  energy(sigma->0) =      -71.37956830


--------------------------------------------------------------------------------------------------------




--------------------------------------- Iteration      1(   4)  ---------------------------------------


    TRIAL :  cpu time     14.6086: real time     14.6151
    CORREC:  cpu time      0.0033: real time      0.0033
    --------------------------------------------
      LOOP:  cpu time     14.6338: real time     14.6540

 eigenvalue-minimisations  :  1024
 total energy-change (2. order) :-0.9208606E-01  (-0.9208606E-01)
 number of electron      36.0000000 magnetization 
 augmentation part       36.0000000 magnetization 

 Free energy of the ion-electron system (eV)
  ---------------------------------------------------
  alpha Z        PSCENC =         0.34590649
  Ewald energy   TEWEN  =      2898.72375109
  -Hartree energ DENC   =     -4279.26319512
  -exchange      EXHF   =         0.00000000
  -V(xc)+E(xc)   XCENC  =       113.10898351
  PAW double counting   =      1390.51320615    -1377.31929996
  entropy T*S    EENTRO =        -0.00000000
  eigenvalues    EBANDS =      -631.34126589
  atomic energy  EATOM  =      1813.76025938
  ---------------------------------------------------
  free energy    TOTEN  =       -71.47165436 eV

  energy without entropy =      -71.47165436  energy(sigma->0) =      -71.47165436


--------------------------------------------------------------------------------------------------------




--------------------------------------- Iteration      1(   5)  ---------------------------------------


    TRIAL :  cpu time      5.8204: real time      5.8235
    CORREC:  cpu time      0.0002: real time      0.0002
    CHARGE:  cpu time      1.4161: real time      1.4172
    --------------------------------------------
      LOOP:  cpu time      7.2579: real time      7.2759

 eigenvalue-minimisations  :   512
 total energy-change (2. order) :-0.5048951E-05  (-0.5049449E-05)
 number of electron      36.0000000 magnetization 
 augmentation part        0.2061729 magnetization 

 Free energy of the ion-electron system (eV)
  ---------------------------------------------------
  alpha Z        PSCENC =         0.34590649
  Ewald energy   TEWEN  =      2898.72375109
  -Hartree energ DENC   =     -4279.26319512
  -exchange      EXHF   =         0.00000000
  -V(xc)+E(xc)   XCENC  =       113.10898351
  PAW double counting   =      1390.51320615    -1377.31929996
  entropy T*S    EENTRO =        -0.00000000
  eigenvalues    EBANDS =      -631.34127094
  atomic energy  EATOM  =      1813.76025938
  ---------------------------------------------------
  free energy    TOTEN  =       -71.47165941 eV

  energy without entropy =      -71.47165941  energy(sigma->0) =      -71.47165941


--------------------------------------------------------------------------------------------------------




--------------------------------------- Iteration      1(   6)  ---------------------------------------


    POTLOK:  cpu time      0.4656: real time      0.4665
    SETDIJ:  cpu time      0.0109: real time      0.0109
    TRIAL :  cpu time      2.8202: real time      2.8225
    CORREC:  cpu time      2.5492: real time      2.5515
    CHARGE:  cpu time      1.3787: real time      1.3794
    --------------------------------------------
      LOOP:  cpu time      7.2408: real time      7.2611

 eigenvalue-minimisations  :     0
 total energy-change (2. order) : 0.7999581E+01  (-0.2676625E+01)
 number of electron      36.0000000 magnetization 
 augmentation part        0.1549353 magnetization 

 Free energy of the ion-electron system (eV)
  ---------------------------------------------------
  alpha Z        PSCENC =         0.34590649
  Ewald energy   TEWEN  =      2898.72375109
  -Hartree energ DENC   =     -4532.26010301
  -exchange      EXHF   =         0.00000000
  -V(xc)+E(xc)   XCENC  =       124.06838625
  PAW double counting   =     15710.81405723   -15699.12748360
  entropy T*S    EENTRO =        -0.00000000
  eigenvalues    EBANDS =      -379.79685179
  atomic energy  EATOM  =      1813.76025938
  ---------------------------------------------------
  free energy    TOTEN  =       -63.47207796 eV

  energy without entropy =      -63.47207796  energy(sigma->0) =      -63.47207796


--------------------------------------------------------------------------------------------------------




--------------------------------------- Iteration      1(   7)  ---------------------------------------


    POTLOK:  cpu time      0.4327: real time      0.4327
    SETDIJ:  cpu time      0.0017: real time      0.0017
    TRIAL :  cpu time      2.6826: real time      2.6845
    CORREC:  cpu time      2.5245: real time      2.5255
    CHARGE:  cpu time      1.3853: real time      1.3861
    --------------------------------------------
      LOOP:  cpu time      7.0604: real time      7.0645

 eigenvalue-minimisations  :     0
 total energy-change (2. order) :-0.2689950E+01  (-0.4898895E+00)
 number of electron      36.0000000 magnetization 
 augmentation part        0.1319501 magnetization 

 Free energy of the ion-electron system (eV)
  ---------------------------------------------------
  alpha Z        PSCENC =         0.34590649
  Ewald energy   TEWEN  =      2898.72375109
  -Hartree energ DENC   =     -4438.24553385
  -exchange      EXHF   =         0.00000000
  -V(xc)+E(xc)   XCENC  =       120.31625696
  PAW double counting   =     18323.00336159   -18310.65796724
  entropy T*S    EENTRO =        -0.00000000
  eigenvalues    EBANDS =      -473.40806220
  atomic energy  EATOM  =      1813.76025938
  ---------------------------------------------------
  free energy    TOTEN  =       -66.16202778 eV

  energy without entropy =      -66.16202778  energy(sigma->0) =      -66.16202778


--------------------------------------------------------------------------------------------------------




--------------------------------------- Iteration      1(   8)  ---------------------------------------


    POTLOK:  cpu time      0.4415: real time      0.4416
    SETDIJ:  cpu time      0.0016: real time      0.0016
    TRIAL :  cpu time      2.6903: real time      2.6924
    CORREC:  cpu time      2.5181: real time      2.5190
    CHARGE:  cpu time      1.3674: real time      1.3680
    --------------------------------------------
      LOOP:  cpu time      7.0355: real time      7.0537

 eigenvalue-minimisations  :     0
 total energy-change (2. order) :-0.4911630E+00  (-0.2494491E+00)
 number of electron      36.0000000 magnetization 
 augmentation part        0.1325029 magnetization 

 Free energy of the ion-electron system (eV)
  ---------------------------------------------------
  alpha Z        PSCENC =         0.34590649
  Ewald energy   TEWEN  =      2898.72375109
  -Hartree energ DENC   =     -4429.12455256
  -exchange      EXHF   =         0.00000000
  -V(xc)+E(xc)   XCENC  =       119.89363928
  PAW double counting   =     18658.82219630   -18646.32411398
  entropy T*S    EENTRO =        -0.00000000
  eigenvalues    EBANDS =      -482.75027675
  atomic energy  EATOM  =      1813.76025938
  ---------------------------------------------------
  free energy    TOTEN  =       -66.65319075 eV

  energy without entropy =      -66.65319075  energy(sigma->0) =      -66.65319075


--------------------------------------------------------------------------------------------------------




--------------------------------------- Iteration      1(   9)  ---------------------------------------


    POTLOK:  cpu time      0.4369: real time      0.4369
    SETDIJ:  cpu time      0.0017: real time      0.0017
    TRIAL :  cpu time      2.6872: real time      2.6889
    CORREC:  cpu time      2.5234: real time      2.5244
    CHARGE:  cpu time      1.3821: real time      1.3823
    --------------------------------------------
      LOOP:  cpu time      7.0460: real time      7.0647

 eigenvalue-minimisations  :     0
 total energy-change (2. order) :-0.2472031E+00  (-0.9212186E-01)
 number of electron      36.0000000 magnetization 
 augmentation part        0.1352844 magnetization 

 Free energy of the ion-electron system (eV)
  ---------------------------------------------------
  alpha Z        PSCENC =         0.34590649
  Ewald energy   TEWEN  =      2898.72375109
  -Hartree energ DENC   =     -4422.48824040
  -exchange      EXHF   =         0.00000000
  -V(xc)+E(xc)   XCENC  =       119.56409496
  PAW double counting   =     18952.33944294   -18939.81303160
  entropy T*S    EENTRO =        -0.00000000
  eigenvalues    EBANDS =      -489.33257674
  atomic energy  EATOM  =      1813.76025938
  ---------------------------------------------------
  free energy    TOTEN  =       -66.90039388 eV

  energy without entropy =      -66.90039388  energy(sigma->0) =      -66.90039388


--------------------------------------------------------------------------------------------------------




--------------------------------------- Iteration      1(  10)  ---------------------------------------


    POTLOK:  cpu time      0.4442: real time      0.4442
    SETDIJ:  cpu time      0.0017: real time      0.0017
    TRIAL :  cpu time      2.6759: real time      2.6775
    CORREC:  cpu time      2.5167: real time      2.5180
    CHARGE:  cpu time      1.3772: real time      1.3777
    --------------------------------------------
      LOOP:  cpu time      7.0466: real time      7.0504

 eigenvalue-minimisations  :     0
 total energy-change (2. order) :-0.9127815E-01  (-0.2469444E-01)
 number of electron      36.0000000 magnetization 
 augmentation part        0.1370233 magnetization 

 Free energy of the ion-electron system (eV)
  ---------------------------------------------------
  alpha Z        PSCENC =         0.34590649
  Ewald energy   TEWEN  =      2898.72375109
  -Hartree energ DENC   =     -4416.07303289
  -exchange      EXHF   =         0.00000000
  -V(xc)+E(xc)   XCENC  =       119.37966711
  PAW double counting   =     18422.74959433   -18410.23943142
  entropy T*S    EENTRO =        -0.00000000
  eigenvalues    EBANDS =      -495.63838611
  atomic energy  EATOM  =      1813.76025938
  ---------------------------------------------------
  free energy    TOTEN  =       -66.99167203 eV

  energy without entropy =      -66.99167203  energy(sigma->0) =      -66.99167203


--------------------------------------------------------------------------------------------------------




--------------------------------------- Iteration      1(  11)  ---------------------------------------


    POTLOK:  cpu time      0.4451: real time      0.4451
    SETDIJ:  cpu time      0.0016: real time      0.0016
    TRIAL :  cpu time      2.6785: real time      2.6804
    CORREC:  cpu time      2.5325: real time      2.5337
    CHARGE:  cpu time      1.3902: real time      1.3906
    --------------------------------------------
      LOOP:  cpu time      7.0660: real time      7.0822

 eigenvalue-minimisations  :     0
 total energy-change (2. order) :-0.2466430E-01  (-0.7033258E-02)
 number of electron      36.0000000 magnetization 
 augmentation part        0.1377937 magnetization 

 Free energy of the ion-electron system (eV)
  ---------------------------------------------------
  alpha Z        PSCENC =         0.34590649
  Ewald energy   TEWEN  =      2898.72375109
  -Hartree energ DENC   =     -4414.32495269
  -exchange      EXHF   =         0.00000000
  -V(xc)+E(xc)   XCENC  =       119.36645903
  PAW double counting   =     17990.37796978   -17977.89047166
  entropy T*S    EENTRO =        -0.00000000
  eigenvalues    EBANDS =      -497.37525775
  atomic energy  EATOM  =      1813.76025938
  ---------------------------------------------------
  free energy    TOTEN  =       -67.01633633 eV

  energy without entropy =      -67.01633633  energy(sigma->0) =      -67.01633633


--------------------------------------------------------------------------------------------------------




--------------------------------------- Iteration      1(  12)  ---------------------------------------


    POTLOK:  cpu time      0.4538: real time      0.4539
    SETDIJ:  cpu time      0.0017: real time      0.0017
    TRIAL :  cpu time      2.6755: real time      2.6774
    CORREC:  cpu time      2.5482: real time      2.5495
    CHARGE:  cpu time      1.3811: real time      1.3814
    --------------------------------------------
      LOOP:  cpu time      7.0795: real time      7.0946

 eigenvalue-minimisations  :     0
 total energy-change (2. order) :-0.7036039E-02  (-0.2171668E-02)
 number of electron      36.0000000 magnetization 
 augmentation part        0.1375681 magnetization 

 Free energy of the ion-electron system (eV)
  ---------------------------------------------------
  alpha Z        PSCENC =         0.34590649
  Ewald energy   TEWEN  =      2898.72375109
  -Hartree energ DENC   =     -4414.18169177
  -exchange      EXHF   =         0.00000000
  -V(xc)+E(xc)   XCENC  =       119.37049804
  PAW double counting   =     17887.47863369   -17875.00079051
  entropy T*S    EENTRO =        -0.00000000
  eigenvalues    EBANDS =      -497.51993878
  atomic energy  EATOM  =      1813.76025938
  ---------------------------------------------------
  free energy    TOTEN  =       -67.02337237 eV

  energy without entropy =      -67.02337237  energy(sigma->0) =      -67.02337237


--------------------------------------------------------------------------------------------------------




--------------------------------------- Iteration      1(  13)  ---------------------------------------


    POTLOK:  cpu time      0.4376: real time      0.4380
    SETDIJ:  cpu time      0.0016: real time      0.0016
    TRIAL :  cpu time      2.6886: real time      2.6898
    CORREC:  cpu time      2.5176: real time      2.5188
    CHARGE:  cpu time      1.3719: real time      1.3722
    --------------------------------------------
      LOOP:  cpu time      7.0328: real time      7.0521

 eigenvalue-minimisations  :     0
 total energy-change (2. order) :-0.2172279E-02  (-0.7376153E-03)
 number of electron      36.0000000 magnetization 
 augmentation part        0.1373006 magnetization 

 Free energy of the ion-electron system (eV)
  ---------------------------------------------------
  alpha Z        PSCENC =         0.34590649
  Ewald energy   TEWEN  =      2898.72375109
  -Hartree energ DENC   =     -4414.25178751
  -exchange      EXHF   =         0.00000000
  -V(xc)+E(xc)   XCENC  =       119.37098584
  PAW double counting   =     17916.29422321   -17903.81633283
  entropy T*S    EENTRO =        -0.00000000
  eigenvalues    EBANDS =      -497.45255032
  atomic energy  EATOM  =      1813.76025938
  ---------------------------------------------------
  free energy    TOTEN  =       -67.02554465 eV

  energy without entropy =      -67.02554465  energy(sigma->0) =      -67.02554465


--------------------------------------------------------------------------------------------------------




--------------------------------------- Iteration      1(  14)  ---------------------------------------


    POTLOK:  cpu time      0.4337: real time      0.4340
    SETDIJ:  cpu time      0.0016: real time      0.0016
    TRIAL :  cpu time      2.6766: real time      2.6778
    CORREC:  cpu time      2.5067: real time      2.5080
    CHARGE:  cpu time      1.3873: real time      1.3878
    --------------------------------------------
      LOOP:  cpu time      7.0223: real time      7.0394

 eigenvalue-minimisations  :     0
 total energy-change (2. order) :-0.7367766E-03  (-0.2579079E-03)
 number of electron      36.0000000 magnetization 
 augmentation part        0.1371613 magnetization 

 Free energy of the ion-electron system (eV)
  ---------------------------------------------------
  alpha Z        PSCENC =         0.34590649
  Ewald energy   TEWEN  =      2898.72375109
  -Hartree energ DENC   =     -4414.55852917
  -exchange      EXHF   =         0.00000000
  -V(xc)+E(xc)   XCENC  =       119.37907237
  PAW double counting   =     17961.51046415   -17949.03151461
  entropy T*S    EENTRO =        -0.00000000
  eigenvalues    EBANDS =      -497.15569112
  atomic energy  EATOM  =      1813.76025938
  ---------------------------------------------------
  free energy    TOTEN  =       -67.02628143 eV

  energy without entropy =      -67.02628143  energy(sigma->0) =      -67.02628143


--------------------------------------------------------------------------------------------------------




--------------------------------------- Iteration      1(  15)  ---------------------------------------


    POTLOK:  cpu time      0.4312: real time      0.4317
    SETDIJ:  cpu time      0.0016: real time      0.0016
    TRIAL :  cpu time      2.6771: real time      2.6783
    CORREC:  cpu time      2.5095: real time      2.5106
    CHARGE:  cpu time      1.3814: real time      1.3817
    --------------------------------------------
      LOOP:  cpu time      7.0325: real time      7.0359

 eigenvalue-minimisations  :     0
 total energy-change (2. order) :-0.2574536E-03  (-0.7998791E-04)
 number of electron      36.0000000 magnetization 
 augmentation part        0.1371454 magnetization 

 Free energy of the ion-electron system (eV)
  ---------------------------------------------------
  alpha Z        PSCENC =         0.34590649
  Ewald energy   TEWEN  =      2898.72375109
  -Hartree energ DENC   =     -4414.86129855
  -exchange      EXHF   =         0.00000000
  -V(xc)+E(xc)   XCENC  =       119.38756517
  PAW double counting   =     17981.28576853   -17968.80624456
  entropy T*S    EENTRO =        -0.00000000
  eigenvalues    EBANDS =      -496.86224642
  atomic energy  EATOM  =      1813.76025938
  ---------------------------------------------------
  free energy    TOTEN  =       -67.02653888 eV

  energy without entropy =      -67.02653888  energy(sigma->0) =      -67.02653888


--------------------------------------------------------------------------------------------------------




--------------------------------------- Iteration      1(  16)  ---------------------------------------


    POTLOK:  cpu time      0.4233: real time      0.4237
    SETDIJ:  cpu time      0.0024: real time      0.0024
    TRIAL :  cpu time      2.6859: real time      2.6870
    CORREC:  cpu time      2.5111: real time      2.5123
    CHARGE:  cpu time      1.3793: real time      1.3797
    --------------------------------------------
      LOOP:  cpu time      7.0167: real time      7.0357

 eigenvalue-minimisations  :     0
 total energy-change (2. order) :-0.8012756E-04  (-0.2207238E-04)
 number of electron      36.0000000 magnetization 
 augmentation part        0.1371966 magnetization 

 Free energy of the ion-electron system (eV)
  ---------------------------------------------------
  alpha Z        PSCENC =         0.34590649
  Ewald energy   TEWEN  =      2898.72375109
  -Hartree energ DENC   =     -4414.92941521
  -exchange      EXHF   =         0.00000000
  -V(xc)+E(xc)   XCENC  =       119.38931839
  PAW double counting   =     17978.99265034   -17966.51282881
  entropy T*S    EENTRO =        -0.00000000
  eigenvalues    EBANDS =      -496.79626066
  atomic energy  EATOM  =      1813.76025938
  ---------------------------------------------------
  free energy    TOTEN  =       -67.02661901 eV

  energy without entropy =      -67.02661901  energy(sigma->0) =      -67.02661901


--------------------------------------------------------------------------------------------------------




--------------------------------------- Iteration      1(  17)  ---------------------------------------


    POTLOK:  cpu time      0.4260: real time      0.4264
    SETDIJ:  cpu time      0.0017: real time      0.0017
    TRIAL :  cpu time      2.6716: real time      2.6727
    CORREC:  cpu time      2.5152: real time      2.5165
    CHARGE:  cpu time      1.3739: real time      1.3743
    --------------------------------------------
      LOOP:  cpu time      7.0047: real time      7.0223

 eigenvalue-minimisations  :     0
 total energy-change (2. order) :-0.2222528E-04  (-0.6119328E-05)
 number of electron      36.0000000 magnetization 
 augmentation part        0.1372073 magnetization 

 Free energy of the ion-electron system (eV)
  ---------------------------------------------------
  alpha Z        PSCENC =         0.34590649
  Ewald energy   TEWEN  =      2898.72375109
  -Hartree energ DENC   =     -4414.96489945
  -exchange      EXHF   =         0.00000000
  -V(xc)+E(xc)   XCENC  =       119.39076499
  PAW double counting   =     17972.88439164   -17960.40479166
  entropy T*S    EENTRO =        -0.00000000
  eigenvalues    EBANDS =      -496.76202370
  atomic energy  EATOM  =      1813.76025938
  ---------------------------------------------------
  free energy    TOTEN  =       -67.02664123 eV

  energy without entropy =      -67.02664123  energy(sigma->0) =      -67.02664123


--------------------------------------------------------------------------------------------------------




--------------------------------------- Iteration      1(  18)  ---------------------------------------


    POTLOK:  cpu time      0.4270: real time      0.4274
    SETDIJ:  cpu time      0.0016: real time      0.0016
    TRIAL :  cpu time      2.6833: real time      2.6844
    CORREC:  cpu time      2.4928: real time      2.4939
    CHARGE:  cpu time      1.3868: real time      1.3872
    --------------------------------------------
      LOOP:  cpu time      7.0060: real time      7.0251

 eigenvalue-minimisations  :     0
 total energy-change (2. order) :-0.6153403E-05  (-0.1873701E-05)
 number of electron      36.0000000 magnetization 
 augmentation part        0.1371992 magnetization 

 Free energy of the ion-electron system (eV)
  ---------------------------------------------------
  alpha Z        PSCENC =         0.34590649
  Ewald energy   TEWEN  =      2898.72375109
  -Hartree energ DENC   =     -4414.97092762
  -exchange      EXHF   =         0.00000000
  -V(xc)+E(xc)   XCENC  =       119.39108395
  PAW double counting   =     17971.33923812   -17958.85965891
  entropy T*S    EENTRO =        -0.00000000
  eigenvalues    EBANDS =      -496.75629989
  atomic energy  EATOM  =      1813.76025938
  ---------------------------------------------------
  free energy    TOTEN  =       -67.02664739 eV

  energy without entropy =      -67.02664739  energy(sigma->0) =      -67.02664739


--------------------------------------------------------------------------------------------------------




--------------------------------------- Iteration      1(  19)  ---------------------------------------


    POTLOK:  cpu time      0.4257: real time      0.4261
    SETDIJ:  cpu time      0.0016: real time      0.0016
    TRIAL :  cpu time      2.6792: real time      2.6802
    CORREC:  cpu time      2.5071: real time      2.5084
    CHARGE:  cpu time      1.3698: real time      1.3702
    --------------------------------------------
      LOOP:  cpu time      6.9985: real time      7.0170

 eigenvalue-minimisations  :     0
 total energy-change (2. order) :-0.1858474E-05  (-0.6129208E-06)
 number of electron      36.0000000 magnetization 
 augmentation part        0.1371973 magnetization 

 Free energy of the ion-electron system (eV)
  ---------------------------------------------------
  alpha Z        PSCENC =         0.34590649
  Ewald energy   TEWEN  =      2898.72375109
  -Hartree energ DENC   =     -4414.95921303
  -exchange      EXHF   =         0.00000000
  -V(xc)+E(xc)   XCENC  =       119.39074173
  PAW double counting   =     17972.71459552   -17960.23493093
  entropy T*S    EENTRO =        -0.00000000
  eigenvalues    EBANDS =      -496.76775949
  atomic energy  EATOM  =      1813.76025938
  ---------------------------------------------------
  free energy    TOTEN  =       -67.02664925 eV

  energy without entropy =      -67.02664925  energy(sigma->0) =      -67.02664925


--------------------------------------------------------------------------------------------------------




--------------------------------------- Iteration      1(  20)  ---------------------------------------


    POTLOK:  cpu time      0.4241: real time      0.4243
    SETDIJ:  cpu time      0.0016: real time      0.0016
    TRIAL :  cpu time      2.6860: real time      2.6871
    CORREC:  cpu time      2.5191: real time      2.5205
    CHARGE:  cpu time      1.3670: real time      1.3674
    --------------------------------------------
      LOOP:  cpu time      7.0290: real time      7.0323

 eigenvalue-minimisations  :     0
 total energy-change (2. order) :-0.5786187E-06  (-0.1853028E-06)
 number of electron      36.0000000 magnetization 
 augmentation part        0.1371945 magnetization 

 Free energy of the ion-electron system (eV)
  ---------------------------------------------------
  alpha Z        PSCENC =         0.34590649
  Ewald energy   TEWEN  =      2898.72375109
  -Hartree energ DENC   =     -4414.95690822
  -exchange      EXHF   =         0.00000000
  -V(xc)+E(xc)   XCENC  =       119.39070623
  PAW double counting   =     17974.44315647   -17961.96348450
  entropy T*S    EENTRO =        -0.00000000
  eigenvalues    EBANDS =      -496.77003676
  atomic energy  EATOM  =      1813.76025938
  ---------------------------------------------------
  free energy    TOTEN  =       -67.02664982 eV

  energy without entropy =      -67.02664982  energy(sigma->0) =      -67.02664982


--------------------------------------------------------------------------------------------------------




--------------------------------------- Iteration      1(  21)  ---------------------------------------


    POTLOK:  cpu time      0.4205: real time      0.4207
    SETDIJ:  cpu time      0.0017: real time      0.0017
    TRIAL :  cpu time      2.6833: real time      2.6843
    CORREC:  cpu time      2.5296: real time      2.5311
    CHARGE:  cpu time      1.3797: real time      1.3800
    --------------------------------------------
      LOOP:  cpu time      7.0454: real time      7.0488

 eigenvalue-minimisations  :     0
 total energy-change (2. order) :-0.1663775E-06  (-0.5348650E-07)
 number of electron      36.0000000 magnetization 
 augmentation part        0.1371974 magnetization 

 Free energy of the ion-electron system (eV)
  ---------------------------------------------------
  alpha Z        PSCENC =         0.34590649
  Ewald energy   TEWEN  =      2898.72375109
  -Hartree energ DENC   =     -4414.95144060
  -exchange      EXHF   =         0.00000000
  -V(xc)+E(xc)   XCENC  =       119.39049876
  PAW double counting   =     17975.27375458   -17962.79406219
  entropy T*S    EENTRO =        -0.00000000
  eigenvalues    EBANDS =      -496.77531750
  atomic energy  EATOM  =      1813.76025938
  ---------------------------------------------------
  free energy    TOTEN  =       -67.02664999 eV

  energy without entropy =      -67.02664999  energy(sigma->0) =      -67.02664999


--------------------------------------------------------------------------------------------------------




--------------------------------------- Iteration      1(  22)  ---------------------------------------


    POTLOK:  cpu time      0.4247: real time      0.4251
    SETDIJ:  cpu time      0.0016: real time      0.0016
    TRIAL :  cpu time      2.6723: real time      2.6737
    CORREC:  cpu time      2.4954: real time      2.4963
    EDDIAG:  cpu time      1.0929: real time      1.0936
    CHARGE:  cpu time      1.3760: real time      1.3764
    --------------------------------------------
      LOOP:  cpu time      8.0787: real time      8.0970

 eigenvalue-minimisations  :     0
 total energy-change (2. order) :-0.4638423E-07  (-0.1678272E-07)
 number of electron      36.0000000 magnetization 
 augmentation part        0.1371987 magnetization 

 Free energy of the ion-electron system (eV)
  ---------------------------------------------------
  alpha Z        PSCENC =         0.34590649
  Ewald energy   TEWEN  =      2898.72375109
  -Hartree energ DENC   =     -4414.95172073
  -exchange      EXHF   =         0.00000000
  -V(xc)+E(xc)   XCENC  =       119.39051805
  PAW double counting   =     17975.21257066   -17962.73290197
  entropy T*S    EENTRO =        -0.00000000
  eigenvalues    EBANDS =      -496.77503300
  atomic energy  EATOM  =      1813.76025938
  ---------------------------------------------------
  free energy    TOTEN  =       -67.02665004 eV

  energy without entropy =      -67.02665004  energy(sigma->0) =      -67.02665004


--------------------------------------------------------------------------------------------------------


  average scaling for gradient   1.6481


 average (electrostatic) potential at core
  the test charge radii are     0.5770  0.4325  0.5955
  (the norm of the test charge is              1.0000)
       1 -88.7859       2 -88.7856       3 -88.7850       4 -45.6728       5 -45.4595
       6 -45.6733       7 -45.6723       8 -45.4587       9 -45.4596      10-120.1837
      11-120.1821      12-120.1832



 E-fermi :  -6.5082     XC(G=0):  -0.1568     alpha+bet : -0.0680

 Fermi energy:        -6.5081907750

 k-point     1 :       0.0000    0.0000    0.0000
  band No.  band energies     occupation 
      1     -28.0226      2.00000
      2     -25.6692      2.00000
      3     -25.6677      2.00000
      4     -17.8445      2.00000
      5     -17.8430      2.00000
      6     -14.9515      2.00000
      7     -13.2529      2.00000
      8     -13.1614      2.00000
      9     -11.9482      2.00000
     10     -11.9476      2.00000
     11     -10.8316      2.00000
     12     -10.4852      2.00000
     13     -10.4847      2.00000
     14      -8.0673      2.00000
     15      -8.0652      2.00000
     16      -6.7864      2.00000
     17      -6.7847      2.00000
     18      -6.5739      2.00000
     19      -0.5649      0.00000
     20      -0.0545      0.00000
     21      -0.0304      0.00000
     22      -0.0300      0.00000
     23       0.1099      0.00000
     24       0.3083      0.00000
     25       0.3320      0.00000
     26       0.4130      0.00000
     27       0.4298      0.00000
     28       0.4317      0.00000
     29       0.4537      0.00000
     30       0.5060      0.00000
     31       0.5145      0.00000
     32       0.5911      0.00000
     33       0.6026      0.00000
     34       0.6279      0.00000
     35       0.6585      0.00000
     36       0.6623      0.00000
     37       0.6626      0.00000
     38       0.7615      0.00000
     39       0.7696      0.00000
     40       0.7931      0.00000
     41       0.8284      0.00000
     42       0.8293      0.00000
     43       0.8739      0.00000
     44       0.8925      0.00000
     45       0.9067      0.00000
     46       0.9604      0.00000
     47       0.9712      0.00000
     48       1.0691      0.00000
     49       1.1008      0.00000
     50       1.1166      0.00000
     51       1.1274      0.00000
     52       1.2023      0.00000
     53       1.2374      0.00000
     54       1.2686      0.00000
     55       1.3399      0.00000
     56       1.3466      0.00000
     57       1.3534      0.00000
     58       1.3784      0.00000
     59       1.3934      0.00000
     60       1.4647      0.00000
     61       1.5069      0.00000
     62       1.5279      0.00000
     63       1.5329      0.00000
     64       1.5469      0.00000
     65       1.5533      0.00000
     66       1.5566      0.00000
     67       1.5853      0.00000
     68       1.5883      0.00000
     69       1.5887      0.00000
     70       1.5904      0.00000
     71       1.5913      0.00000
     72       1.5962      0.00000
     73       1.5993      0.00000
     74       1.6001      0.00000
     75       1.6020      0.00000
     76       1.6593      0.00000
     77       1.6795      0.00000
     78       1.7031      0.00000
     79       1.7363      0.00000
     80       1.7415      0.00000
     81       1.7447      0.00000
     82       1.7781      0.00000
     83       1.7925      0.00000
     84       1.8016      0.00000
     85       1.8269      0.00000
     86       1.8533      0.00000
     87       1.8631      0.00000
     88       1.8666      0.00000
     89       1.8689      0.00000
     90       1.8712      0.00000
     91       1.8821      0.00000
     92       1.8931      0.00000
     93       1.8964      0.00000
     94       1.8977      0.00000
     95       1.8985      0.00000
     96       1.9010      0.00000
     97       1.9033      0.00000
     98       1.9077      0.00000
     99       1.9095      0.00000
    100       1.9992      0.00000
    101       2.0234      0.00000
    102       2.1127      0.00000
    103       2.2206      0.00000
    104       2.2218      0.00000
    105       2.2625      0.00000
    106       2.3356      0.00000
    107       2.3507      0.00000
    108       2.3618      0.00000
    109       2.4135      0.00000
    110       2.4179      0.00000
    111       2.4396      0.00000
    112       2.5071      0.00000
    113       2.5175      0.00000
    114       2.5380      0.00000
    115       2.5495      0.00000
    116       2.5621      0.00000
    117       2.5806      0.00000
    118       2.5938      0.00000
    119       2.6197      0.00000
    120       2.6382      0.00000
    121       2.6533      0.00000
    122       2.6809      0.00000
    123       2.7025      0.00000
    124       2.7259      0.00000
    125       2.7432      0.00000
    126       2.7531      0.00000
    127       2.7680      0.00000
    128       2.8032      0.00000
    129       2.8053      0.00000
    130       2.8071      0.00000
    131       2.8074      0.00000
    132       2.8137      0.00000
    133       2.8145      0.00000
    134       2.8271      0.00000
    135       2.8287      0.00000
    136       2.8300      0.00000
    137       2.8326      0.00000
    138       2.8338      0.00000
    139       2.8341      0.00000
    140       2.8351      0.00000
    141       2.8369      0.00000
    142       2.8811      0.00000
    143       2.8934      0.00000
    144       2.9285      0.00000
    145       2.9411      0.00000
    146       2.9531      0.00000
    147       2.9778      0.00000
    148       2.9927      0.00000
    149       3.0150      0.00000
    150       3.0171      0.00000
    151       3.0444      0.00000
    152       3.0529      0.00000
    153       3.0662      0.00000
    154       3.0774      0.00000
    155       3.0904      0.00000
    156       3.0958      0.00000
    157       3.1000      0.00000
    158       3.1014      0.00000
    159       3.1118      0.00000
    160       3.1345      0.00000
    161       3.1363      0.00000
    162       3.1431      0.00000
    163       3.1441      0.00000
    164       3.1446      0.00000
    165       3.1491      0.00000
    166       3.1586      0.00000
    167       3.1676      0.00000
    168       3.2323      0.00000
    169       3.2736      0.00000
    170       3.2829      0.00000
    171       3.2934      0.00000
    172       3.3195      0.00000
    173       3.3307      0.00000
    174       3.3382      0.00000
    175       3.3491      0.00000
    176       3.3612      0.00000
    177       3.3668      0.00000
    178       3.3820      0.00000
    179       3.3868      0.00000
    180       3.3934      0.00000
    181       3.4023      0.00000
    182       3.4030      0.00000
    183       3.4050      0.00000
    184       3.4283      0.00000
    185       3.4314      0.00000
    186       3.4348      0.00000
    187       3.4352      0.00000
    188       3.4458      0.00000
    189       3.4467      0.00000
    190       3.4816      0.00000
    191       3.4868      0.00000
    192       3.5496      0.00000
    193       3.5832      0.00000
    194       3.5927      0.00000
    195       3.6003      0.00000
    196       3.6485      0.00000
    197       3.6690      0.00000
    198       3.6878      0.00000
    199       3.7023      0.00000
    200       3.7373      0.00000
    201       3.7614      0.00000
    202       3.7795      0.00000
    203       3.8017      0.00000
    204       3.8084      0.00000
    205       3.8388      0.00000
    206       3.8682      0.00000
    207       3.8816      0.00000
    208       3.9229      0.00000
    209       3.9405      0.00000
    210       3.9659      0.00000
    211       3.9803      0.00000
    212       4.0078      0.00000
    213       4.0172      0.00000
    214       4.0322      0.00000
    215       4.0407      0.00000
    216       4.0415      0.00000
    217       4.0528      0.00000
    218       4.0590      0.00000
    219       4.0610      0.00000
    220       4.0635      0.00000
    221       4.0664      0.00000
    222       4.0726      0.00000
    223       4.0739      0.00000
    224       4.1044      0.00000
    225       4.1475      0.00000
    226       4.1522      0.00000
    227       4.1676      0.00000
    228       4.1751      0.00000
    229       4.1804      0.00000
    230       4.2021      0.00000
    231       4.2243      0.00000
    232       4.2348      0.00000
    233       4.2419      0.00000
    234       4.2706      0.00000
    235       4.2730      0.00000
    236       4.2758      0.00000
    237       4.2823      0.00000
    238       4.2980      0.00000
    239       4.3010      0.00000
    240       4.3043      0.00000
    241       4.3085      0.00000
    242       4.3149      0.00000
    243       4.3298      0.00000
    244       4.3337      0.00000
    245       4.3421      0.00000
    246       4.3471      0.00000
    247       4.3575      0.00000
    248       4.3711      0.00000
    249       4.3719      0.00000
    250       4.3728      0.00000
    251       4.4031      0.00000
    252       4.4215      0.00000
    253       4.4551      0.00000
    254       4.6080      0.00000
    255       4.6463      0.00000
    256       4.7757      0.00000


--------------------------------------------------------------------------------------------------------


 soft charge-density along one line, spin component           1
         0         1         2         3         4         5         6         7         8         9
 total charge-density along one line

 pseudopotential strength for first ion, spin component:           1
 12.830  21.594   0.009   0.012   0.010   0.015   0.022   0.018
 21.594  36.344   0.014   0.021   0.017   0.026   0.037   0.031
  0.009   0.014  -3.127  -0.001   0.000  -5.609  -0.002   0.001
  0.012   0.021  -0.001  -3.128   0.001  -0.002  -5.611   0.001
  0.010   0.017   0.000   0.001  -3.130   0.001   0.001  -5.613
  0.015   0.026  -5.609  -0.002   0.001 -10.036  -0.004   0.001
  0.022   0.037  -0.002  -5.611   0.001  -0.004 -10.040   0.002
  0.018   0.031   0.001   0.001  -5.613   0.001   0.002 -10.044
 total augmentation occupancy for first ion, spin component:           1
  7.814  -2.805   0.232   0.392   0.312  -0.146  -0.241  -0.193
 -2.805   1.068  -0.192  -0.312  -0.251   0.097   0.158   0.127
  0.232  -0.192   5.896   0.112  -0.043  -1.879  -0.142   0.065
  0.392  -0.312   0.112   5.837  -0.139  -0.143  -1.955   0.108
  0.312  -0.251  -0.043  -0.139   6.070   0.065   0.108  -2.162
 -0.146   0.097  -1.879  -0.143   0.065   0.612   0.086  -0.042
 -0.241   0.158  -0.142  -1.955   0.108   0.086   0.672  -0.062
 -0.193   0.127   0.065   0.108  -2.162  -0.042  -0.062   0.792


------------------------ aborting loop because EDIFF is reached ----------------------------------------


    FORLOC:  cpu time      0.0225: real time      0.0225
    FORNL :  cpu time      0.3245: real time      0.3246
    FORCOR:  cpu time      0.2609: real time      0.2611
    OFIELD:  cpu time      0.0044: real time      0.0050

 ---------------------------------------------------------------------------------------------

         DFTD3 V3.0 Rev 1        
 IVDW         = 11
 DF rpbe      
 parameters
 VDW_S6       =    1.0000
 VDW_S8       =    0.5140
 VDW_SR       =    0.8720
 rs18     =    1.0000
 alpha6   =   14.0000
 alpha8   =   16.0000
 k1-k3    =   16.0000    1.3333   -4.0000
 VDW_RADIUS   =   50.2022 A
 VDW_CNRADIUS =   21.1671 A
 Edisp (eV)   -0.46160

 E6    (eV) :    -0.4078
 E8    (eV) :    -0.0538
 % E8        : 11.65
    FORVDW:  cpu time      0.0737: real time      0.0777

 VOLUME and BASIS-vectors are now :
 -----------------------------------------------------------------------------
  energy-cutoff  :     1000.00
  volume of cell :    10648.00
      direct lattice vectors                 reciprocal lattice vectors
    22.000000000  0.000000000  0.000000000     0.045454545  0.000000000  0.000000000
     0.000000000 22.000000000  0.000000000     0.000000000  0.045454545  0.000000000
     0.000000000  0.000000000 22.000000000     0.000000000  0.000000000  0.045454545

  length of vectors
    22.000000000 22.000000000 22.000000000     0.045454545  0.045454545  0.045454545


 FORCES acting on ions:
    Electron-Ion                     Ewald-Force                    Non-Local-Force
 -----------------------------------------------------------------------------------------------
   0.141E+03 0.171E+03 0.131E+03   -.147E+03 -.176E+03 -.139E+03   0.637E+01 0.537E+01 0.761E+01
   -.211E+03 -.683E+02 0.131E+03   0.218E+03 0.722E+02 -.139E+03   -.733E+01 -.396E+01 0.762E+01
   0.140E+03 -.206E+03 -.655E+02   -.147E+03 0.215E+03 0.655E+02   0.636E+01 -.932E+01 -.730E-01
   -.968E+02 -.348E+01 0.686E+01   0.103E+03 0.322E+01 -.636E+01   -.598E+01 0.261E+00 -.490E+00
   0.450E+02 -.609E+01 0.845E+02   -.468E+02 0.833E+01 -.894E+02   0.180E+01 -.222E+01 0.476E+01
   0.386E+02 0.889E+02 0.689E+01   -.406E+02 -.947E+02 -.640E+01   0.194E+01 0.567E+01 -.485E+00
   0.385E+02 -.564E+02 -.691E+02   -.405E+02 0.594E+02 0.742E+02   0.193E+01 -.284E+01 -.493E+01
   0.450E+02 -.659E+02 0.532E+02   -.469E+02 0.686E+02 -.579E+02   0.181E+01 -.264E+01 0.455E+01
   -.108E+02 -.440E+02 0.845E+02   0.936E+01 0.466E+02 -.894E+02   0.141E+01 -.249E+01 0.477E+01
   -.211E+03 0.309E+03 0.899E+02   0.239E+03 -.350E+03 -.866E+02   -.276E+02 0.405E+02 -.332E+01
   -.211E+03 -.251E+03 -.202E+03   0.239E+03 0.271E+03 0.237E+03   -.277E+02 -.205E+02 -.350E+02
   0.310E+03 0.105E+03 -.202E+03   -.340E+03 -.124E+03 0.237E+03   0.291E+02 0.183E+02 -.351E+02
 -----------------------------------------------------------------------------------------------
   0.178E+02 -.261E+02 0.501E+02   0.000E+00 0.114E-12 -.568E-13   -.178E+02 0.261E+02 -.501E+02


 POSITION                                       TOTAL-FORCE (eV/Angst)
 -----------------------------------------------------------------------------------
      9.75943     10.23302     10.48981        -0.008098      0.046935     -0.047154
     11.66973     11.53522     10.48910        -0.042115      0.027589     -0.042296
      9.76112     12.28260     11.55955        -0.008136      0.013686     -0.063837
     12.75629     11.48691     10.57995         0.172871     -0.001267      0.003831
      9.41113     10.69645      9.54435        -0.055291      0.053858     -0.135180
      9.40758      9.20383     10.57990        -0.063328     -0.161256      0.006228
      9.41107     12.79617     12.45662        -0.061794      0.093465      0.135487
      9.41144     12.79398     10.63978        -0.055508      0.081952     -0.123111
     11.36588     12.02819      9.54338        -0.030232      0.071786     -0.138396
     11.17738     10.20523     10.50814         0.229670     -0.334017     -0.065201
     11.17926     12.28296     11.59037         0.227330      0.234860      0.235641
      9.24371     10.96230     11.59172        -0.305370     -0.127591      0.233988
 -----------------------------------------------------------------------------------
    total drift:                               -0.000154     -0.000009     -0.000090


--------------------------------------------------------------------------------------------------------



  FREE ENERGIE OF THE ION-ELECTRON SYSTEM (eV)
  ---------------------------------------------------
  free  energy   TOTEN  =       -67.48824980 eV

  energy  without entropy=      -67.48824980  energy(sigma->0) =      -67.48824980



--------------------------------------------------------------------------------------------------------


    POTLOK:  cpu time      0.4366: real time      0.4370


--------------------------------------------------------------------------------------------------------


 stress matrix after NEB project (eV)
      0.15321     -0.00808      0.01609
     -0.00808      0.15992     -0.02341
      0.01609     -0.02341      0.19225
  FORCES: max atom, RMS     0.410569    0.236929
  FORCE total and by dimension    0.820748    0.334017
  Stress total and by dimension    0.296233    0.192250
     LOOP+:  cpu time    171.3004: real time    171.6508
    4ORBIT:  cpu time      0.0000: real time      0.0000

 total amount of memory used by VASP MPI-rank0   556134. kBytes
=======================================================================

   base      :      30000. kBytes
   nonl-proj :      73433. kBytes
   fftplans  :     151777. kBytes
   grid      :     291732. kBytes
   one-center:          9. kBytes
   wavefun   :       9183. kBytes

  
  
 General timing and accounting informations for this job:
 ========================================================
  
                  Total CPU time used (sec):      238.084
                            User time (sec):      209.541
                          System time (sec):       28.543
                         Elapsed time (sec):      259.485
  
                   Maximum memory used (kb):      823560.
                   Average memory used (kb):          N/A
  
                          Minor page faults:      1158009
                          Major page faults:         1179
                 Voluntary context switches:        11879
