 vasp.6.4.1 05Apr23 (build Jun  6 2023 14:46:38) gamma-only                      
 executed on        HPECrayEX_GCC date 2024.08.22  06:51:24
 running  512 mpi-ranks, with    1 threads/rank, on    4 nodes
 distrk:  each k-point on  512 cores,    1 groups
 distr:  one band on NCORE=   2 cores,  256 groups


--------------------------------------------------------------------------------------------------------


 INCAR:
   ALGO = Conjugate
   NCORE = 2
   PREC = Accurate
   EDIFF = 1E-7
   ENCUT = 1000
   ISMEAR = 0
   SIGMA = 0.01
   ISIF = 0
   SYMPREC = 1E-7
   IVDW = 11
   LWAVE = .FALSE.
   LCHARG = .FALSE.
   LWAVE = .FALSE.
   LCHARG = .FALSE.

 POTCAR:    PAW_PBE C_h 06Feb2004                 
 POTCAR:    PAW_PBE H_h 06Feb2004                 
 POTCAR:    PAW_PBE O_h 06Feb2004                 
 POTCAR:    PAW_PBE C_h 06Feb2004                 
   VRHFIN =C: s2p2                                                                                  
   LEXCH  = PE                                                                                      
   EATOM  =   147.1560 eV,   10.8157 Ry                                                             
                                                                                                    
   TITEL  = PAW_PBE C_h 06Feb2004                                                                   
   LULTRA =        F    use ultrasoft PP ?                                                          
   IUNSCR =        1    unscreen: 0-lin 1-nonlin 2-no                                               
   RPACOR =    0.800    partial core radius                                                         
   POMASS =   12.011; ZVAL   =    4.000    mass and valenz                                          
   RCORE  =    1.100    outmost cutoff radius                                                       
   RWIGS  =    1.630; RWIGS  =    0.863    wigner-seitz radius (au A)                               
   ENMAX  =  700.000; ENMIN  =  500.000 eV                                                          
   ICORE  =        2    local potential                                                             
   LCOR   =        T    correct aug charges                                                         
   LPAW   =        T    paw PP                                                                      
   EAUG   =  946.768                                                                                
   DEXC   =    0.000                                                                                
   RMAX   =    1.128    core radius for proj-oper                                                   
   RAUG   =    1.300    factor for augmentation sphere                                              
   RDEP   =    1.162    radius for radial grids                                                     
   RDEPT  =    1.088    core radius for aug-charge                                                  
                                                                                                    
   Atomic configuration                                                                             
    4 entries                                                                                       
     n  l   j            E        occ.                                                              
     1  0  0.50      -273.3789   2.0000                                                             
     2  0  0.50       -13.7508   2.0000                                                             
     2  1  0.50        -5.2854   2.0000                                                             
     3  2  1.50        -5.4423   0.0000                                                             
   Description                                                                                      
     l       E           TYP  RCUT    TYP  RCUT                                                     
     0    -13.7508458     23  1.100                                                                 
     0     -8.2022199     23  1.100                                                                 
     1     -5.2854383     23  1.100                                                                 
     1      1.1560700     23  1.100                                                                 
     2     -5.4423304      7  1.100                                                                 
  local pseudopotential read in
  partial core-charges read in
  partial kinetic energy density read in
  atomic valenz-charges read in
  non local Contribution for L=           0  read in
    real space projection operators read in
  non local Contribution for L=           0  read in
    real space projection operators read in
  non local Contribution for L=           1  read in
    real space projection operators read in
  non local Contribution for L=           1  read in
    real space projection operators read in
    PAW grid and wavefunctions read in

   number of l-projection  operators is LMAX  =           4
   number of lm-projection operators is LMMAX =           8

 POTCAR:    PAW_PBE H_h 06Feb2004                 
   VRHFIN =H: ultrasoft test                                                                        
   LEXCH  = PE                                                                                      
   EATOM  =    12.4884 eV,    0.9179 Ry                                                             
                                                                                                    
   TITEL  = PAW_PBE H_h 06Feb2004                                                                   
   LULTRA =        F    use ultrasoft PP ?                                                          
   IUNSCR =        0    unscreen: 0-lin 1-nonlin 2-no                                               
   RPACOR =    0.000    partial core radius                                                         
   POMASS =    1.000; ZVAL   =    1.000    mass and valenz                                          
   RCORE  =    0.800    outmost cutoff radius                                                       
   RWIGS  =    0.700; RWIGS  =    0.370    wigner-seitz radius (au A)                               
   ENMAX  =  700.000; ENMIN  =  350.000 eV                                                          
   RCLOC  =    0.701    cutoff for local pot                                                        
   LCOR   =        T    correct aug charges                                                         
   LPAW   =        T    paw PP                                                                      
   EAUG   = 1000.000                                                                                
   RMAX   =    0.819    core radius for proj-oper                                                   
   RAUG   =    1.000    factor for augmentation sphere                                              
   RDEP   =    0.817    radius for radial grids                                                     
   RDEPT  =    0.817    core radius for aug-charge                                                  
                                                                                                    
   Atomic configuration                                                                             
    2 entries                                                                                       
     n  l   j            E        occ.                                                              
     1  0  0.50        -6.4927   1.0000                                                             
     2  1  0.50        -3.4015   0.0000                                                             
   Description                                                                                      
     l       E           TYP  RCUT    TYP  RCUT                                                     
     0     -6.4927493     23  0.800                                                                 
     0      6.8029130     23  0.800                                                                 
     1     -6.8029130     23  0.800                                                                 
  local pseudopotential read in
  atomic valenz-charges read in
  non local Contribution for L=           0  read in
    real space projection operators read in
  non local Contribution for L=           0  read in
    real space projection operators read in
  non local Contribution for L=           1  read in
    real space projection operators read in
    PAW grid and wavefunctions read in

   number of l-projection  operators is LMAX  =           3
   number of lm-projection operators is LMMAX =           5

 POTCAR:    PAW_PBE O_h 06Feb2004                 
   VRHFIN =O: s2p4                                                                                  
   LEXCH  = PE                                                                                      
   EATOM  =   432.3788 eV,   31.7789 Ry                                                             
                                                                                                    
   TITEL  = PAW_PBE O_h 06Feb2004                                                                   
   LULTRA =        F    use ultrasoft PP ?                                                          
   IUNSCR =        1    unscreen: 0-lin 1-nonlin 2-no                                               
   RPACOR =    0.800    partial core radius                                                         
   POMASS =   16.000; ZVAL   =    6.000    mass and valenz                                          
   RCORE  =    1.100    outmost cutoff radius                                                       
   RWIGS  =    1.400; RWIGS  =    0.741    wigner-seitz radius (au A)                               
   ENMAX  =  700.000; ENMIN  =  500.000 eV                                                          
   ICORE  =        2    local potential                                                             
   LCOR   =        T    correct aug charges                                                         
   LPAW   =        T    paw PP                                                                      
   EAUG   =  888.804                                                                                
   DEXC   =    0.000                                                                                
   RMAX   =    1.128    core radius for proj-oper                                                   
   RAUG   =    1.300    factor for augmentation sphere                                              
   RDEP   =    1.125    radius for radial grids                                                     
   RDEPT  =    1.088    core radius for aug-charge                                                  
                                                                                                    
   Atomic configuration                                                                             
    4 entries                                                                                       
     n  l   j            E        occ.                                                              
     1  0  0.50      -514.6923   2.0000                                                             
     2  0  0.50       -23.9615   2.0000                                                             
     2  1  0.50        -9.0305   4.0000                                                             
     3  2  1.50        -9.5241   0.0000                                                             
   Description                                                                                      
     l       E           TYP  RCUT    TYP  RCUT                                                     
     0    -23.9615319     23  1.100                                                                 
     0    -25.3221145     23  1.100                                                                 
     1     -9.0304911     23  1.100                                                                 
     1     -5.4802209     23  1.100                                                                 
     2     -9.5240782      7  1.100                                                                 
  local pseudopotential read in
  partial core-charges read in
  partial kinetic energy density read in
  atomic valenz-charges read in
  non local Contribution for L=           0  read in
    real space projection operators read in
  non local Contribution for L=           0  read in
    real space projection operators read in
  non local Contribution for L=           1  read in
    real space projection operators read in
  non local Contribution for L=           1  read in
    real space projection operators read in
    PAW grid and wavefunctions read in

   number of l-projection  operators is LMAX  =           4
   number of lm-projection operators is LMMAX =           8

  PAW_PBE C_h 06Feb2004                 :
 energy of atom  1       EATOM= -147.1560
 kinetic energy error for atom=    0.0031 (will be added to EATOM!!)
  PAW_PBE H_h 06Feb2004                 :
 energy of atom  2       EATOM=  -12.4884
 kinetic energy error for atom=    0.0006 (will be added to EATOM!!)
  PAW_PBE O_h 06Feb2004                 :
 energy of atom  3       EATOM= -432.3788
 kinetic energy error for atom=    0.0171 (will be added to EATOM!!)


 POSCAR:  C  H  O
  positions in cartesian coordinates
  No initial velocities read in
 exchange correlation table for  LEXCH =        8
   RHO(1)=    0.500       N(1)  =     2000
   RHO(2)=  100.500       N(2)  =     4000

 VTST: version 4.1, (05/19/21)

 CHAIN: initializing optimizer
 
 OPT: Using VASP Dynamics algorithm
 CHAIN: Read ICHAIN            0

 POSCAR:  C  H  O
  positions in cartesian coordinates
  No initial velocities read in



--------------------------------------------------------------------------------------------------------


 ion  position               nearest neighbor table
   1  0.444  0.465  0.477-   6 1.09   5 1.11  10 1.42  12 1.42
   2  0.530  0.524  0.477-   4 1.09   9 1.11  10 1.42  11 1.42
   3  0.444  0.558  0.525-   7 1.09   8 1.11  12 1.42  11 1.42
   4  0.580  0.522  0.481-   2 1.09
   5  0.428  0.486  0.434-   1 1.11
   6  0.428  0.418  0.481-   1 1.09
   7  0.428  0.582  0.566-   3 1.09
   8  0.428  0.582  0.484-   3 1.11
   9  0.517  0.547  0.434-   2 1.11
  10  0.508  0.464  0.478-   1 1.42   2 1.42
  11  0.508  0.558  0.527-   3 1.42   2 1.42
  12  0.420  0.498  0.527-   3 1.42   1 1.42

  LATTYP: Found a simple cubic cell.
 ALAT       =    22.0000000000
  
  Lattice vectors:
  
 A1 = (  22.0000000000,   0.0000000000,   0.0000000000)
 A2 = (   0.0000000000,  22.0000000000,   0.0000000000)
 A3 = (   0.0000000000,   0.0000000000,  22.0000000000)


Analysis of symmetry for initial positions (statically):
=====================================================================
 Subroutine PRICEL returns:
 Original cell was already a primitive cell.
 

 Routine SETGRP: Setting up the symmetry group for a 
 simple cubic supercell.


 Subroutine GETGRP returns: Found  1 space group operations
 (whereof  1 operations were pure point group operations)
 out of a pool of 48 trial point group operations.


The static configuration has the point symmetry C_1 .


Analysis of symmetry for dynamics (positions and initial velocities):
=====================================================================
 Subroutine PRICEL returns:
 Original cell was already a primitive cell.
 

 Routine SETGRP: Setting up the symmetry group for a 
 simple cubic supercell.


 Subroutine GETGRP returns: Found  1 space group operations
 (whereof  1 operations were pure point group operations)
 out of a pool of 48 trial point group operations.


The dynamic configuration has the point symmetry C_1 .


 Subroutine INISYM returns: Found  1 space group operations
 (whereof  1 operations are pure point group operations),
 and found     1 'primitive' translations


----------------------------------------------------------------------------------------

                                     Primitive cell                                     

  volume of cell :   10648.0000

  direct lattice vectors                    reciprocal lattice vectors
    22.000000000  0.000000000  0.000000000     0.045454545  0.000000000  0.000000000
     0.000000000 22.000000000  0.000000000     0.000000000  0.045454545  0.000000000
     0.000000000  0.000000000 22.000000000     0.000000000  0.000000000  0.045454545

  length of vectors
    22.000000000 22.000000000 22.000000000     0.045454545  0.045454545  0.045454545

  position of ions in fractional coordinates (direct lattice)
     0.443610682  0.465137045  0.476809773
     0.530442500  0.524328409  0.476777045
     0.443687045  0.558299773  0.525434318
     0.579831136  0.522132045  0.480906591
     0.427778409  0.486202500  0.433834318
     0.427617045  0.418355682  0.480904773
     0.427776136  0.581644318  0.566210227
     0.427792955  0.581544773  0.483626136
     0.516631136  0.546735682  0.433789773
     0.508062500  0.463873864  0.477642500
     0.508148409  0.558316136  0.526835227
     0.420168864  0.498286591  0.526896591

  ion indices of the primitive-cell ions
   primitive index   ion index
                 1           1
                 2           2
                 3           3
                 4           4
                 5           5
                 6           6
                 7           7
                 8           8
                 9           9
                10          10
                11          11
                12          12

----------------------------------------------------------------------------------------



 KPOINTS: auto                                    

Automatic generation of k-mesh.
 Grid dimensions read from file:
 generate k-points for:    1    1    1

 Generating k-lattice:

  Cartesian coordinates                     Fractional coordinates (reciprocal lattice)
     0.045454545  0.000000000  0.000000000     1.000000000  0.000000000  0.000000000
     0.000000000  0.045454545  0.000000000     0.000000000  1.000000000  0.000000000
     0.000000000  0.000000000  0.045454545     0.000000000  0.000000000  1.000000000

  Length of vectors
     0.045454545  0.045454545  0.045454545

  Shift w.r.t. Gamma in fractional coordinates (k-lattice)
     0.000000000  0.000000000  0.000000000

 
 Subroutine IBZKPT returns following result:
 ===========================================
 
 Found      1 irreducible k-points:
 
 Following reciprocal coordinates:
            Coordinates               Weight
  0.000000  0.000000  0.000000      1.000000
 
 Following cartesian coordinates:
            Coordinates               Weight
  0.000000  0.000000  0.000000      1.000000
 


--------------------------------------------------------------------------------------------------------




 Dimension of arrays:
   k-points           NKPTS =      1   k-points in BZ     NKDIM =      1   number of bands    NBANDS=    256
   number of dos      NEDOS =    301   number of ions     NIONS =     12
   non local maximal  LDIM  =      4   non local SUM 2l+1 LMDIM =      8
   total plane-waves  NPLWV = ******
   max r-space proj   IRMAX =      1   max aug-charges    IRDMAX=   9667
   dimension x,y,z NGX =   240 NGY =  240 NGZ =  240
   dimension x,y,z NGXF=   480 NGYF=  480 NGZF=  480
   support grid    NGXF=   480 NGYF=  480 NGZF=  480
   ions per type =               3   6   3
   NGX,Y,Z   is equivalent  to a cutoff of  18.14, 18.14, 18.14 a.u.
   NGXF,Y,Z  is equivalent  to a cutoff of  36.27, 36.27, 36.27 a.u.

 SYSTEM =  unknown system                          
 POSCAR =   C  H  O                                

 Startparameter for this run:
   NWRITE =      2    write-flag & timer
   PREC   = accura    normal or accurate (medium, high low for compatibility)
   ISTART =      0    job   : 0-new  1-cont  2-samecut
   ICHARG =      2    charge: 1-file 2-atom 10-const
   ISPIN  =      1    spin polarized calculation?
   LNONCOLLINEAR =      F non collinear calculations
   LSORBIT =      F    spin-orbit coupling
   INIWAV =      1    electr: 0-lowe 1-rand  2-diag
   LASPH  =      F    aspherical Exc in radial PAW
 Electronic Relaxation 1
   ENCUT  = 1000.0 eV  73.50 Ry    8.57 a.u.  56.73 56.73 56.73*2*pi/ulx,y,z
   ENINI  = 1000.0     initial cutoff
   ENAUG  = 1000.0 eV  augmentation charge cutoff
   NELM   =     60;   NELMIN=  2; NELMDL= -5     # of ELM steps 
   EDIFF  = 0.1E-06   stopping-criterion for ELM
   LREAL  =      F    real-space projection
   NLSPLINE    = F    spline interpolate recip. space projectors
   LCOMPAT=      F    compatible to vasp.4.4
   GGA_COMPAT  = T    GGA compatible to vasp.4.4-vasp.4.6
   LMAXPAW     = -100 max onsite density
   LMAXMIX     =    2 max onsite mixed and CHGCAR
   VOSKOWN=      0    Vosko Wilk Nusair interpolation
   ROPT   =    0.00000   0.00000   0.00000
 Ionic relaxation
   EDIFFG = 0.1E-05   stopping-criterion for IOM
   NSW    =      0    number of steps for IOM
   NBLOCK =      1;   KBLOCK =      1    inner block; outer block 
   IBRION =     -1    ionic relax: 0-MD 1-quasi-New 2-CG
   NFREE  =      0    steps in history (QN), initial steepest desc. (CG)
   ISIF   =      0    stress and relaxation
   IWAVPR =     10    prediction:  0-non 1-charg 2-wave 3-comb
   ISYM   =      2    0-nonsym 1-usesym 2-fastsym
   LCORR  =      T    Harris-Foulkes like correction to forces

   POTIM  = 0.5000    time-step for ionic-motion
   TEIN   =    0.0    initial temperature
   TEBEG  =    0.0;   TEEND  =   0.0 temperature during run
   SMASS  =  -3.00    Nose mass-parameter (am)
   estimated Nose-frequenzy (Omega)   =  0.10E-29 period in steps = 0.13E+47 mass=  -0.111E-25a.u.
   SCALEE = 1.0000    scale energy and forces
   NPACO  =    256;   APACO  = 10.0  distance and # of slots for P.C.
   PSTRESS=    0.0 pullay stress

  Mass of Ions in am
   POMASS =  12.01  1.00 16.00
  Ionic Valenz
   ZVAL   =   4.00  1.00  6.00
  Atomic Wigner-Seitz radii
   RWIGS  =  -1.00 -1.00 -1.00
  virtual crystal weights 
   VCA    =   1.00  1.00  1.00
   NELECT =      36.0000    total number of electrons
   NUPDOWN=      -1.0000    fix difference up-down

 DOS related values:
   EMIN   =  10.00;   EMAX   =-10.00  energy-range for DOS
   EFERMI =   0.00;   METHOD = LEGACY      
   ISMEAR =     0;   SIGMA  =   0.01  broadening in eV -4-tet -1-fermi 0-gaus

 Electronic relaxation 2 (details)
   IALGO  =     58    algorithm
   LDIAG  =      T    sub-space diagonalisation (order eigenvalues)
   LSUBROT=      F    optimize rotation matrix (better conditioning)
   TURBO    =      0    0=normal 1=particle mesh
   IRESTART =      0    0=no restart 2=restart with 2 vectors
   NREBOOT  =      0    no. of reboots
   NMIN     =      0    reboot dimension
   EREF     =   0.00    reference energy to select bands
   IMIX   =      4    mixing-type and parameters
     AMIX     =   0.40;   BMIX     =  1.00
     AMIX_MAG =   1.60;   BMIX_MAG =  1.00
     AMIN     =   0.10
     WC   =   100.;   INIMIX=   1;  MIXPRE=   1;  MAXMIX= -45

 Intra band minimization:
   WEIMIN = 0.0000     energy-eigenvalue tresh-hold
   EBREAK =  0.98E-10  absolut break condition
   DEPER  =   0.30     relativ break condition  

   TIME   =   0.40     timestep for ELM

  volume/ion in A,a.u.               =     887.33      5988.02
  Fermi-wavevector in a.u.,A,eV,Ry     =   0.245708  0.464321  0.821418  0.060373
  Thomas-Fermi vector in A             =   1.056973

 Write flags
   LWAVE        =      F    write WAVECAR
   LDOWNSAMPLE  =      F    k-point downsampling of WAVECAR
   LCHARG       =      F    write CHGCAR
   LVTOT        =      F    write LOCPOT, total local potential
   LVHAR        =      F    write LOCPOT, Hartree potential only
   LELF         =      F    write electronic localiz. function (ELF)
   LORBIT       =      0    0 simple, 1 ext, 2 COOP (PROOUT), +10 PAW based schemes


 Dipole corrections
   LMONO  =      F    monopole corrections only (constant potential shift)
   LDIPOL =      F    correct potential (dipole corrections)
   IDIPOL =      0    1-x, 2-y, 3-z, 4-all directions 
   EPSILON=  1.0000000 bulk dielectric constant

 Exchange correlation treatment:
   GGA     =    --    GGA type
   LEXCH   =     8    internal setting for exchange type
   LIBXC   =     F    Libxc                    
   VOSKOWN =     0    Vosko Wilk Nusair interpolation
   LHFCALC =     F    Hartree Fock is set to
   LHFONE  =     F    Hartree Fock one center treatment
   AEXX    =    0.0000 exact exchange contribution

 Linear response parameters
   LEPSILON=     F    determine dielectric tensor
   LRPA    =     F    only Hartree local field effects (RPA)
   LNABLA  =     F    use nabla operator in PAW spheres
   LVEL    =     F    velocity operator in full k-point grid
   CSHIFT  =0.1000    complex shift for real part using Kramers Kronig
   OMEGAMAX=  -1.0    maximum frequency
   DEG_THRESHOLD= 0.2000000E-02 threshold for treating states as degnerate
   RTIME   =   -0.100 relaxation time in fs
  (WPLASMAI=    0.000 imaginary part of plasma frequency in eV, 0.658/RTIME)
   DFIELD  = 0.0000000 0.0000000 0.0000000 field for delta impulse in time

  Optional k-point grid parameters
   LKPOINTS_OPT  =     F    use optional k-point grid
   KPOINTS_OPT_MODE=     1    mode for optional k-point grid

 Orbital magnetization related:
   ORBITALMAG=     F  switch on orbital magnetization
   LCHIMAG   =     F  perturbation theory with respect to B field
   DQ        =  0.001000  dq finite difference perturbation B field
   LLRAUG    =     F  two centre corrections for induced B field
   LBONE     =     F  B-component reconstruction in AE one-centre
   LVGVCALC  =     T  calculate vGv susceptibility
   LVGVAPPL  =     F  apply vGv susceptibility instead of pGv for G=0

 Random number generation:
   RANDOM_GENERATOR = DEFAULT
   PCG_SEED         = not used


--------------------------------------------------------------------------------------------------------


 Static calculation
 charge density and potential will be updated during run
 non-spin polarized calculation
 Conjugate gradient for all bands (Freysoldt, et al. PRB 79, 241103 (2009))
 preconditioned conjugated gradient                                        
 perform sub-space diagonalisation
    before iterative eigenvector-optimisation
 modified Broyden-mixing scheme, WC =      100.0
 initial mixing is a Kerker type mixing with AMIX =  0.4000 and BMIX =      1.0000
 Hartree-type preconditioning will be used
 using additional bands          238
 reciprocal scheme for non local part
 use partial core corrections
 no Harris-corrections to forces 
 use gradient corrections 
 use of overlap-Matrix (Vanderbilt PP)
 Gauss-broadening in eV      SIGMA  =   0.01


--------------------------------------------------------------------------------------------------------


  energy-cutoff  :     1000.00
  volume of cell :    10648.00
      direct lattice vectors                 reciprocal lattice vectors
    22.000000000  0.000000000  0.000000000     0.045454545  0.000000000  0.000000000
     0.000000000 22.000000000  0.000000000     0.000000000  0.045454545  0.000000000
     0.000000000  0.000000000 22.000000000     0.000000000  0.000000000  0.045454545

  length of vectors
    22.000000000 22.000000000 22.000000000     0.045454545  0.045454545  0.045454545



 k-points in units of 2pi/SCALE and weight: auto                                    
   0.00000000  0.00000000  0.00000000       1.000

 k-points in reciprocal lattice and weights: auto                                    
   0.00000000  0.00000000  0.00000000       1.000

 position of ions in fractional coordinates (direct lattice) 
   0.44361068  0.46513705  0.47680977
   0.53044250  0.52432841  0.47677705
   0.44368705  0.55829977  0.52543432
   0.57983114  0.52213205  0.48090659
   0.42777841  0.48620250  0.43383432
   0.42761705  0.41835568  0.48090477
   0.42777614  0.58164432  0.56621023
   0.42779295  0.58154477  0.48362614
   0.51663114  0.54673568  0.43378977
   0.50806250  0.46387386  0.47764250
   0.50814841  0.55831614  0.52683523
   0.42016886  0.49828659  0.52689659

 position of ions in cartesian coordinates  (Angst):
   9.75943500 10.23301500 10.48981500
  11.66973500 11.53522500 10.48909500
   9.76111500 12.28259500 11.55955500
  12.75628500 11.48690500 10.57994500
   9.41112500 10.69645500  9.54435500
   9.40757500  9.20382500 10.57990500
   9.41107500 12.79617500 12.45662500
   9.41144500 12.79398500 10.63977500
  11.36588500 12.02818500  9.54337500
  11.17737500 10.20522500 10.50813500
  11.17926500 12.28295500 11.59037500
   9.24371500 10.96230500 11.59172500



--------------------------------------------------------------------------------------------------------


 use parallel FFT for orbitals z direction half grid
 k-point   1 :   0.0000 0.0000 0.0000  plane waves:  381993

 maximum and minimum number of plane-waves per node :    191003   190990

 maximum number of plane-waves:    381993
 maximum index in each direction: 
   IXMAX=   56   IYMAX=   56   IZMAX=   56
   IXMIN=  -56   IYMIN=  -56   IZMIN=    0


 parallel 3D FFT for wavefunctions:
    minimum data exchange during FFTs selected (reduces bandwidth)
 parallel 3D FFT for charge:
    minimum data exchange during FFTs selected (reduces bandwidth)


 total amount of memory used by VASP MPI-rank0   556134. kBytes
=======================================================================

   base      :      30000. kBytes
   nonl-proj :      73433. kBytes
   fftplans  :     151777. kBytes
   grid      :     291732. kBytes
   one-center:          9. kBytes
   wavefun   :       9183. kBytes

     INWAV:  cpu time      0.0002: real time      0.0002
 Broyden mixing: mesh for mixing (old mesh)
   NGX =113   NGY =113   NGZ =113
  (NGX  =480   NGY  =480   NGZ  =480)
  gives a total of ****** points

 initial charge density was supplied:
 charge density of overlapping atoms calculated
 number of electron      36.0000000 magnetization 
 keeping initial charge density in first step


--------------------------------------------------------------------------------------------------------


 Maximum index for augmentation-charges            0 (set IRDMAX)


--------------------------------------------------------------------------------------------------------


 First call to EWALD:  gamma=   0.081
 Maximum number of real-space cells 3x 3x 3
 Maximum number of reciprocal cells 3x 3x 3

    FEWALD:  cpu time      0.0043: real time      0.0045


--------------------------------------- Ionic step        1  -------------------------------------------




--------------------------------------- Iteration      1(   1)  ---------------------------------------


    POTLOK:  cpu time      0.8759: real time      0.8772
    SETDIJ:  cpu time      0.0111: real time      0.0118
    TRIAL :  cpu time      5.6982: real time      5.7015
    CORREC:  cpu time      0.0029: real time      0.0029
    --------------------------------------------
      LOOP:  cpu time      6.5985: real time      6.6038

 eigenvalue-minimisations  :   512
 total energy-change (2. order) : 0.4173508E+03  (-0.1500667E+04)
 number of electron      36.0000000 magnetization 
 augmentation part       36.0000000 magnetization 

 Free energy of the ion-electron system (eV)
  ---------------------------------------------------
  alpha Z        PSCENC =         0.34590649
  Ewald energy   TEWEN  =      2898.72375109
  -Hartree energ DENC   =     -4279.26319512
  -exchange      EXHF   =         0.00000000
  -V(xc)+E(xc)   XCENC  =       114.48047508
  PAW double counting   =      1389.16557420    -1377.06080117
  entropy T*S    EENTRO =        -0.00008622
  eigenvalues    EBANDS =      -142.51141298
  atomic energy  EATOM  =      1813.47061108
  ---------------------------------------------------
  free energy    TOTEN  =       417.35082245 eV

  energy without entropy =      417.35090866  energy(sigma->0) =      417.35086555


--------------------------------------------------------------------------------------------------------




--------------------------------------- Iteration      1(   2)  ---------------------------------------


    TRIAL :  cpu time     14.8719: real time     14.8795
    CORREC:  cpu time      0.0002: real time      0.0002
    --------------------------------------------
      LOOP:  cpu time     14.8894: real time     14.9121

 eigenvalue-minimisations  :  1024
 total energy-change (2. order) :-0.4792313E+03  (-0.4792163E+03)
 number of electron      36.0000000 magnetization 
 augmentation part       36.0000000 magnetization 

 Free energy of the ion-electron system (eV)
  ---------------------------------------------------
  alpha Z        PSCENC =         0.34590649
  Ewald energy   TEWEN  =      2898.72375109
  -Hartree energ DENC   =     -4279.26319512
  -exchange      EXHF   =         0.00000000
  -V(xc)+E(xc)   XCENC  =       114.48047508
  PAW double counting   =      1389.16557420    -1377.06080117
  entropy T*S    EENTRO =        -0.00000000
  eigenvalues    EBANDS =      -621.74284798
  atomic energy  EATOM  =      1813.47061108
  ---------------------------------------------------
  free energy    TOTEN  =       -61.88052634 eV

  energy without entropy =      -61.88052634  energy(sigma->0) =      -61.88052634


--------------------------------------------------------------------------------------------------------




--------------------------------------- Iteration      1(   3)  ---------------------------------------


    TRIAL :  cpu time      5.8433: real time      5.8462
    CORREC:  cpu time      0.0002: real time      0.0002
    --------------------------------------------
      LOOP:  cpu time      5.8575: real time      5.8777

 eigenvalue-minimisations  :   512
 total energy-change (2. order) :-0.1117352E+02  (-0.1117352E+02)
 number of electron      36.0000000 magnetization 
 augmentation part       36.0000000 magnetization 

 Free energy of the ion-electron system (eV)
  ---------------------------------------------------
  alpha Z        PSCENC =         0.34590649
  Ewald energy   TEWEN  =      2898.72375109
  -Hartree energ DENC   =     -4279.26319512
  -exchange      EXHF   =         0.00000000
  -V(xc)+E(xc)   XCENC  =       114.48047508
  PAW double counting   =      1389.16557420    -1377.06080117
  entropy T*S    EENTRO =        -0.00000000
  eigenvalues    EBANDS =      -632.91636428
  atomic energy  EATOM  =      1813.47061108
  ---------------------------------------------------
  free energy    TOTEN  =       -73.05404263 eV

  energy without entropy =      -73.05404263  energy(sigma->0) =      -73.05404263


--------------------------------------------------------------------------------------------------------




--------------------------------------- Iteration      1(   4)  ---------------------------------------


    TRIAL :  cpu time     14.6231: real time     14.6304
    CORREC:  cpu time      0.0002: real time      0.0002
    --------------------------------------------
      LOOP:  cpu time     14.6567: real time     14.6643

 eigenvalue-minimisations  :  1024
 total energy-change (2. order) :-0.9116358E-01  (-0.9116358E-01)
 number of electron      36.0000000 magnetization 
 augmentation part       36.0000000 magnetization 

 Free energy of the ion-electron system (eV)
  ---------------------------------------------------
  alpha Z        PSCENC =         0.34590649
  Ewald energy   TEWEN  =      2898.72375109
  -Hartree energ DENC   =     -4279.26319512
  -exchange      EXHF   =         0.00000000
  -V(xc)+E(xc)   XCENC  =       114.48047508
  PAW double counting   =      1389.16557420    -1377.06080117
  entropy T*S    EENTRO =        -0.00000000
  eigenvalues    EBANDS =      -633.00752786
  atomic energy  EATOM  =      1813.47061108
  ---------------------------------------------------
  free energy    TOTEN  =       -73.14520622 eV

  energy without entropy =      -73.14520622  energy(sigma->0) =      -73.14520622


--------------------------------------------------------------------------------------------------------




--------------------------------------- Iteration      1(   5)  ---------------------------------------


    TRIAL :  cpu time      5.8271: real time      5.8304
    CORREC:  cpu time      0.0002: real time      0.0002
    CHARGE:  cpu time      1.4191: real time      1.4202
    --------------------------------------------
      LOOP:  cpu time      7.2613: real time      7.2846

 eigenvalue-minimisations  :   512
 total energy-change (2. order) :-0.4852312E-05  (-0.4852449E-05)
 number of electron      36.0000000 magnetization 
 augmentation part        0.2195252 magnetization 

 Free energy of the ion-electron system (eV)
  ---------------------------------------------------
  alpha Z        PSCENC =         0.34590649
  Ewald energy   TEWEN  =      2898.72375109
  -Hartree energ DENC   =     -4279.26319512
  -exchange      EXHF   =         0.00000000
  -V(xc)+E(xc)   XCENC  =       114.48047508
  PAW double counting   =      1389.16557420    -1377.06080117
  entropy T*S    EENTRO =        -0.00000000
  eigenvalues    EBANDS =      -633.00753272
  atomic energy  EATOM  =      1813.47061108
  ---------------------------------------------------
  free energy    TOTEN  =       -73.14521107 eV

  energy without entropy =      -73.14521107  energy(sigma->0) =      -73.14521107


--------------------------------------------------------------------------------------------------------




--------------------------------------- Iteration      1(   6)  ---------------------------------------


    POTLOK:  cpu time      0.4503: real time      0.4510
    SETDIJ:  cpu time      0.0017: real time      0.0017
    TRIAL :  cpu time      2.8004: real time      2.8032
    CORREC:  cpu time      2.5528: real time      2.5549
    CHARGE:  cpu time      1.3818: real time      1.3822
    --------------------------------------------
      LOOP:  cpu time      7.1994: real time      7.2228

 eigenvalue-minimisations  :     0
 total energy-change (2. order) : 0.8436333E+01  (-0.2859859E+01)
 number of electron      36.0000000 magnetization 
 augmentation part        0.1664001 magnetization 

 Free energy of the ion-electron system (eV)
  ---------------------------------------------------
  alpha Z        PSCENC =         0.34590649
  Ewald energy   TEWEN  =      2898.72375109
  -Hartree energ DENC   =     -4536.78881620
  -exchange      EXHF   =         0.00000000
  -V(xc)+E(xc)   XCENC  =       125.73115232
  PAW double counting   =     14049.24815577   -14039.07269130
  entropy T*S    EENTRO =        -0.00000000
  eigenvalues    EBANDS =      -376.36694724
  atomic energy  EATOM  =      1813.47061108
  ---------------------------------------------------
  free energy    TOTEN  =       -64.70887799 eV

  energy without entropy =      -64.70887799  energy(sigma->0) =      -64.70887799


--------------------------------------------------------------------------------------------------------




--------------------------------------- Iteration      1(   7)  ---------------------------------------


    POTLOK:  cpu time      0.4349: real time      0.4352
    SETDIJ:  cpu time      0.0017: real time      0.0017
    TRIAL :  cpu time      2.6945: real time      2.6956
    CORREC:  cpu time      2.5526: real time      2.5540
    CHARGE:  cpu time      1.3825: real time      1.3829
    --------------------------------------------
      LOOP:  cpu time      7.0968: real time      7.1002

 eigenvalue-minimisations  :     0
 total energy-change (2. order) :-0.2873865E+01  (-0.5095536E+00)
 number of electron      36.0000000 magnetization 
 augmentation part        0.1432908 magnetization 

 Free energy of the ion-electron system (eV)
  ---------------------------------------------------
  alpha Z        PSCENC =         0.34590649
  Ewald energy   TEWEN  =      2898.72375109
  -Hartree energ DENC   =     -4438.84486707
  -exchange      EXHF   =         0.00000000
  -V(xc)+E(xc)   XCENC  =       121.81154110
  PAW double counting   =     16463.94129994   -16452.91470191
  entropy T*S    EENTRO =        -0.00000000
  eigenvalues    EBANDS =      -474.11628366
  atomic energy  EATOM  =      1813.47061108
  ---------------------------------------------------
  free energy    TOTEN  =       -67.58274295 eV

  energy without entropy =      -67.58274295  energy(sigma->0) =      -67.58274295


--------------------------------------------------------------------------------------------------------




--------------------------------------- Iteration      1(   8)  ---------------------------------------


    POTLOK:  cpu time      0.4358: real time      0.4362
    SETDIJ:  cpu time      0.0017: real time      0.0017
    TRIAL :  cpu time      2.6797: real time      2.6809
    CORREC:  cpu time      2.5348: real time      2.5362
    CHARGE:  cpu time      1.4050: real time      1.4053
    --------------------------------------------
      LOOP:  cpu time      7.0715: real time      7.0922

 eigenvalue-minimisations  :     0
 total energy-change (2. order) :-0.5115329E+00  (-0.2571199E+00)
 number of electron      36.0000000 magnetization 
 augmentation part        0.1435728 magnetization 

 Free energy of the ion-electron system (eV)
  ---------------------------------------------------
  alpha Z        PSCENC =         0.34590649
  Ewald energy   TEWEN  =      2898.72375109
  -Hartree energ DENC   =     -4429.98132766
  -exchange      EXHF   =         0.00000000
  -V(xc)+E(xc)   XCENC  =       121.39491059
  PAW double counting   =     16787.74482347   -16776.53758407
  entropy T*S    EENTRO =        -0.00000000
  eigenvalues    EBANDS =      -483.25536681
  atomic energy  EATOM  =      1813.47061108
  ---------------------------------------------------
  free energy    TOTEN  =       -68.09427582 eV

  energy without entropy =      -68.09427582  energy(sigma->0) =      -68.09427582


--------------------------------------------------------------------------------------------------------




--------------------------------------- Iteration      1(   9)  ---------------------------------------


    POTLOK:  cpu time      0.4345: real time      0.4349
    SETDIJ:  cpu time      0.0016: real time      0.0016
    TRIAL :  cpu time      2.6897: real time      2.6910
    CORREC:  cpu time      2.5200: real time      2.5207
    CHARGE:  cpu time      1.3748: real time      1.3750
    --------------------------------------------
      LOOP:  cpu time      7.0369: real time      7.0537

 eigenvalue-minimisations  :     0
 total energy-change (2. order) :-0.2548971E+00  (-0.9836373E-01)
 number of electron      36.0000000 magnetization 
 augmentation part        0.1460874 magnetization 

 Free energy of the ion-electron system (eV)
  ---------------------------------------------------
  alpha Z        PSCENC =         0.34590649
  Ewald energy   TEWEN  =      2898.72375109
  -Hartree energ DENC   =     -4423.27139200
  -exchange      EXHF   =         0.00000000
  -V(xc)+E(xc)   XCENC  =       121.05460030
  PAW double counting   =     17090.26991699   -17079.02245846
  entropy T*S    EENTRO =        -0.00000000
  eigenvalues    EBANDS =      -489.92010839
  atomic energy  EATOM  =      1813.47061108
  ---------------------------------------------------
  free energy    TOTEN  =       -68.34917291 eV

  energy without entropy =      -68.34917291  energy(sigma->0) =      -68.34917291


--------------------------------------------------------------------------------------------------------




--------------------------------------- Iteration      1(  10)  ---------------------------------------


    POTLOK:  cpu time      0.4336: real time      0.4339
    SETDIJ:  cpu time      0.0017: real time      0.0017
    TRIAL :  cpu time      2.6801: real time      2.6813
    CORREC:  cpu time      2.5137: real time      2.5145
    CHARGE:  cpu time      1.3805: real time      1.3808
    --------------------------------------------
      LOOP:  cpu time      7.0397: real time      7.0427

 eigenvalue-minimisations  :     0
 total energy-change (2. order) :-0.9741460E-01  (-0.2615308E-01)
 number of electron      36.0000000 magnetization 
 augmentation part        0.1478819 magnetization 

 Free energy of the ion-electron system (eV)
  ---------------------------------------------------
  alpha Z        PSCENC =         0.34590649
  Ewald energy   TEWEN  =      2898.72375109
  -Hartree energ DENC   =     -4416.42183855
  -exchange      EXHF   =         0.00000000
  -V(xc)+E(xc)   XCENC  =       120.86264793
  PAW double counting   =     16602.05144630   -16590.82148039
  entropy T*S    EENTRO =        -0.00000000
  eigenvalues    EBANDS =      -496.65763145
  atomic energy  EATOM  =      1813.47061108
  ---------------------------------------------------
  free energy    TOTEN  =       -68.44658751 eV

  energy without entropy =      -68.44658751  energy(sigma->0) =      -68.44658751


--------------------------------------------------------------------------------------------------------




--------------------------------------- Iteration      1(  11)  ---------------------------------------


    POTLOK:  cpu time      0.4370: real time      0.4371
    SETDIJ:  cpu time      0.0016: real time      0.0016
    TRIAL :  cpu time      2.6892: real time      2.6905
    CORREC:  cpu time      2.5231: real time      2.5239
    CHARGE:  cpu time      1.3898: real time      1.3903
    --------------------------------------------
      LOOP:  cpu time      7.0564: real time      7.0751

 eigenvalue-minimisations  :     0
 total energy-change (2. order) :-0.2612305E-01  (-0.7093414E-02)
 number of electron      36.0000000 magnetization 
 augmentation part        0.1487342 magnetization 

 Free energy of the ion-electron system (eV)
  ---------------------------------------------------
  alpha Z        PSCENC =         0.34590649
  Ewald energy   TEWEN  =      2898.72375109
  -Hartree energ DENC   =     -4414.55313187
  -exchange      EXHF   =         0.00000000
  -V(xc)+E(xc)   XCENC  =       120.85229676
  PAW double counting   =     16205.11249628   -16193.91134436
  entropy T*S    EENTRO =        -0.00000000
  eigenvalues    EBANDS =      -498.51329602
  atomic energy  EATOM  =      1813.47061108
  ---------------------------------------------------
  free energy    TOTEN  =       -68.47271055 eV

  energy without entropy =      -68.47271055  energy(sigma->0) =      -68.47271055


--------------------------------------------------------------------------------------------------------




--------------------------------------- Iteration      1(  12)  ---------------------------------------


    POTLOK:  cpu time      0.4325: real time      0.4326
    SETDIJ:  cpu time      0.0017: real time      0.0017
    TRIAL :  cpu time      2.6783: real time      2.6797
    CORREC:  cpu time      2.5117: real time      2.5123
    CHARGE:  cpu time      1.3754: real time      1.3759
    --------------------------------------------
      LOOP:  cpu time      7.0179: real time      7.0341

 eigenvalue-minimisations  :     0
 total energy-change (2. order) :-0.7096201E-02  (-0.2179827E-02)
 number of electron      36.0000000 magnetization 
 augmentation part        0.1485926 magnetization 

 Free energy of the ion-electron system (eV)
  ---------------------------------------------------
  alpha Z        PSCENC =         0.34590649
  Ewald energy   TEWEN  =      2898.72375109
  -Hartree energ DENC   =     -4414.42372871
  -exchange      EXHF   =         0.00000000
  -V(xc)+E(xc)   XCENC  =       120.85813803
  PAW double counting   =     16114.55719428   -16103.36849847
  entropy T*S    EENTRO =        -0.00000000
  eigenvalues    EBANDS =      -498.64318054
  atomic energy  EATOM  =      1813.47061108
  ---------------------------------------------------
  free energy    TOTEN  =       -68.47980676 eV

  energy without entropy =      -68.47980676  energy(sigma->0) =      -68.47980676


--------------------------------------------------------------------------------------------------------




--------------------------------------- Iteration      1(  13)  ---------------------------------------


    POTLOK:  cpu time      0.4323: real time      0.4323
    SETDIJ:  cpu time      0.0016: real time      0.0016
    TRIAL :  cpu time      2.6767: real time      2.6782
    CORREC:  cpu time      2.5215: real time      2.5223
    CHARGE:  cpu time      1.3694: real time      1.3700
    --------------------------------------------
      LOOP:  cpu time      7.0179: real time      7.0358

 eigenvalue-minimisations  :     0
 total energy-change (2. order) :-0.2180733E-02  (-0.7425038E-03)
 number of electron      36.0000000 magnetization 
 augmentation part        0.1483657 magnetization 

 Free energy of the ion-electron system (eV)
  ---------------------------------------------------
  alpha Z        PSCENC =         0.34590649
  Ewald energy   TEWEN  =      2898.72375109
  -Hartree energ DENC   =     -4414.50705167
  -exchange      EXHF   =         0.00000000
  -V(xc)+E(xc)   XCENC  =       120.85930606
  PAW double counting   =     16139.43650500   -16128.24862784
  entropy T*S    EENTRO =        -0.00000000
  eigenvalues    EBANDS =      -498.56238770
  atomic energy  EATOM  =      1813.47061108
  ---------------------------------------------------
  free energy    TOTEN  =       -68.48198749 eV

  energy without entropy =      -68.48198749  energy(sigma->0) =      -68.48198749


--------------------------------------------------------------------------------------------------------




--------------------------------------- Iteration      1(  14)  ---------------------------------------


    POTLOK:  cpu time      0.4284: real time      0.4284
    SETDIJ:  cpu time      0.0016: real time      0.0016
    TRIAL :  cpu time      2.6920: real time      2.6934
    CORREC:  cpu time      2.5127: real time      2.5134
    CHARGE:  cpu time      1.3713: real time      1.3719
    --------------------------------------------
      LOOP:  cpu time      7.0185: real time      7.0447

 eigenvalue-minimisations  :     0
 total energy-change (2. order) :-0.7419681E-03  (-0.2574902E-03)
 number of electron      36.0000000 magnetization 
 augmentation part        0.1482272 magnetization 

 Free energy of the ion-electron system (eV)
  ---------------------------------------------------
  alpha Z        PSCENC =         0.34590649
  Ewald energy   TEWEN  =      2898.72375109
  -Hartree energ DENC   =     -4414.81504090
  -exchange      EXHF   =         0.00000000
  -V(xc)+E(xc)   XCENC  =       120.86704036
  PAW double counting   =     16178.95409580   -16167.76537185
  entropy T*S    EENTRO =        -0.00000000
  eigenvalues    EBANDS =      -498.26372151
  atomic energy  EATOM  =      1813.47061108
  ---------------------------------------------------
  free energy    TOTEN  =       -68.48272946 eV

  energy without entropy =      -68.48272946  energy(sigma->0) =      -68.48272946


--------------------------------------------------------------------------------------------------------




--------------------------------------- Iteration      1(  15)  ---------------------------------------


    POTLOK:  cpu time      0.4233: real time      0.4233
    SETDIJ:  cpu time      0.0016: real time      0.0016
    TRIAL :  cpu time      2.6796: real time      2.6815
    CORREC:  cpu time      2.5223: real time      2.5231
    CHARGE:  cpu time      1.3782: real time      1.3788
    --------------------------------------------
      LOOP:  cpu time      7.0192: real time      7.0402

 eigenvalue-minimisations  :     0
 total energy-change (2. order) :-0.2571216E-03  (-0.7999482E-04)
 number of electron      36.0000000 magnetization 
 augmentation part        0.1481991 magnetization 

 Free energy of the ion-electron system (eV)
  ---------------------------------------------------
  alpha Z        PSCENC =         0.34590649
  Ewald energy   TEWEN  =      2898.72375109
  -Hartree energ DENC   =     -4415.11771885
  -exchange      EXHF   =         0.00000000
  -V(xc)+E(xc)   XCENC  =       120.87499062
  PAW double counting   =     16195.49720140   -16184.30784767
  entropy T*S    EENTRO =        -0.00000000
  eigenvalues    EBANDS =      -497.96988073
  atomic energy  EATOM  =      1813.47061108
  ---------------------------------------------------
  free energy    TOTEN  =       -68.48298658 eV

  energy without entropy =      -68.48298658  energy(sigma->0) =      -68.48298658


--------------------------------------------------------------------------------------------------------




--------------------------------------- Iteration      1(  16)  ---------------------------------------


    POTLOK:  cpu time      0.4267: real time      0.4268
    SETDIJ:  cpu time      0.0017: real time      0.0017
    TRIAL :  cpu time      2.6901: real time      2.6919
    CORREC:  cpu time      2.5056: real time      2.5065
    CHARGE:  cpu time      1.3722: real time      1.3728
    --------------------------------------------
      LOOP:  cpu time      7.0125: real time      7.0304

 eigenvalue-minimisations  :     0
 total energy-change (2. order) :-0.8006306E-04  (-0.2202869E-04)
 number of electron      36.0000000 magnetization 
 augmentation part        0.1482414 magnetization 

 Free energy of the ion-electron system (eV)
  ---------------------------------------------------
  alpha Z        PSCENC =         0.34590649
  Ewald energy   TEWEN  =      2898.72375109
  -Hartree energ DENC   =     -4415.18771014
  -exchange      EXHF   =         0.00000000
  -V(xc)+E(xc)   XCENC  =       120.87658871
  PAW double counting   =     16192.68440300   -16181.49456494
  entropy T*S    EENTRO =        -0.00000000
  eigenvalues    EBANDS =      -497.90205192
  atomic energy  EATOM  =      1813.47061108
  ---------------------------------------------------
  free energy    TOTEN  =       -68.48306664 eV

  energy without entropy =      -68.48306664  energy(sigma->0) =      -68.48306664


--------------------------------------------------------------------------------------------------------




--------------------------------------- Iteration      1(  17)  ---------------------------------------


    POTLOK:  cpu time      0.4262: real time      0.4262
    SETDIJ:  cpu time      0.0017: real time      0.0017
    TRIAL :  cpu time      2.6771: real time      2.6788
    CORREC:  cpu time      2.5076: real time      2.5085
    CHARGE:  cpu time      1.3873: real time      1.3879
    --------------------------------------------
      LOOP:  cpu time      7.0147: real time      7.0346

 eigenvalue-minimisations  :     0
 total energy-change (2. order) :-0.2212758E-04  (-0.6080961E-05)
 number of electron      36.0000000 magnetization 
 augmentation part        0.1482478 magnetization 

 Free energy of the ion-electron system (eV)
  ---------------------------------------------------
  alpha Z        PSCENC =         0.34590649
  Ewald energy   TEWEN  =      2898.72375109
  -Hartree energ DENC   =     -4415.22641366
  -exchange      EXHF   =         0.00000000
  -V(xc)+E(xc)   XCENC  =       120.87811365
  PAW double counting   =     16187.03702290   -16175.84735493
  entropy T*S    EENTRO =        -0.00000000
  eigenvalues    EBANDS =      -497.86472539
  atomic energy  EATOM  =      1813.47061108
  ---------------------------------------------------
  free energy    TOTEN  =       -68.48308877 eV

  energy without entropy =      -68.48308877  energy(sigma->0) =      -68.48308877


--------------------------------------------------------------------------------------------------------




--------------------------------------- Iteration      1(  18)  ---------------------------------------


    POTLOK:  cpu time      0.4255: real time      0.4255
    SETDIJ:  cpu time      0.0017: real time      0.0017
    TRIAL :  cpu time      2.6771: real time      2.6791
    CORREC:  cpu time      2.5107: real time      2.5116
    CHARGE:  cpu time      1.3848: real time      1.3856
    --------------------------------------------
      LOOP:  cpu time      7.0303: real time      7.0344

 eigenvalue-minimisations  :     0
 total energy-change (2. order) :-0.6095523E-05  (-0.1825619E-05)
 number of electron      36.0000000 magnetization 
 augmentation part        0.1482405 magnetization 

 Free energy of the ion-electron system (eV)
  ---------------------------------------------------
  alpha Z        PSCENC =         0.34590649
  Ewald energy   TEWEN  =      2898.72375109
  -Hartree energ DENC   =     -4415.23348647
  -exchange      EXHF   =         0.00000000
  -V(xc)+E(xc)   XCENC  =       120.87847366
  PAW double counting   =     16185.73297612   -16174.54329254
  entropy T*S    EENTRO =        -0.00000000
  eigenvalues    EBANDS =      -497.85803430
  atomic energy  EATOM  =      1813.47061108
  ---------------------------------------------------
  free energy    TOTEN  =       -68.48309486 eV

  energy without entropy =      -68.48309486  energy(sigma->0) =      -68.48309486


--------------------------------------------------------------------------------------------------------




--------------------------------------- Iteration      1(  19)  ---------------------------------------


    POTLOK:  cpu time      0.4219: real time      0.4220
    SETDIJ:  cpu time      0.0016: real time      0.0016
    TRIAL :  cpu time      2.6895: real time      2.6914
    CORREC:  cpu time      2.5134: real time      2.5143
    CHARGE:  cpu time      1.3811: real time      1.3818
    --------------------------------------------
      LOOP:  cpu time      7.0217: real time      7.0417

 eigenvalue-minimisations  :     0
 total energy-change (2. order) :-0.1809307E-05  (-0.5839069E-06)
 number of electron      36.0000000 magnetization 
 augmentation part        0.1482393 magnetization 

 Free energy of the ion-electron system (eV)
  ---------------------------------------------------
  alpha Z        PSCENC =         0.34590649
  Ewald energy   TEWEN  =      2898.72375109
  -Hartree energ DENC   =     -4415.22217904
  -exchange      EXHF   =         0.00000000
  -V(xc)+E(xc)   XCENC  =       120.87818896
  PAW double counting   =     16187.00836222   -16175.81857986
  entropy T*S    EENTRO =        -0.00000000
  eigenvalues    EBANDS =      -497.86915761
  atomic energy  EATOM  =      1813.47061108
  ---------------------------------------------------
  free energy    TOTEN  =       -68.48309667 eV

  energy without entropy =      -68.48309667  energy(sigma->0) =      -68.48309667


--------------------------------------------------------------------------------------------------------




--------------------------------------- Iteration      1(  20)  ---------------------------------------


    POTLOK:  cpu time      0.4266: real time      0.4266
    SETDIJ:  cpu time      0.0017: real time      0.0017
    TRIAL :  cpu time      2.6863: real time      2.6879
    CORREC:  cpu time      2.5001: real time      2.5012
    CHARGE:  cpu time      1.3836: real time      1.3839
    --------------------------------------------
      LOOP:  cpu time      7.0288: real time      7.0320

 eigenvalue-minimisations  :     0
 total energy-change (2. order) :-0.5570764E-06  (-0.1792640E-06)
 number of electron      36.0000000 magnetization 
 augmentation part        0.1482368 magnetization 

 Free energy of the ion-electron system (eV)
  ---------------------------------------------------
  alpha Z        PSCENC =         0.34590649
  Ewald energy   TEWEN  =      2898.72375109
  -Hartree energ DENC   =     -4415.21940439
  -exchange      EXHF   =         0.00000000
  -V(xc)+E(xc)   XCENC  =       120.87815849
  PAW double counting   =     16188.56461278   -16177.37482645
  entropy T*S    EENTRO =        -0.00000000
  eigenvalues    EBANDS =      -497.87190632
  atomic energy  EATOM  =      1813.47061108
  ---------------------------------------------------
  free energy    TOTEN  =       -68.48309723 eV

  energy without entropy =      -68.48309723  energy(sigma->0) =      -68.48309723


--------------------------------------------------------------------------------------------------------




--------------------------------------- Iteration      1(  21)  ---------------------------------------


    POTLOK:  cpu time      0.4247: real time      0.4247
    SETDIJ:  cpu time      0.0017: real time      0.0017
    TRIAL :  cpu time      2.6914: real time      2.6930
    CORREC:  cpu time      2.4994: real time      2.5004
    CHARGE:  cpu time      1.3784: real time      1.3787
    --------------------------------------------
      LOOP:  cpu time      7.0263: real time      7.0295

 eigenvalue-minimisations  :     0
 total energy-change (2. order) :-0.1616372E-06  (-0.5218065E-07)
 number of electron      36.0000000 magnetization 
 augmentation part        0.1482398 magnetization 

 Free energy of the ion-electron system (eV)
  ---------------------------------------------------
  alpha Z        PSCENC =         0.34590649
  Ewald energy   TEWEN  =      2898.72375109
  -Hartree energ DENC   =     -4415.21395970
  -exchange      EXHF   =         0.00000000
  -V(xc)+E(xc)   XCENC  =       120.87795212
  PAW double counting   =     16189.34583145   -16178.15602527
  entropy T*S    EENTRO =        -0.00000000
  eigenvalues    EBANDS =      -497.87716465
  atomic energy  EATOM  =      1813.47061108
  ---------------------------------------------------
  free energy    TOTEN  =       -68.48309739 eV

  energy without entropy =      -68.48309739  energy(sigma->0) =      -68.48309739


--------------------------------------------------------------------------------------------------------




--------------------------------------- Iteration      1(  22)  ---------------------------------------


    POTLOK:  cpu time      0.4237: real time      0.4237
    SETDIJ:  cpu time      0.0017: real time      0.0017
    TRIAL :  cpu time      2.6785: real time      2.6801
    CORREC:  cpu time      2.5061: real time      2.5073
    EDDIAG:  cpu time      1.0948: real time      1.0952
    CHARGE:  cpu time      1.3798: real time      1.3802
    --------------------------------------------
      LOOP:  cpu time      8.0984: real time      8.1185

 eigenvalue-minimisations  :     0
 total energy-change (2. order) :-0.4416324E-07  (-0.1847667E-07)
 number of electron      36.0000000 magnetization 
 augmentation part        0.1482412 magnetization 

 Free energy of the ion-electron system (eV)
  ---------------------------------------------------
  alpha Z        PSCENC =         0.34590649
  Ewald energy   TEWEN  =      2898.72375109
  -Hartree energ DENC   =     -4415.21403487
  -exchange      EXHF   =         0.00000000
  -V(xc)+E(xc)   XCENC  =       120.87796146
  PAW double counting   =     16189.33650539   -16178.14672873
  entropy T*S    EENTRO =        -0.00000000
  eigenvalues    EBANDS =      -497.87706933
  atomic energy  EATOM  =      1813.47061108
  ---------------------------------------------------
  free energy    TOTEN  =       -68.48309744 eV

  energy without entropy =      -68.48309744  energy(sigma->0) =      -68.48309744


--------------------------------------------------------------------------------------------------------


  average scaling for gradient   1.6227


 average (electrostatic) potential at core
  the test charge radii are     0.5770  0.4325  0.5955
  (the norm of the test charge is              1.0000)
       1 -88.5325       2 -88.5321       3 -88.5316       4 -45.4674       5 -45.2673
       6 -45.4679       7 -45.4669       8 -45.2665       9 -45.2675      10-120.0815
      11-120.0798      12-120.0809



 E-fermi :  -6.5545     XC(G=0):  -0.1526     alpha+bet : -0.0680

 Fermi energy:        -6.5545405129

 k-point     1 :       0.0000    0.0000    0.0000
  band No.  band energies     occupation 
      1     -28.0056      2.00000
      2     -25.6410      2.00000
      3     -25.6395      2.00000
      4     -17.8530      2.00000
      5     -17.8514      2.00000
      6     -14.9652      2.00000
      7     -13.3062      2.00000
      8     -13.2387      2.00000
      9     -11.9937      2.00000
     10     -11.9931      2.00000
     11     -10.8704      2.00000
     12     -10.5282      2.00000
     13     -10.5277      2.00000
     14      -8.1039      2.00000
     15      -8.1018      2.00000
     16      -6.8484      2.00000
     17      -6.8467      2.00000
     18      -6.6243      2.00000
     19      -0.4885      0.00000
     20       0.0065      0.00000
     21       0.0344      0.00000
     22       0.0348      0.00000
     23       0.1198      0.00000
     24       0.3162      0.00000
     25       0.3361      0.00000
     26       0.4177      0.00000
     27       0.4369      0.00000
     28       0.4387      0.00000
     29       0.4812      0.00000
     30       0.5091      0.00000
     31       0.5355      0.00000
     32       0.6046      0.00000
     33       0.6137      0.00000
     34       0.6343      0.00000
     35       0.6589      0.00000
     36       0.6628      0.00000
     37       0.6632      0.00000
     38       0.7680      0.00000
     39       0.7740      0.00000
     40       0.7976      0.00000
     41       0.8374      0.00000
     42       0.8392      0.00000
     43       0.8841      0.00000
     44       0.9049      0.00000
     45       0.9145      0.00000
     46       0.9626      0.00000
     47       0.9995      0.00000
     48       1.0711      0.00000
     49       1.1085      0.00000
     50       1.1245      0.00000
     51       1.1402      0.00000
     52       1.2039      0.00000
     53       1.2567      0.00000
     54       1.2880      0.00000
     55       1.3435      0.00000
     56       1.3505      0.00000
     57       1.3571      0.00000
     58       1.3875      0.00000
     59       1.4015      0.00000
     60       1.4681      0.00000
     61       1.5166      0.00000
     62       1.5359      0.00000
     63       1.5404      0.00000
     64       1.5524      0.00000
     65       1.5581      0.00000
     66       1.5615      0.00000
     67       1.5857      0.00000
     68       1.5887      0.00000
     69       1.5891      0.00000
     70       1.5909      0.00000
     71       1.5920      0.00000
     72       1.5962      0.00000
     73       1.5995      0.00000
     74       1.6002      0.00000
     75       1.6021      0.00000
     76       1.6552      0.00000
     77       1.6758      0.00000
     78       1.7049      0.00000
     79       1.7403      0.00000
     80       1.7442      0.00000
     81       1.7473      0.00000
     82       1.7840      0.00000
     83       1.8000      0.00000
     84       1.8081      0.00000
     85       1.8306      0.00000
     86       1.8586      0.00000
     87       1.8677      0.00000
     88       1.8707      0.00000
     89       1.8724      0.00000
     90       1.8746      0.00000
     91       1.8840      0.00000
     92       1.8939      0.00000
     93       1.8972      0.00000
     94       1.8985      0.00000
     95       1.8993      0.00000
     96       1.9018      0.00000
     97       1.9041      0.00000
     98       1.9079      0.00000
     99       1.9099      0.00000
    100       1.9878      0.00000
    101       2.0107      0.00000
    102       2.1061      0.00000
    103       2.2351      0.00000
    104       2.2354      0.00000
    105       2.2619      0.00000
    106       2.3561      0.00000
    107       2.3648      0.00000
    108       2.3756      0.00000
    109       2.4257      0.00000
    110       2.4337      0.00000
    111       2.4526      0.00000
    112       2.5121      0.00000
    113       2.5257      0.00000
    114       2.5439      0.00000
    115       2.5618      0.00000
    116       2.5723      0.00000
    117       2.5892      0.00000
    118       2.6036      0.00000
    119       2.6281      0.00000
    120       2.6516      0.00000
    121       2.6583      0.00000
    122       2.6931      0.00000
    123       2.7115      0.00000
    124       2.7359      0.00000
    125       2.7518      0.00000
    126       2.7618      0.00000
    127       2.7742      0.00000
    128       2.8042      0.00000
    129       2.8066      0.00000
    130       2.8089      0.00000
    131       2.8098      0.00000
    132       2.8153      0.00000
    133       2.8166      0.00000
    134       2.8280      0.00000
    135       2.8293      0.00000
    136       2.8305      0.00000
    137       2.8335      0.00000
    138       2.8341      0.00000
    139       2.8348      0.00000
    140       2.8354      0.00000
    141       2.8374      0.00000
    142       2.8789      0.00000
    143       2.8910      0.00000
    144       2.9289      0.00000
    145       2.9436      0.00000
    146       2.9566      0.00000
    147       2.9839      0.00000
    148       2.9971      0.00000
    149       3.0198      0.00000
    150       3.0233      0.00000
    151       3.0524      0.00000
    152       3.0590      0.00000
    153       3.0702      0.00000
    154       3.0829      0.00000
    155       3.0945      0.00000
    156       3.0996      0.00000
    157       3.1040      0.00000
    158       3.1063      0.00000
    159       3.1140      0.00000
    160       3.1357      0.00000
    161       3.1376      0.00000
    162       3.1435      0.00000
    163       3.1445      0.00000
    164       3.1449      0.00000
    165       3.1492      0.00000
    166       3.1587      0.00000
    167       3.1684      0.00000
    168       3.2338      0.00000
    169       3.2756      0.00000
    170       3.2848      0.00000
    171       3.2947      0.00000
    172       3.3252      0.00000
    173       3.3353      0.00000
    174       3.3422      0.00000
    175       3.3526      0.00000
    176       3.3686      0.00000
    177       3.3751      0.00000
    178       3.3867      0.00000
    179       3.3928      0.00000
    180       3.3968      0.00000
    181       3.4062      0.00000
    182       3.4070      0.00000
    183       3.4094      0.00000
    184       3.4313      0.00000
    185       3.4330      0.00000
    186       3.4360      0.00000
    187       3.4379      0.00000
    188       3.4469      0.00000
    189       3.4479      0.00000
    190       3.4825      0.00000
    191       3.4882      0.00000
    192       3.5511      0.00000
    193       3.5844      0.00000
    194       3.5951      0.00000
    195       3.6006      0.00000
    196       3.6555      0.00000
    197       3.6755      0.00000
    198       3.6939      0.00000
    199       3.7076      0.00000
    200       3.7456      0.00000
    201       3.7672      0.00000
    202       3.7879      0.00000
    203       3.8051      0.00000
    204       3.8105      0.00000
    205       3.8441      0.00000
    206       3.8751      0.00000
    207       3.8922      0.00000
    208       3.9339      0.00000
    209       3.9457      0.00000
    210       3.9740      0.00000
    211       3.9897      0.00000
    212       4.0135      0.00000
    213       4.0243      0.00000
    214       4.0381      0.00000
    215       4.0445      0.00000
    216       4.0461      0.00000
    217       4.0556      0.00000
    218       4.0614      0.00000
    219       4.0625      0.00000
    220       4.0649      0.00000
    221       4.0702      0.00000
    222       4.0732      0.00000
    223       4.0779      0.00000
    224       4.1115      0.00000
    225       4.1493      0.00000
    226       4.1548      0.00000
    227       4.1686      0.00000
    228       4.1778      0.00000
    229       4.1831      0.00000
    230       4.2029      0.00000
    231       4.2266      0.00000
    232       4.2365      0.00000
    233       4.2458      0.00000
    234       4.2778      0.00000
    235       4.2800      0.00000
    236       4.2819      0.00000
    237       4.2902      0.00000
    238       4.3042      0.00000
    239       4.3088      0.00000
    240       4.3118      0.00000
    241       4.3146      0.00000
    242       4.3198      0.00000
    243       4.3324      0.00000
    244       4.3375      0.00000
    245       4.3459      0.00000
    246       4.3514      0.00000
    247       4.3610      0.00000
    248       4.3728      0.00000
    249       4.3734      0.00000
    250       4.3743      0.00000
    251       4.4051      0.00000
    252       4.4243      0.00000
    253       4.4534      0.00000
    254       4.5931      0.00000
    255       4.6273      0.00000
    256       4.7433      0.00000


--------------------------------------------------------------------------------------------------------


 soft charge-density along one line, spin component           1
         0         1         2         3         4         5         6         7         8         9
 total charge-density along one line

 pseudopotential strength for first ion, spin component:           1
 12.799  21.540   0.009   0.012   0.010   0.015   0.022   0.018
 21.540  36.251   0.014   0.021   0.017   0.026   0.037   0.031
  0.009   0.014  -3.218  -0.001   0.000  -5.772  -0.002   0.001
  0.012   0.021  -0.001  -3.219   0.001  -0.002  -5.774   0.001
  0.010   0.017   0.000   0.001  -3.221   0.001   0.001  -5.776
  0.015   0.026  -5.772  -0.002   0.001 -10.329  -0.004   0.002
  0.022   0.037  -0.002  -5.774   0.001  -0.004 -10.333   0.002
  0.018   0.031   0.001   0.001  -5.776   0.002   0.002 -10.337
 total augmentation occupancy for first ion, spin component:           1
  7.140  -2.498   0.252   0.424   0.338  -0.154  -0.252  -0.202
 -2.498   0.941  -0.201  -0.325  -0.262   0.099   0.161   0.129
  0.252  -0.201   5.381   0.147  -0.060  -1.647  -0.155   0.072
  0.424  -0.325   0.147   5.365  -0.154  -0.156  -1.740   0.114
  0.338  -0.262  -0.060  -0.154   5.635   0.072   0.114  -1.961
 -0.154   0.099  -1.647  -0.156   0.072   0.520   0.088  -0.044
 -0.252   0.161  -0.155  -1.740   0.114   0.088   0.584  -0.063
 -0.202   0.129   0.072   0.114  -1.961  -0.044  -0.063   0.706


------------------------ aborting loop because EDIFF is reached ----------------------------------------


    FORLOC:  cpu time      0.0224: real time      0.0224
    FORNL :  cpu time      0.3260: real time      0.3264
    FORCOR:  cpu time      0.2542: real time      0.2546
    OFIELD:  cpu time      0.0044: real time      0.0049

 ---------------------------------------------------------------------------------------------

         DFTD3 V3.0 Rev 1        
 IVDW         = 11
 DF pbe       
 parameters
 VDW_S6       =    1.0000
 VDW_S8       =    0.7220
 VDW_SR       =    1.2170
 rs18     =    1.0000
 alpha6   =   14.0000
 alpha8   =   16.0000
 k1-k3    =   16.0000    1.3333   -4.0000
 VDW_RADIUS   =   50.2022 A
 VDW_CNRADIUS =   21.1671 A
 Edisp (eV)   -0.10751

 E6    (eV) :    -0.0319
 E8    (eV) :    -0.0756
 % E8        : 70.28
    FORVDW:  cpu time      0.0738: real time      0.0757

 VOLUME and BASIS-vectors are now :
 -----------------------------------------------------------------------------
  energy-cutoff  :     1000.00
  volume of cell :    10648.00
      direct lattice vectors                 reciprocal lattice vectors
    22.000000000  0.000000000  0.000000000     0.045454545  0.000000000  0.000000000
     0.000000000 22.000000000  0.000000000     0.000000000  0.045454545  0.000000000
     0.000000000  0.000000000 22.000000000     0.000000000  0.000000000  0.045454545

  length of vectors
    22.000000000 22.000000000 22.000000000     0.045454545  0.045454545  0.045454545


 FORCES acting on ions:
    Electron-Ion                     Ewald-Force                    Non-Local-Force
 -----------------------------------------------------------------------------------------------
   0.141E+03 0.171E+03 0.131E+03   -.147E+03 -.176E+03 -.139E+03   0.647E+01 0.547E+01 0.773E+01
   -.211E+03 -.684E+02 0.131E+03   0.218E+03 0.722E+02 -.139E+03   -.747E+01 -.402E+01 0.774E+01
   0.140E+03 -.206E+03 -.655E+02   -.147E+03 0.215E+03 0.655E+02   0.647E+01 -.948E+01 -.882E-01
   -.969E+02 -.349E+01 0.686E+01   0.103E+03 0.322E+01 -.636E+01   -.598E+01 0.262E+00 -.491E+00
   0.450E+02 -.607E+01 0.845E+02   -.468E+02 0.833E+01 -.894E+02   0.180E+01 -.222E+01 0.476E+01
   0.387E+02 0.889E+02 0.690E+01   -.406E+02 -.947E+02 -.640E+01   0.194E+01 0.566E+01 -.486E+00
   0.385E+02 -.565E+02 -.691E+02   -.405E+02 0.594E+02 0.742E+02   0.193E+01 -.283E+01 -.493E+01
   0.450E+02 -.659E+02 0.532E+02   -.469E+02 0.686E+02 -.579E+02   0.181E+01 -.264E+01 0.454E+01
   -.108E+02 -.441E+02 0.846E+02   0.936E+01 0.466E+02 -.894E+02   0.141E+01 -.248E+01 0.477E+01
   -.211E+03 0.310E+03 0.899E+02   0.239E+03 -.350E+03 -.866E+02   -.276E+02 0.406E+02 -.333E+01
   -.211E+03 -.251E+03 -.202E+03   0.239E+03 0.271E+03 0.237E+03   -.277E+02 -.205E+02 -.351E+02
   0.311E+03 0.105E+03 -.202E+03   -.340E+03 -.124E+03 0.237E+03   0.292E+02 0.183E+02 -.351E+02
 -----------------------------------------------------------------------------------------------
   0.178E+02 -.261E+02 0.500E+02   0.000E+00 0.114E-12 -.568E-13   -.178E+02 0.261E+02 -.500E+02


 POSITION                                       TOTAL-FORCE (eV/Angst)
 -----------------------------------------------------------------------------------
      9.75943     10.23302     10.48981         0.124529      0.148607      0.118421
     11.66973     11.53522     10.48910        -0.185232     -0.058593      0.123171
      9.76112     12.28260     11.55955         0.124202     -0.180316     -0.053023
     12.75629     11.48691     10.57995         0.097502     -0.002865      0.007022
      9.41113     10.69645      9.54435        -0.036709      0.032331     -0.087111
      9.40758      9.20383     10.57990        -0.034248     -0.091716      0.009410
      9.41107     12.79617     12.45662        -0.032875      0.050995      0.080134
      9.41144     12.79398     10.63978        -0.037081      0.054836     -0.077876
     11.36588     12.02819      9.54338        -0.016879      0.046621     -0.090338
     11.17738     10.20523     10.50814         0.035339     -0.049048     -0.050274
     11.17926     12.28296     11.59037         0.032765      0.059430      0.011310
      9.24371     10.96230     11.59172        -0.071314     -0.010281      0.009155
 -----------------------------------------------------------------------------------
    total drift:                               -0.000138     -0.000038     -0.000022


--------------------------------------------------------------------------------------------------------



  FREE ENERGIE OF THE ION-ELECTRON SYSTEM (eV)
  ---------------------------------------------------
  free  energy   TOTEN  =       -68.59060320 eV

  energy  without entropy=      -68.59060320  energy(sigma->0) =      -68.59060320



--------------------------------------------------------------------------------------------------------


    POTLOK:  cpu time      0.4396: real time      0.4398


--------------------------------------------------------------------------------------------------------


 stress matrix after NEB project (eV)
      0.09286      0.00446     -0.00842
      0.00446      0.08943      0.01238
     -0.00842      0.01238      0.07217
  FORCES: max atom, RMS     0.230032    0.139002
  FORCE total and by dimension    0.481518    0.185232
  Stress total and by dimension    0.149389    0.092856
     LOOP+:  cpu time    171.2358: real time    171.5801
    4ORBIT:  cpu time      0.0000: real time      0.0000

 total amount of memory used by VASP MPI-rank0   556134. kBytes
=======================================================================

   base      :      30000. kBytes
   nonl-proj :      73433. kBytes
   fftplans  :     151777. kBytes
   grid      :     291732. kBytes
   one-center:          9. kBytes
   wavefun   :       9183. kBytes

  
  
 General timing and accounting informations for this job:
 ========================================================
  
                  Total CPU time used (sec):      239.246
                            User time (sec):      210.527
                          System time (sec):       28.719
                         Elapsed time (sec):      259.200
  
                   Maximum memory used (kb):      821832.
                   Average memory used (kb):          N/A
  
                          Minor page faults:      1164191
                          Major page faults:         1163
                 Voluntary context switches:        11773
