 vasp.6.4.1 05Apr23 (build Jun  6 2023 14:46:38) gamma-only                      
 executed on        HPECrayEX_GCC date 2024.08.22  08:05:31
 running  512 mpi-ranks, with    1 threads/rank, on    4 nodes
 distrk:  each k-point on  256 cores,    2 groups
 distr:  one band on NCORE=  32 cores,    8 groups


--------------------------------------------------------------------------------------------------------


 INCAR:
   ALGO = Conjugate
   KPAR = 2
   NCORE = 32
   ISMEAR = 0
   SIGMA = 0.01
   PREC = Accurate
   EDIFF = 1E-7
   ENCUT = 1000
   ISIF = 0
   METAGGA = RSCAN
   LASPH = .TRUE.
   SYMPREC = 1E-7
   LWAVE = .FALSE.
   LCHARG = .FALSE.
   LWAVE = .FALSE.
   LCHARG = .FALSE.

 POTCAR:    PAW_PBE C_h 06Feb2004                 
 POTCAR:    PAW_PBE H_h 06Feb2004                 
 POTCAR:    PAW_PBE O_h 06Feb2004                 
 POTCAR:    PAW_PBE C_h 06Feb2004                 
   VRHFIN =C: s2p2                                                                                  
   LEXCH  = PE                                                                                      
   EATOM  =   147.1560 eV,   10.8157 Ry                                                             
                                                                                                    
   TITEL  = PAW_PBE C_h 06Feb2004                                                                   
   LULTRA =        F    use ultrasoft PP ?                                                          
   IUNSCR =        1    unscreen: 0-lin 1-nonlin 2-no                                               
   RPACOR =    0.800    partial core radius                                                         
   POMASS =   12.011; ZVAL   =    4.000    mass and valenz                                          
   RCORE  =    1.100    outmost cutoff radius                                                       
   RWIGS  =    1.630; RWIGS  =    0.863    wigner-seitz radius (au A)                               
   ENMAX  =  700.000; ENMIN  =  500.000 eV                                                          
   ICORE  =        2    local potential                                                             
   LCOR   =        T    correct aug charges                                                         
   LPAW   =        T    paw PP                                                                      
   EAUG   =  946.768                                                                                
   DEXC   =    0.000                                                                                
   RMAX   =    1.128    core radius for proj-oper                                                   
   RAUG   =    1.300    factor for augmentation sphere                                              
   RDEP   =    1.162    radius for radial grids                                                     
   RDEPT  =    1.088    core radius for aug-charge                                                  
                                                                                                    
   Atomic configuration                                                                             
    4 entries                                                                                       
     n  l   j            E        occ.                                                              
     1  0  0.50      -273.3789   2.0000                                                             
     2  0  0.50       -13.7508   2.0000                                                             
     2  1  0.50        -5.2854   2.0000                                                             
     3  2  1.50        -5.4423   0.0000                                                             
   Description                                                                                      
     l       E           TYP  RCUT    TYP  RCUT                                                     
     0    -13.7508458     23  1.100                                                                 
     0     -8.2022199     23  1.100                                                                 
     1     -5.2854383     23  1.100                                                                 
     1      1.1560700     23  1.100                                                                 
     2     -5.4423304      7  1.100                                                                 
  local pseudopotential read in
  partial core-charges read in
  partial kinetic energy density read in
  atomic valenz-charges read in
  non local Contribution for L=           0  read in
    real space projection operators read in
  non local Contribution for L=           0  read in
    real space projection operators read in
  non local Contribution for L=           1  read in
    real space projection operators read in
  non local Contribution for L=           1  read in
    real space projection operators read in
    PAW grid and wavefunctions read in

   number of l-projection  operators is LMAX  =           4
   number of lm-projection operators is LMMAX =           8

 POTCAR:    PAW_PBE H_h 06Feb2004                 
   VRHFIN =H: ultrasoft test                                                                        
   LEXCH  = PE                                                                                      
   EATOM  =    12.4884 eV,    0.9179 Ry                                                             
                                                                                                    
   TITEL  = PAW_PBE H_h 06Feb2004                                                                   
   LULTRA =        F    use ultrasoft PP ?                                                          
   IUNSCR =        0    unscreen: 0-lin 1-nonlin 2-no                                               
   RPACOR =    0.000    partial core radius                                                         
   POMASS =    1.000; ZVAL   =    1.000    mass and valenz                                          
   RCORE  =    0.800    outmost cutoff radius                                                       
   RWIGS  =    0.700; RWIGS  =    0.370    wigner-seitz radius (au A)                               
   ENMAX  =  700.000; ENMIN  =  350.000 eV                                                          
   RCLOC  =    0.701    cutoff for local pot                                                        
   LCOR   =        T    correct aug charges                                                         
   LPAW   =        T    paw PP                                                                      
   EAUG   = 1000.000                                                                                
   RMAX   =    0.819    core radius for proj-oper                                                   
   RAUG   =    1.000    factor for augmentation sphere                                              
   RDEP   =    0.817    radius for radial grids                                                     
   RDEPT  =    0.817    core radius for aug-charge                                                  
                                                                                                    
   Atomic configuration                                                                             
    2 entries                                                                                       
     n  l   j            E        occ.                                                              
     1  0  0.50        -6.4927   1.0000                                                             
     2  1  0.50        -3.4015   0.0000                                                             
   Description                                                                                      
     l       E           TYP  RCUT    TYP  RCUT                                                     
     0     -6.4927493     23  0.800                                                                 
     0      6.8029130     23  0.800                                                                 
     1     -6.8029130     23  0.800                                                                 
  local pseudopotential read in
  atomic valenz-charges read in
  non local Contribution for L=           0  read in
    real space projection operators read in
  non local Contribution for L=           0  read in
    real space projection operators read in
  non local Contribution for L=           1  read in
    real space projection operators read in
    PAW grid and wavefunctions read in

   number of l-projection  operators is LMAX  =           3
   number of lm-projection operators is LMMAX =           5

 POTCAR:    PAW_PBE O_h 06Feb2004                 
   VRHFIN =O: s2p4                                                                                  
   LEXCH  = PE                                                                                      
   EATOM  =   432.3788 eV,   31.7789 Ry                                                             
                                                                                                    
   TITEL  = PAW_PBE O_h 06Feb2004                                                                   
   LULTRA =        F    use ultrasoft PP ?                                                          
   IUNSCR =        1    unscreen: 0-lin 1-nonlin 2-no                                               
   RPACOR =    0.800    partial core radius                                                         
   POMASS =   16.000; ZVAL   =    6.000    mass and valenz                                          
   RCORE  =    1.100    outmost cutoff radius                                                       
   RWIGS  =    1.400; RWIGS  =    0.741    wigner-seitz radius (au A)                               
   ENMAX  =  700.000; ENMIN  =  500.000 eV                                                          
   ICORE  =        2    local potential                                                             
   LCOR   =        T    correct aug charges                                                         
   LPAW   =        T    paw PP                                                                      
   EAUG   =  888.804                                                                                
   DEXC   =    0.000                                                                                
   RMAX   =    1.128    core radius for proj-oper                                                   
   RAUG   =    1.300    factor for augmentation sphere                                              
   RDEP   =    1.125    radius for radial grids                                                     
   RDEPT  =    1.088    core radius for aug-charge                                                  
                                                                                                    
   Atomic configuration                                                                             
    4 entries                                                                                       
     n  l   j            E        occ.                                                              
     1  0  0.50      -514.6923   2.0000                                                             
     2  0  0.50       -23.9615   2.0000                                                             
     2  1  0.50        -9.0305   4.0000                                                             
     3  2  1.50        -9.5241   0.0000                                                             
   Description                                                                                      
     l       E           TYP  RCUT    TYP  RCUT                                                     
     0    -23.9615319     23  1.100                                                                 
     0    -25.3221145     23  1.100                                                                 
     1     -9.0304911     23  1.100                                                                 
     1     -5.4802209     23  1.100                                                                 
     2     -9.5240782      7  1.100                                                                 
  local pseudopotential read in
  partial core-charges read in
  partial kinetic energy density read in
  atomic valenz-charges read in
  non local Contribution for L=           0  read in
    real space projection operators read in
  non local Contribution for L=           0  read in
    real space projection operators read in
  non local Contribution for L=           1  read in
    real space projection operators read in
  non local Contribution for L=           1  read in
    real space projection operators read in
    PAW grid and wavefunctions read in

   number of l-projection  operators is LMAX  =           4
   number of lm-projection operators is LMMAX =           8

  PAW_PBE C_h 06Feb2004                 :
 energy of atom  1       EATOM= -147.1560
 kinetic energy error for atom=    0.0031 (will be added to EATOM!!)
  PAW_PBE H_h 06Feb2004                 :
 energy of atom  2       EATOM=  -12.4884
 kinetic energy error for atom=    0.0006 (will be added to EATOM!!)
  PAW_PBE O_h 06Feb2004                 :
 energy of atom  3       EATOM= -432.3788
 kinetic energy error for atom=    0.0171 (will be added to EATOM!!)


 POSCAR:  C  H  O
  positions in cartesian coordinates
  No initial velocities read in

 METAGGA = RSCAN                                       LMAXTAU =  6    LMIXTAU =  F

 exchange correlation table for  LEXCH =        8
   RHO(1)=    0.500       N(1)  =     2000
   RHO(2)=  100.500       N(2)  =     4000

 VTST: version 4.1, (05/19/21)

 CHAIN: initializing optimizer
 
 OPT: Using VASP Dynamics algorithm
 CHAIN: Read ICHAIN            0

 POSCAR:  C  H  O
  positions in cartesian coordinates
  No initial velocities read in



--------------------------------------------------------------------------------------------------------


 ion  position               nearest neighbor table
   1  0.444  0.465  0.477-   6 1.09   5 1.11  10 1.42  12 1.42
   2  0.530  0.524  0.477-   4 1.09   9 1.11  10 1.42  11 1.42
   3  0.444  0.558  0.525-   7 1.09   8 1.11  12 1.42  11 1.42
   4  0.580  0.522  0.481-   2 1.09
   5  0.428  0.486  0.434-   1 1.11
   6  0.428  0.418  0.481-   1 1.09
   7  0.428  0.582  0.566-   3 1.09
   8  0.428  0.582  0.484-   3 1.11
   9  0.517  0.547  0.434-   2 1.11
  10  0.508  0.464  0.478-   1 1.42   2 1.42
  11  0.508  0.558  0.527-   3 1.42   2 1.42
  12  0.420  0.498  0.527-   3 1.42   1 1.42

  LATTYP: Found a simple cubic cell.
 ALAT       =    22.0000000000
  
  Lattice vectors:
  
 A1 = (  22.0000000000,   0.0000000000,   0.0000000000)
 A2 = (   0.0000000000,  22.0000000000,   0.0000000000)
 A3 = (   0.0000000000,   0.0000000000,  22.0000000000)


Analysis of symmetry for initial positions (statically):
=====================================================================
 Subroutine PRICEL returns:
 Original cell was already a primitive cell.
 

 Routine SETGRP: Setting up the symmetry group for a 
 simple cubic supercell.


 Subroutine GETGRP returns: Found  1 space group operations
 (whereof  1 operations were pure point group operations)
 out of a pool of 48 trial point group operations.


The static configuration has the point symmetry C_1 .


Analysis of symmetry for dynamics (positions and initial velocities):
=====================================================================
 Subroutine PRICEL returns:
 Original cell was already a primitive cell.
 

 Routine SETGRP: Setting up the symmetry group for a 
 simple cubic supercell.


 Subroutine GETGRP returns: Found  1 space group operations
 (whereof  1 operations were pure point group operations)
 out of a pool of 48 trial point group operations.


The dynamic configuration has the point symmetry C_1 .


 Subroutine INISYM returns: Found  1 space group operations
 (whereof  1 operations are pure point group operations),
 and found     1 'primitive' translations


----------------------------------------------------------------------------------------

                                     Primitive cell                                     

  volume of cell :   10648.0000

  direct lattice vectors                    reciprocal lattice vectors
    22.000000000  0.000000000  0.000000000     0.045454545  0.000000000  0.000000000
     0.000000000 22.000000000  0.000000000     0.000000000  0.045454545  0.000000000
     0.000000000  0.000000000 22.000000000     0.000000000  0.000000000  0.045454545

  length of vectors
    22.000000000 22.000000000 22.000000000     0.045454545  0.045454545  0.045454545

  position of ions in fractional coordinates (direct lattice)
     0.443610682  0.465137045  0.476809773
     0.530442500  0.524328409  0.476777045
     0.443687045  0.558299773  0.525434318
     0.579831136  0.522132045  0.480906591
     0.427778409  0.486202500  0.433834318
     0.427617045  0.418355682  0.480904773
     0.427776136  0.581644318  0.566210227
     0.427792955  0.581544773  0.483626136
     0.516631136  0.546735682  0.433789773
     0.508062500  0.463873864  0.477642500
     0.508148409  0.558316136  0.526835227
     0.420168864  0.498286591  0.526896591

  ion indices of the primitive-cell ions
   primitive index   ion index
                 1           1
                 2           2
                 3           3
                 4           4
                 5           5
                 6           6
                 7           7
                 8           8
                 9           9
                10          10
                11          11
                12          12

----------------------------------------------------------------------------------------



 KPOINTS: auto                                    

Automatic generation of k-mesh.
 Grid dimensions read from file:
 generate k-points for:    1    1    1

 Generating k-lattice:

  Cartesian coordinates                     Fractional coordinates (reciprocal lattice)
     0.045454545  0.000000000  0.000000000     1.000000000  0.000000000  0.000000000
     0.000000000  0.045454545  0.000000000     0.000000000  1.000000000  0.000000000
     0.000000000  0.000000000  0.045454545     0.000000000  0.000000000  1.000000000

  Length of vectors
     0.045454545  0.045454545  0.045454545

  Shift w.r.t. Gamma in fractional coordinates (k-lattice)
     0.000000000  0.000000000  0.000000000

 
 Subroutine IBZKPT returns following result:
 ===========================================
 
 Found      1 irreducible k-points:
 
 Following reciprocal coordinates:
            Coordinates               Weight
  0.000000  0.000000  0.000000      1.000000
 
 Following cartesian coordinates:
            Coordinates               Weight
  0.000000  0.000000  0.000000      1.000000
 


--------------------------------------------------------------------------------------------------------




 Dimension of arrays:
   k-points           NKPTS =      1   k-points in BZ     NKDIM =      1   number of bands    NBANDS=     32
   number of dos      NEDOS =    301   number of ions     NIONS =     12
   non local maximal  LDIM  =      4   non local SUM 2l+1 LMDIM =      8
   total plane-waves  NPLWV = ******
   max r-space proj   IRMAX =      1   max aug-charges    IRDMAX=   9667
   dimension x,y,z NGX =   240 NGY =  240 NGZ =  240
   dimension x,y,z NGXF=   480 NGYF=  480 NGZF=  480
   support grid    NGXF=   480 NGYF=  480 NGZF=  480
   ions per type =               3   6   3
   NGX,Y,Z   is equivalent  to a cutoff of  18.14, 18.14, 18.14 a.u.
   NGXF,Y,Z  is equivalent  to a cutoff of  36.27, 36.27, 36.27 a.u.

 SYSTEM =  unknown system                          
 POSCAR =   C  H  O                                

 Startparameter for this run:
   NWRITE =      2    write-flag & timer
   PREC   = accura    normal or accurate (medium, high low for compatibility)
   ISTART =      0    job   : 0-new  1-cont  2-samecut
   ICHARG =      2    charge: 1-file 2-atom 10-const
   ISPIN  =      1    spin polarized calculation?
   LNONCOLLINEAR =      F non collinear calculations
   LSORBIT =      F    spin-orbit coupling
   INIWAV =      1    electr: 0-lowe 1-rand  2-diag
   LASPH  =      T    aspherical Exc in radial PAW
 Electronic Relaxation 1
   ENCUT  = 1000.0 eV  73.50 Ry    8.57 a.u.  56.73 56.73 56.73*2*pi/ulx,y,z
   ENINI  = 1000.0     initial cutoff
   ENAUG  = 1000.0 eV  augmentation charge cutoff
   NELM   =     60;   NELMIN=  2; NELMDL= -5     # of ELM steps 
   EDIFF  = 0.1E-06   stopping-criterion for ELM
   LREAL  =      F    real-space projection
   NLSPLINE    = F    spline interpolate recip. space projectors
   LCOMPAT=      F    compatible to vasp.4.4
   GGA_COMPAT  = T    GGA compatible to vasp.4.4-vasp.4.6
   LMAXPAW     = -100 max onsite density
   LMAXMIX     =    2 max onsite mixed and CHGCAR
   VOSKOWN=      0    Vosko Wilk Nusair interpolation
   ROPT   =    0.00000   0.00000   0.00000
 Ionic relaxation
   EDIFFG = 0.1E-05   stopping-criterion for IOM
   NSW    =      0    number of steps for IOM
   NBLOCK =      1;   KBLOCK =      1    inner block; outer block 
   IBRION =     -1    ionic relax: 0-MD 1-quasi-New 2-CG
   NFREE  =      0    steps in history (QN), initial steepest desc. (CG)
   ISIF   =      0    stress and relaxation
   IWAVPR =     10    prediction:  0-non 1-charg 2-wave 3-comb
   ISYM   =      2    0-nonsym 1-usesym 2-fastsym
   LCORR  =      T    Harris-Foulkes like correction to forces

   POTIM  = 0.5000    time-step for ionic-motion
   TEIN   =    0.0    initial temperature
   TEBEG  =    0.0;   TEEND  =   0.0 temperature during run
   SMASS  =  -3.00    Nose mass-parameter (am)
   estimated Nose-frequenzy (Omega)   =  0.10E-29 period in steps = 0.13E+47 mass=  -0.111E-25a.u.
   SCALEE = 1.0000    scale energy and forces
   NPACO  =    256;   APACO  = 10.0  distance and # of slots for P.C.
   PSTRESS=    0.0 pullay stress

  Mass of Ions in am
   POMASS =  12.01  1.00 16.00
  Ionic Valenz
   ZVAL   =   4.00  1.00  6.00
  Atomic Wigner-Seitz radii
   RWIGS  =  -1.00 -1.00 -1.00
  virtual crystal weights 
   VCA    =   1.00  1.00  1.00
   NELECT =      36.0000    total number of electrons
   NUPDOWN=      -1.0000    fix difference up-down

 DOS related values:
   EMIN   =  10.00;   EMAX   =-10.00  energy-range for DOS
   EFERMI =   0.00;   METHOD = LEGACY      
   ISMEAR =     0;   SIGMA  =   0.01  broadening in eV -4-tet -1-fermi 0-gaus

 Electronic relaxation 2 (details)
   IALGO  =     58    algorithm
   LDIAG  =      T    sub-space diagonalisation (order eigenvalues)
   LSUBROT=      F    optimize rotation matrix (better conditioning)
   TURBO    =      0    0=normal 1=particle mesh
   IRESTART =      0    0=no restart 2=restart with 2 vectors
   NREBOOT  =      0    no. of reboots
   NMIN     =      0    reboot dimension
   EREF     =   0.00    reference energy to select bands
   IMIX   =      4    mixing-type and parameters
     AMIX     =   0.40;   BMIX     =  1.00
     AMIX_MAG =   1.60;   BMIX_MAG =  1.00
     AMIN     =   0.10
     WC   =   100.;   INIMIX=   1;  MIXPRE=   1;  MAXMIX= -45

 Intra band minimization:
   WEIMIN = 0.0000     energy-eigenvalue tresh-hold
   EBREAK =  0.78E-09  absolut break condition
   DEPER  =   0.30     relativ break condition  

   TIME   =   0.40     timestep for ELM

  volume/ion in A,a.u.               =     887.33      5988.02
  Fermi-wavevector in a.u.,A,eV,Ry     =   0.245708  0.464321  0.821418  0.060373
  Thomas-Fermi vector in A             =   1.056973

 Write flags
   LWAVE        =      F    write WAVECAR
   LDOWNSAMPLE  =      F    k-point downsampling of WAVECAR
   LCHARG       =      F    write CHGCAR
   LVTOT        =      F    write LOCPOT, total local potential
   LVHAR        =      F    write LOCPOT, Hartree potential only
   LELF         =      F    write electronic localiz. function (ELF)
   LORBIT       =      0    0 simple, 1 ext, 2 COOP (PROOUT), +10 PAW based schemes


 Dipole corrections
   LMONO  =      F    monopole corrections only (constant potential shift)
   LDIPOL =      F    correct potential (dipole corrections)
   IDIPOL =      0    1-x, 2-y, 3-z, 4-all directions 
   EPSILON=  1.0000000 bulk dielectric constant

 Exchange correlation treatment:
   GGA     =    --    GGA type
   LEXCH   =     8    internal setting for exchange type
   LIBXC   =     F    Libxc                    
   VOSKOWN =     0    Vosko Wilk Nusair interpolation
   LHFCALC =     F    Hartree Fock is set to
   LHFONE  =     F    Hartree Fock one center treatment
   AEXX    =    0.0000 exact exchange contribution

 Linear response parameters
   LEPSILON=     F    determine dielectric tensor
   LRPA    =     F    only Hartree local field effects (RPA)
   LNABLA  =     F    use nabla operator in PAW spheres
   LVEL    =     F    velocity operator in full k-point grid
   CSHIFT  =0.1000    complex shift for real part using Kramers Kronig
   OMEGAMAX=  -1.0    maximum frequency
   DEG_THRESHOLD= 0.2000000E-02 threshold for treating states as degnerate
   RTIME   =   -0.100 relaxation time in fs
  (WPLASMAI=    0.000 imaginary part of plasma frequency in eV, 0.658/RTIME)
   DFIELD  = 0.0000000 0.0000000 0.0000000 field for delta impulse in time

  Optional k-point grid parameters
   LKPOINTS_OPT  =     F    use optional k-point grid
   KPOINTS_OPT_MODE=     1    mode for optional k-point grid

 Orbital magnetization related:
   ORBITALMAG=     F  switch on orbital magnetization
   LCHIMAG   =     F  perturbation theory with respect to B field
   DQ        =  0.001000  dq finite difference perturbation B field
   LLRAUG    =     F  two centre corrections for induced B field
   LBONE     =     F  B-component reconstruction in AE one-centre
   LVGVCALC  =     T  calculate vGv susceptibility
   LVGVAPPL  =     F  apply vGv susceptibility instead of pGv for G=0

 Random number generation:
   RANDOM_GENERATOR = DEFAULT
   PCG_SEED         = not used


--------------------------------------------------------------------------------------------------------


 Static calculation
 charge density and potential will be updated during run
 non-spin polarized calculation
 Conjugate gradient for all bands (Freysoldt, et al. PRB 79, 241103 (2009))
 preconditioned conjugated gradient                                        
 perform sub-space diagonalisation
    before iterative eigenvector-optimisation
 modified Broyden-mixing scheme, WC =      100.0
 initial mixing is a Kerker type mixing with AMIX =  0.4000 and BMIX =      1.0000
 Hartree-type preconditioning will be used
 using additional bands           14
 reciprocal scheme for non local part
 use partial core corrections
 no Harris-corrections to forces 
 use gradient corrections 
 use of overlap-Matrix (Vanderbilt PP)
 Gauss-broadening in eV      SIGMA  =   0.01


--------------------------------------------------------------------------------------------------------


  energy-cutoff  :     1000.00
  volume of cell :    10648.00
      direct lattice vectors                 reciprocal lattice vectors
    22.000000000  0.000000000  0.000000000     0.045454545  0.000000000  0.000000000
     0.000000000 22.000000000  0.000000000     0.000000000  0.045454545  0.000000000
     0.000000000  0.000000000 22.000000000     0.000000000  0.000000000  0.045454545

  length of vectors
    22.000000000 22.000000000 22.000000000     0.045454545  0.045454545  0.045454545



 k-points in units of 2pi/SCALE and weight: auto                                    
   0.00000000  0.00000000  0.00000000       1.000

 k-points in reciprocal lattice and weights: auto                                    
   0.00000000  0.00000000  0.00000000       1.000

 position of ions in fractional coordinates (direct lattice) 
   0.44361068  0.46513705  0.47680977
   0.53044250  0.52432841  0.47677705
   0.44368705  0.55829977  0.52543432
   0.57983114  0.52213205  0.48090659
   0.42777841  0.48620250  0.43383432
   0.42761705  0.41835568  0.48090477
   0.42777614  0.58164432  0.56621023
   0.42779295  0.58154477  0.48362614
   0.51663114  0.54673568  0.43378977
   0.50806250  0.46387386  0.47764250
   0.50814841  0.55831614  0.52683523
   0.42016886  0.49828659  0.52689659

 position of ions in cartesian coordinates  (Angst):
   9.75943500 10.23301500 10.48981500
  11.66973500 11.53522500 10.48909500
   9.76111500 12.28259500 11.55955500
  12.75628500 11.48690500 10.57994500
   9.41112500 10.69645500  9.54435500
   9.40757500  9.20382500 10.57990500
   9.41107500 12.79617500 12.45662500
   9.41144500 12.79398500 10.63977500
  11.36588500 12.02818500  9.54337500
  11.17737500 10.20522500 10.50813500
  11.17926500 12.28295500 11.59037500
   9.24371500 10.96230500 11.59172500



--------------------------------------------------------------------------------------------------------


 use parallel FFT for orbitals z direction half grid
 k-point   1 :   0.0000 0.0000 0.0000  plane waves:  381993

 maximum and minimum number of plane-waves per node :     11948    11928

 maximum number of plane-waves:    381993
 maximum index in each direction: 
   IXMAX=   56   IYMAX=   56   IZMAX=   56
   IXMIN=  -56   IYMIN=  -56   IZMIN=    0


 parallel 3D FFT for wavefunctions:
    minimum data exchange during FFTs selected (reduces bandwidth)
 parallel 3D FFT for charge:
    minimum data exchange during FFTs selected (reduces bandwidth)


 total amount of memory used by VASP MPI-rank0   128249. kBytes
=======================================================================

   base      :      30000. kBytes
   nonl-proj :       4583. kBytes
   fftplans  :      24880. kBytes
   grid      :      66493. kBytes
   one-center:          1. kBytes
   wavefun   :       2292. kBytes

     INWAV:  cpu time      0.0001: real time      0.0004
 Broyden mixing: mesh for mixing (old mesh)
   NGX =113   NGY =113   NGZ =113
  (NGX  =480   NGY  =480   NGZ  =480)
  gives a total of ****** points

 initial charge density was supplied:
 charge density of overlapping atoms calculated
 number of electron      36.0000000 magnetization 
 keeping initial charge density in first step


--------------------------------------------------------------------------------------------------------


 Maximum index for augmentation-charges          494 (set IRDMAX)


--------------------------------------------------------------------------------------------------------


 First call to EWALD:  gamma=   0.081
 Maximum number of real-space cells 3x 3x 3
 Maximum number of reciprocal cells 3x 3x 3

    FEWALD:  cpu time      0.0068: real time      0.0068


--------------------------------------- Ionic step        1  -------------------------------------------




--------------------------------------- Iteration      1(   1)  ---------------------------------------


    POTLOK:  cpu time      1.6339: real time      1.6365
    SETDIJ:  cpu time      0.3051: real time      0.3057
    TRIAL :  cpu time      3.9684: real time      3.9719
    CORREC:  cpu time      0.0011: real time      0.0011
    --------------------------------------------
      LOOP:  cpu time      5.9191: real time      5.9262

 eigenvalue-minimisations  :    80
 total energy-change (2. order) : 0.3718282E+03  (-0.9274690E+03)
 number of electron      36.0000000 magnetization 
 augmentation part       36.0000000 magnetization 

 Free energy of the ion-electron system (eV)
  ---------------------------------------------------
  alpha Z        PSCENC =         0.34590649
  Ewald energy   TEWEN  =      2898.72375109
  -Hartree energ DENC   =     -4279.26319512
  -exchange      EXHF   =         0.00000000
  -V(xc)+E(xc)   XCENC  =       144.55280310
  PAW double counting   =      1358.62752598    -1361.53876545
  entropy T*S    EENTRO =        -0.00000000
  eigenvalues    EBANDS =      -203.09048120
  atomic energy  EATOM  =      1813.47061108
  ---------------------------------------------------
  free energy    TOTEN  =       371.82815598 eV

  energy without entropy =      371.82815598  energy(sigma->0) =      371.82815598


--------------------------------------------------------------------------------------------------------




--------------------------------------- Iteration      1(   2)  ---------------------------------------


    TRIAL :  cpu time      4.4024: real time      4.4042
    CORREC:  cpu time      0.0004: real time      0.0004
    --------------------------------------------
      LOOP:  cpu time      4.4308: real time      4.4327

 eigenvalue-minimisations  :    96
 total energy-change (2. order) :-0.1933012E+03  (-0.1888029E+03)
 number of electron      36.0000000 magnetization 
 augmentation part       36.0000000 magnetization 

 Free energy of the ion-electron system (eV)
  ---------------------------------------------------
  alpha Z        PSCENC =         0.34590649
  Ewald energy   TEWEN  =      2898.72375109
  -Hartree energ DENC   =     -4279.26319512
  -exchange      EXHF   =         0.00000000
  -V(xc)+E(xc)   XCENC  =       144.55280310
  PAW double counting   =      1358.62752598    -1361.53876545
  entropy T*S    EENTRO =        -0.00000021
  eigenvalues    EBANDS =      -396.39169544
  atomic energy  EATOM  =      1813.47061108
  ---------------------------------------------------
  free energy    TOTEN  =       178.52694152 eV

  energy without entropy =      178.52694173  energy(sigma->0) =      178.52694162


--------------------------------------------------------------------------------------------------------




--------------------------------------- Iteration      1(   3)  ---------------------------------------


    TRIAL :  cpu time      4.8638: real time      4.8656
    CORREC:  cpu time      0.0001: real time      0.0001
    --------------------------------------------
      LOOP:  cpu time      4.8772: real time      4.8971

 eigenvalue-minimisations  :   112
 total energy-change (2. order) :-0.1837304E+03  (-0.1689505E+03)
 number of electron      36.0000000 magnetization 
 augmentation part       36.0000000 magnetization 

 Free energy of the ion-electron system (eV)
  ---------------------------------------------------
  alpha Z        PSCENC =         0.34590649
  Ewald energy   TEWEN  =      2898.72375109
  -Hartree energ DENC   =     -4279.26319512
  -exchange      EXHF   =         0.00000000
  -V(xc)+E(xc)   XCENC  =       144.55280310
  PAW double counting   =      1358.62752598    -1361.53876545
  entropy T*S    EENTRO =        -0.00000000
  eigenvalues    EBANDS =      -580.12213783
  atomic energy  EATOM  =      1813.47061108
  ---------------------------------------------------
  free energy    TOTEN  =        -5.20350065 eV

  energy without entropy =       -5.20350065  energy(sigma->0) =       -5.20350065


--------------------------------------------------------------------------------------------------------




--------------------------------------- Iteration      1(   4)  ---------------------------------------


    TRIAL :  cpu time      3.9531: real time      3.9550
    CORREC:  cpu time      0.0001: real time      0.0001
    --------------------------------------------
      LOOP:  cpu time      3.9722: real time      3.9852

 eigenvalue-minimisations  :    80
 total energy-change (2. order) :-0.7819768E+02  (-0.7784501E+02)
 number of electron      36.0000000 magnetization 
 augmentation part       36.0000000 magnetization 

 Free energy of the ion-electron system (eV)
  ---------------------------------------------------
  alpha Z        PSCENC =         0.34590649
  Ewald energy   TEWEN  =      2898.72375109
  -Hartree energ DENC   =     -4279.26319512
  -exchange      EXHF   =         0.00000000
  -V(xc)+E(xc)   XCENC  =       144.55280310
  PAW double counting   =      1358.62752598    -1361.53876545
  entropy T*S    EENTRO =        -0.00000000
  eigenvalues    EBANDS =      -658.31982245
  atomic energy  EATOM  =      1813.47061108
  ---------------------------------------------------
  free energy    TOTEN  =       -83.40118527 eV

  energy without entropy =      -83.40118527  energy(sigma->0) =      -83.40118527


--------------------------------------------------------------------------------------------------------




--------------------------------------- Iteration      1(   5)  ---------------------------------------


    TRIAL :  cpu time      3.9560: real time      3.9579
    CORREC:  cpu time      0.0001: real time      0.0001
    CHARGE:  cpu time      0.7033: real time      0.7059
    --------------------------------------------
      LOOP:  cpu time      4.6756: real time      4.6945

 eigenvalue-minimisations  :    80
 total energy-change (2. order) :-0.8851227E+01  (-0.8833922E+01)
 number of electron      36.0000000 magnetization 
 augmentation part        0.1482496 magnetization 

 Free energy of the ion-electron system (eV)
  ---------------------------------------------------
  alpha Z        PSCENC =         0.34590649
  Ewald energy   TEWEN  =      2898.72375109
  -Hartree energ DENC   =     -4279.26319512
  -exchange      EXHF   =         0.00000000
  -V(xc)+E(xc)   XCENC  =       144.55280310
  PAW double counting   =      1358.62752598    -1361.53876545
  entropy T*S    EENTRO =        -0.00000000
  eigenvalues    EBANDS =      -667.17104993
  atomic energy  EATOM  =      1813.47061108
  ---------------------------------------------------
  free energy    TOTEN  =       -92.25241276 eV

  energy without entropy =      -92.25241276  energy(sigma->0) =      -92.25241276


--------------------------------------------------------------------------------------------------------




--------------------------------------- Iteration      1(   6)  ---------------------------------------


    POTLOK:  cpu time      1.5989: real time      1.5993
    SETDIJ:  cpu time      0.2980: real time      0.2982
    TRIAL :  cpu time      3.3978: real time      3.4000
    CORREC:  cpu time      3.4325: real time      3.4339
    CHARGE:  cpu time      0.6662: real time      0.6665
    --------------------------------------------
      LOOP:  cpu time      9.4059: real time      9.4276

 eigenvalue-minimisations  :     0
 total energy-change (2. order) : 0.1788347E+02  (-0.2174558E+01)
 number of electron      36.0000000 magnetization 
 augmentation part        0.1275984 magnetization 

 Free energy of the ion-electron system (eV)
  ---------------------------------------------------
  alpha Z        PSCENC =         0.34590649
  Ewald energy   TEWEN  =      2898.72375109
  -Hartree energ DENC   =     -4519.01417479
  -exchange      EXHF   =         0.00000000
  -V(xc)+E(xc)   XCENC  =       160.77901634
  PAW double counting   =     19848.86948745   -19853.15327397
  entropy T*S    EENTRO =        -0.00000000
  eigenvalues    EBANDS =      -424.39026267
  atomic energy  EATOM  =      1813.47061108
  ---------------------------------------------------
  free energy    TOTEN  =       -74.36893898 eV

  energy without entropy =      -74.36893898  energy(sigma->0) =      -74.36893898


--------------------------------------------------------------------------------------------------------




--------------------------------------- Iteration      1(   7)  ---------------------------------------


    POTLOK:  cpu time      1.5818: real time      1.5827
    SETDIJ:  cpu time      0.3017: real time      0.3017
    TRIAL :  cpu time      3.3896: real time      3.3909
    CORREC:  cpu time      3.4625: real time      3.4643
    CHARGE:  cpu time      0.6690: real time      0.6696
    --------------------------------------------
      LOOP:  cpu time      9.4355: real time      9.4405

 eigenvalue-minimisations  :     0
 total energy-change (2. order) :-0.2187711E+01  (-0.4115834E+00)
 number of electron      36.0000000 magnetization 
 augmentation part        0.1157259 magnetization 

 Free energy of the ion-electron system (eV)
  ---------------------------------------------------
  alpha Z        PSCENC =         0.34590649
  Ewald energy   TEWEN  =      2898.72375109
  -Hartree energ DENC   =     -4427.40462602
  -exchange      EXHF   =         0.00000000
  -V(xc)+E(xc)   XCENC  =       156.24132008
  PAW double counting   =     20111.26624740   -20114.81018458
  entropy T*S    EENTRO =        -0.00000000
  eigenvalues    EBANDS =      -514.38967600
  atomic energy  EATOM  =      1813.47061108
  ---------------------------------------------------
  free energy    TOTEN  =       -76.55665047 eV

  energy without entropy =      -76.55665047  energy(sigma->0) =      -76.55665047


--------------------------------------------------------------------------------------------------------




--------------------------------------- Iteration      1(   8)  ---------------------------------------


    POTLOK:  cpu time      1.5806: real time      1.5811
    SETDIJ:  cpu time      0.3357: real time      0.3357
    TRIAL :  cpu time      3.3828: real time      3.3848
    CORREC:  cpu time      3.4352: real time      3.4366
    CHARGE:  cpu time      0.6678: real time      0.6683
    --------------------------------------------
      LOOP:  cpu time      9.4147: real time      9.4367

 eigenvalue-minimisations  :     0
 total energy-change (2. order) :-0.4135249E+00  (-0.1770445E+00)
 number of electron      36.0000000 magnetization 
 augmentation part        0.1245769 magnetization 

 Free energy of the ion-electron system (eV)
  ---------------------------------------------------
  alpha Z        PSCENC =         0.34590649
  Ewald energy   TEWEN  =      2898.72375109
  -Hartree energ DENC   =     -4426.11753864
  -exchange      EXHF   =         0.00000000
  -V(xc)+E(xc)   XCENC  =       156.03931691
  PAW double counting   =     20461.07419525   -20464.51995033
  entropy T*S    EENTRO =        -0.00000000
  eigenvalues    EBANDS =      -515.98646724
  atomic energy  EATOM  =      1813.47061108
  ---------------------------------------------------
  free energy    TOTEN  =       -76.97017539 eV

  energy without entropy =      -76.97017539  energy(sigma->0) =      -76.97017539


--------------------------------------------------------------------------------------------------------




--------------------------------------- Iteration      1(   9)  ---------------------------------------


    POTLOK:  cpu time      1.6211: real time      1.6218
    SETDIJ:  cpu time      0.2703: real time      0.2703
    TRIAL :  cpu time      3.3826: real time      3.3842
    CORREC:  cpu time      3.4486: real time      3.4503
    CHARGE:  cpu time      0.6657: real time      0.6658
    --------------------------------------------
      LOOP:  cpu time      9.4012: real time      9.4230

 eigenvalue-minimisations  :     0
 total energy-change (2. order) :-0.1772258E+00  (-0.8743536E-01)
 number of electron      36.0000000 magnetization 
 augmentation part        0.1299527 magnetization 

 Free energy of the ion-electron system (eV)
  ---------------------------------------------------
  alpha Z        PSCENC =         0.34590649
  Ewald energy   TEWEN  =      2898.72375109
  -Hartree energ DENC   =     -4427.69578040
  -exchange      EXHF   =         0.00000000
  -V(xc)+E(xc)   XCENC  =       156.01360659
  PAW double counting   =     21271.66714491   -21275.11602258
  entropy T*S    EENTRO =        -0.00000000
  eigenvalues    EBANDS =      -514.55661835
  atomic energy  EATOM  =      1813.47061108
  ---------------------------------------------------
  free energy    TOTEN  =       -77.14740119 eV

  energy without entropy =      -77.14740119  energy(sigma->0) =      -77.14740119


--------------------------------------------------------------------------------------------------------




--------------------------------------- Iteration      1(  10)  ---------------------------------------


    POTLOK:  cpu time      1.6002: real time      1.6009
    SETDIJ:  cpu time      0.3030: real time      0.3030
    TRIAL :  cpu time      3.3826: real time      3.3842
    CORREC:  cpu time      3.4481: real time      3.4496
    CHARGE:  cpu time      0.6676: real time      0.6681
    --------------------------------------------
      LOOP:  cpu time      9.4149: real time      9.4363

 eigenvalue-minimisations  :     0
 total energy-change (2. order) :-0.8706942E-01  (-0.3426891E-01)
 number of electron      36.0000000 magnetization 
 augmentation part        0.1308608 magnetization 

 Free energy of the ion-electron system (eV)
  ---------------------------------------------------
  alpha Z        PSCENC =         0.34590649
  Ewald energy   TEWEN  =      2898.72375109
  -Hartree energ DENC   =     -4422.69843524
  -exchange      EXHF   =         0.00000000
  -V(xc)+E(xc)   XCENC  =       155.86244387
  PAW double counting   =     21501.45265574   -21504.90976078
  entropy T*S    EENTRO =        -0.00000000
  eigenvalues    EBANDS =      -519.48164286
  atomic energy  EATOM  =      1813.47061108
  ---------------------------------------------------
  free energy    TOTEN  =       -77.23447061 eV

  energy without entropy =      -77.23447061  energy(sigma->0) =      -77.23447061


--------------------------------------------------------------------------------------------------------




--------------------------------------- Iteration      1(  11)  ---------------------------------------


    POTLOK:  cpu time      1.6314: real time      1.6321
    SETDIJ:  cpu time      0.3076: real time      0.3076
    TRIAL :  cpu time      3.3829: real time      3.3842
    CORREC:  cpu time      3.4557: real time      3.4573
    CHARGE:  cpu time      0.6684: real time      0.6689
    --------------------------------------------
      LOOP:  cpu time      9.4609: real time      9.4812

 eigenvalue-minimisations  :     0
 total energy-change (2. order) :-0.3411023E-01  (-0.1234610E-01)
 number of electron      36.0000000 magnetization 
 augmentation part        0.1310536 magnetization 

 Free energy of the ion-electron system (eV)
  ---------------------------------------------------
  alpha Z        PSCENC =         0.34590649
  Ewald energy   TEWEN  =      2898.72375109
  -Hartree energ DENC   =     -4420.69912733
  -exchange      EXHF   =         0.00000000
  -V(xc)+E(xc)   XCENC  =       155.83571112
  PAW double counting   =     21257.39586197   -21260.87262184
  entropy T*S    EENTRO =        -0.00000000
  eigenvalues    EBANDS =      -521.46867341
  atomic energy  EATOM  =      1813.47061108
  ---------------------------------------------------
  free energy    TOTEN  =       -77.26858084 eV

  energy without entropy =      -77.26858084  energy(sigma->0) =      -77.26858084


--------------------------------------------------------------------------------------------------------




--------------------------------------- Iteration      1(  12)  ---------------------------------------


    POTLOK:  cpu time      1.6373: real time      1.6383
    SETDIJ:  cpu time      0.2771: real time      0.2772
    TRIAL :  cpu time      3.3808: real time      3.3823
    CORREC:  cpu time      3.4542: real time      3.4555
    CHARGE:  cpu time      0.6654: real time      0.6659
    --------------------------------------------
      LOOP:  cpu time      9.4315: real time      9.4504

 eigenvalue-minimisations  :     0
 total energy-change (2. order) :-0.1231970E-01  (-0.4592861E-02)
 number of electron      36.0000000 magnetization 
 augmentation part        0.1305027 magnetization 

 Free energy of the ion-electron system (eV)
  ---------------------------------------------------
  alpha Z        PSCENC =         0.34590649
  Ewald energy   TEWEN  =      2898.72375109
  -Hartree energ DENC   =     -4420.65697445
  -exchange      EXHF   =         0.00000000
  -V(xc)+E(xc)   XCENC  =       155.83218721
  PAW double counting   =     21133.91685894   -21137.40256604
  entropy T*S    EENTRO =        -0.00000000
  eigenvalues    EBANDS =      -521.51067486
  atomic energy  EATOM  =      1813.47061108
  ---------------------------------------------------
  free energy    TOTEN  =       -77.28090054 eV

  energy without entropy =      -77.28090054  energy(sigma->0) =      -77.28090054


--------------------------------------------------------------------------------------------------------




--------------------------------------- Iteration      1(  13)  ---------------------------------------


    POTLOK:  cpu time      1.6066: real time      1.6071
    SETDIJ:  cpu time      0.2943: real time      0.2945
    TRIAL :  cpu time      3.3813: real time      3.3825
    CORREC:  cpu time      3.4498: real time      3.4515
    CHARGE:  cpu time      0.6702: real time      0.6703
    --------------------------------------------
      LOOP:  cpu time      9.4158: real time      9.4353

 eigenvalue-minimisations  :     0
 total energy-change (2. order) :-0.4587437E-02  (-0.1887465E-02)
 number of electron      36.0000000 magnetization 
 augmentation part        0.1301161 magnetization 

 Free energy of the ion-electron system (eV)
  ---------------------------------------------------
  alpha Z        PSCENC =         0.34590649
  Ewald energy   TEWEN  =      2898.72375109
  -Hartree energ DENC   =     -4420.26550162
  -exchange      EXHF   =         0.00000000
  -V(xc)+E(xc)   XCENC  =       155.80427978
  PAW double counting   =     21086.11001203   -21089.59242926
  entropy T*S    EENTRO =        -0.00000000
  eigenvalues    EBANDS =      -521.88211756
  atomic energy  EATOM  =      1813.47061108
  ---------------------------------------------------
  free energy    TOTEN  =       -77.28548798 eV

  energy without entropy =      -77.28548798  energy(sigma->0) =      -77.28548798


--------------------------------------------------------------------------------------------------------




--------------------------------------- Iteration      1(  14)  ---------------------------------------


    POTLOK:  cpu time      1.6045: real time      1.6053
    SETDIJ:  cpu time      0.3001: real time      0.3001
    TRIAL :  cpu time      3.3822: real time      3.3840
    CORREC:  cpu time      3.4532: real time      3.4544
    CHARGE:  cpu time      0.6676: real time      0.6682
    --------------------------------------------
      LOOP:  cpu time      9.4207: real time      9.4430

 eigenvalue-minimisations  :     0
 total energy-change (2. order) :-0.1884459E-02  (-0.9021045E-03)
 number of electron      36.0000000 magnetization 
 augmentation part        0.1300351 magnetization 

 Free energy of the ion-electron system (eV)
  ---------------------------------------------------
  alpha Z        PSCENC =         0.34590649
  Ewald energy   TEWEN  =      2898.72375109
  -Hartree energ DENC   =     -4420.44259785
  -exchange      EXHF   =         0.00000000
  -V(xc)+E(xc)   XCENC  =       155.81057081
  PAW double counting   =     21020.97026531   -21024.45298647
  entropy T*S    EENTRO =        -0.00000000
  eigenvalues    EBANDS =      -521.71289289
  atomic energy  EATOM  =      1813.47061108
  ---------------------------------------------------
  free energy    TOTEN  =       -77.28737244 eV

  energy without entropy =      -77.28737244  energy(sigma->0) =      -77.28737244


--------------------------------------------------------------------------------------------------------




--------------------------------------- Iteration      1(  15)  ---------------------------------------


    POTLOK:  cpu time      1.6042: real time      1.6046
    SETDIJ:  cpu time      0.3059: real time      0.3061
    TRIAL :  cpu time      3.3863: real time      3.3878
    CORREC:  cpu time      3.4559: real time      3.4571
    CHARGE:  cpu time      0.6676: real time      0.6681
    --------------------------------------------
      LOOP:  cpu time      9.4511: real time      9.4555

 eigenvalue-minimisations  :     0
 total energy-change (2. order) :-0.9037740E-03  (-0.4182565E-03)
 number of electron      36.0000000 magnetization 
 augmentation part        0.1300226 magnetization 

 Free energy of the ion-electron system (eV)
  ---------------------------------------------------
  alpha Z        PSCENC =         0.34590649
  Ewald energy   TEWEN  =      2898.72375109
  -Hartree energ DENC   =     -4420.71496062
  -exchange      EXHF   =         0.00000000
  -V(xc)+E(xc)   XCENC  =       155.82119189
  PAW double counting   =     20959.10830447   -20962.59193917
  entropy T*S    EENTRO =        -0.00000000
  eigenvalues    EBANDS =      -521.45114143
  atomic energy  EATOM  =      1813.47061108
  ---------------------------------------------------
  free energy    TOTEN  =       -77.28827621 eV

  energy without entropy =      -77.28827621  energy(sigma->0) =      -77.28827621


--------------------------------------------------------------------------------------------------------




--------------------------------------- Iteration      1(  16)  ---------------------------------------


    POTLOK:  cpu time      1.6055: real time      1.6063
    SETDIJ:  cpu time      0.3328: real time      0.3328
    TRIAL :  cpu time      3.3868: real time      3.3882
    CORREC:  cpu time      3.4558: real time      3.4578
    CHARGE:  cpu time      0.6657: real time      0.6662
    --------------------------------------------
      LOOP:  cpu time      9.4615: real time      9.4821

 eigenvalue-minimisations  :     0
 total energy-change (2. order) :-0.4205149E-03  (-0.1608252E-03)
 number of electron      36.0000000 magnetization 
 augmentation part        0.1300828 magnetization 

 Free energy of the ion-electron system (eV)
  ---------------------------------------------------
  alpha Z        PSCENC =         0.34590649
  Ewald energy   TEWEN  =      2898.72375109
  -Hartree energ DENC   =     -4420.72523171
  -exchange      EXHF   =         0.00000000
  -V(xc)+E(xc)   XCENC  =       155.81910662
  PAW double counting   =     20924.27931459   -20927.76172580
  entropy T*S    EENTRO =        -0.00000000
  eigenvalues    EBANDS =      -521.44042909
  atomic energy  EATOM  =      1813.47061108
  ---------------------------------------------------
  free energy    TOTEN  =       -77.28869672 eV

  energy without entropy =      -77.28869672  energy(sigma->0) =      -77.28869672


--------------------------------------------------------------------------------------------------------




--------------------------------------- Iteration      1(  17)  ---------------------------------------


    POTLOK:  cpu time      1.6047: real time      1.6050
    SETDIJ:  cpu time      0.3047: real time      0.3050
    TRIAL :  cpu time      3.3884: real time      3.3899
    CORREC:  cpu time      3.4594: real time      3.4607
    CHARGE:  cpu time      0.6667: real time      0.6670
    --------------------------------------------
      LOOP:  cpu time      9.4402: real time      9.4585

 eigenvalue-minimisations  :     0
 total energy-change (2. order) :-0.1619230E-03  (-0.4969596E-04)
 number of electron      36.0000000 magnetization 
 augmentation part        0.1300874 magnetization 

 Free energy of the ion-electron system (eV)
  ---------------------------------------------------
  alpha Z        PSCENC =         0.34590649
  Ewald energy   TEWEN  =      2898.72375109
  -Hartree energ DENC   =     -4420.88147809
  -exchange      EXHF   =         0.00000000
  -V(xc)+E(xc)   XCENC  =       155.82551855
  PAW double counting   =     20915.86509016   -20919.34764393
  entropy T*S    EENTRO =        -0.00000000
  eigenvalues    EBANDS =      -521.29061400
  atomic energy  EATOM  =      1813.47061108
  ---------------------------------------------------
  free energy    TOTEN  =       -77.28885865 eV

  energy without entropy =      -77.28885865  energy(sigma->0) =      -77.28885865


--------------------------------------------------------------------------------------------------------




--------------------------------------- Iteration      1(  18)  ---------------------------------------


    POTLOK:  cpu time      1.6059: real time      1.6067
    SETDIJ:  cpu time      0.3019: real time      0.3019
    TRIAL :  cpu time      3.3950: real time      3.3963
    CORREC:  cpu time      3.4497: real time      3.4514
    CHARGE:  cpu time      0.6662: real time      0.6663
    --------------------------------------------
      LOOP:  cpu time      9.4520: real time      9.4564

 eigenvalue-minimisations  :     0
 total energy-change (2. order) :-0.5020401E-04  (-0.1480037E-04)
 number of electron      36.0000000 magnetization 
 augmentation part        0.1301100 magnetization 

 Free energy of the ion-electron system (eV)
  ---------------------------------------------------
  alpha Z        PSCENC =         0.34590649
  Ewald energy   TEWEN  =      2898.72375109
  -Hartree energ DENC   =     -4420.86968863
  -exchange      EXHF   =         0.00000000
  -V(xc)+E(xc)   XCENC  =       155.82541747
  PAW double counting   =     20926.42107317   -20929.90312574
  entropy T*S    EENTRO =        -0.00000000
  eigenvalues    EBANDS =      -521.30285378
  atomic energy  EATOM  =      1813.47061108
  ---------------------------------------------------
  free energy    TOTEN  =       -77.28890885 eV

  energy without entropy =      -77.28890885  energy(sigma->0) =      -77.28890885


--------------------------------------------------------------------------------------------------------




--------------------------------------- Iteration      1(  19)  ---------------------------------------


    POTLOK:  cpu time      1.6041: real time      1.6045
    SETDIJ:  cpu time      0.3022: real time      0.3022
    TRIAL :  cpu time      3.3831: real time      3.3849
    CORREC:  cpu time      3.5033: real time      3.5049
    CHARGE:  cpu time      0.6656: real time      0.6661
    --------------------------------------------
      LOOP:  cpu time      9.4771: real time      9.4947

 eigenvalue-minimisations  :     0
 total energy-change (2. order) :-0.1496733E-04  (-0.5106618E-05)
 number of electron      36.0000000 magnetization 
 augmentation part        0.1301375 magnetization 

 Free energy of the ion-electron system (eV)
  ---------------------------------------------------
  alpha Z        PSCENC =         0.34590649
  Ewald energy   TEWEN  =      2898.72375109
  -Hartree energ DENC   =     -4420.86195047
  -exchange      EXHF   =         0.00000000
  -V(xc)+E(xc)   XCENC  =       155.82555419
  PAW double counting   =     20940.35281459   -20943.83476682
  entropy T*S    EENTRO =        -0.00000000
  eigenvalues    EBANDS =      -521.31084397
  atomic energy  EATOM  =      1813.47061108
  ---------------------------------------------------
  free energy    TOTEN  =       -77.28892382 eV

  energy without entropy =      -77.28892382  energy(sigma->0) =      -77.28892382


--------------------------------------------------------------------------------------------------------




--------------------------------------- Iteration      1(  20)  ---------------------------------------


    POTLOK:  cpu time      1.6079: real time      1.6086
    SETDIJ:  cpu time      0.2993: real time      0.2993
    TRIAL :  cpu time      3.3904: real time      3.3919
    CORREC:  cpu time      3.5417: real time      3.5434
    CHARGE:  cpu time      0.6680: real time      0.6684
    --------------------------------------------
      LOOP:  cpu time      9.5204: real time      9.5420

 eigenvalue-minimisations  :     0
 total energy-change (2. order) :-0.5095699E-05  (-0.1968533E-05)
 number of electron      36.0000000 magnetization 
 augmentation part        0.1301449 magnetization 

 Free energy of the ion-electron system (eV)
  ---------------------------------------------------
  alpha Z        PSCENC =         0.34590649
  Ewald energy   TEWEN  =      2898.72375109
  -Hartree energ DENC   =     -4420.86575178
  -exchange      EXHF   =         0.00000000
  -V(xc)+E(xc)   XCENC  =       155.82606488
  PAW double counting   =     20952.01856813   -20955.50067136
  entropy T*S    EENTRO =        -0.00000000
  eigenvalues    EBANDS =      -521.30740744
  atomic energy  EATOM  =      1813.47061108
  ---------------------------------------------------
  free energy    TOTEN  =       -77.28892891 eV

  energy without entropy =      -77.28892891  energy(sigma->0) =      -77.28892891


--------------------------------------------------------------------------------------------------------




--------------------------------------- Iteration      1(  21)  ---------------------------------------


    POTLOK:  cpu time      1.6073: real time      1.6077
    SETDIJ:  cpu time      0.3010: real time      0.3010
    TRIAL :  cpu time      3.3865: real time      3.3882
    CORREC:  cpu time      3.4617: real time      3.4629
    CHARGE:  cpu time      0.6651: real time      0.6657
    --------------------------------------------
      LOOP:  cpu time      9.4353: real time      9.4561

 eigenvalue-minimisations  :     0
 total energy-change (2. order) :-0.1931727E-05  (-0.9340053E-06)
 number of electron      36.0000000 magnetization 
 augmentation part        0.1301560 magnetization 

 Free energy of the ion-electron system (eV)
  ---------------------------------------------------
  alpha Z        PSCENC =         0.34590649
  Ewald energy   TEWEN  =      2898.72375109
  -Hartree energ DENC   =     -4420.84509845
  -exchange      EXHF   =         0.00000000
  -V(xc)+E(xc)   XCENC  =       155.82525743
  PAW double counting   =     20960.10388599   -20963.58597239
  entropy T*S    EENTRO =        -0.00000000
  eigenvalues    EBANDS =      -521.32727208
  atomic energy  EATOM  =      1813.47061108
  ---------------------------------------------------
  free energy    TOTEN  =       -77.28893085 eV

  energy without entropy =      -77.28893085  energy(sigma->0) =      -77.28893085


--------------------------------------------------------------------------------------------------------




--------------------------------------- Iteration      1(  22)  ---------------------------------------


    POTLOK:  cpu time      1.6394: real time      1.6403
    SETDIJ:  cpu time      0.2678: real time      0.2678
    TRIAL :  cpu time      3.3846: real time      3.3861
    CORREC:  cpu time      3.4532: real time      3.4547
    CHARGE:  cpu time      0.6665: real time      0.6667
    --------------------------------------------
      LOOP:  cpu time      9.4248: real time      9.4458

 eigenvalue-minimisations  :     0
 total energy-change (2. order) :-0.7922281E-06  (-0.2881071E-06)
 number of electron      36.0000000 magnetization 
 augmentation part        0.1301520 magnetization 

 Free energy of the ion-electron system (eV)
  ---------------------------------------------------
  alpha Z        PSCENC =         0.34590649
  Ewald energy   TEWEN  =      2898.72375109
  -Hartree energ DENC   =     -4420.85295206
  -exchange      EXHF   =         0.00000000
  -V(xc)+E(xc)   XCENC  =       155.82558202
  PAW double counting   =     20964.82342332   -20968.30564845
  entropy T*S    EENTRO =        -0.00000000
  eigenvalues    EBANDS =      -521.31960513
  atomic energy  EATOM  =      1813.47061108
  ---------------------------------------------------
  free energy    TOTEN  =       -77.28893164 eV

  energy without entropy =      -77.28893164  energy(sigma->0) =      -77.28893164


--------------------------------------------------------------------------------------------------------




--------------------------------------- Iteration      1(  23)  ---------------------------------------


    POTLOK:  cpu time      1.6110: real time      1.6116
    SETDIJ:  cpu time      0.3858: real time      0.3858
    TRIAL :  cpu time      3.3832: real time      3.3852
    CORREC:  cpu time      3.4879: real time      3.4893
    CHARGE:  cpu time      0.6695: real time      0.6698
    --------------------------------------------
      LOOP:  cpu time      9.5511: real time      9.5727

 eigenvalue-minimisations  :     0
 total energy-change (2. order) :-0.2789893E-06  (-0.1434106E-06)
 number of electron      36.0000000 magnetization 
 augmentation part        0.1301521 magnetization 

 Free energy of the ion-electron system (eV)
  ---------------------------------------------------
  alpha Z        PSCENC =         0.34590649
  Ewald energy   TEWEN  =      2898.72375109
  -Hartree energ DENC   =     -4420.84238777
  -exchange      EXHF   =         0.00000000
  -V(xc)+E(xc)   XCENC  =       155.82507712
  PAW double counting   =     20966.15281555   -20969.63499537
  entropy T*S    EENTRO =        -0.00000000
  eigenvalues    EBANDS =      -521.32971010
  atomic energy  EATOM  =      1813.47061108
  ---------------------------------------------------
  free energy    TOTEN  =       -77.28893192 eV

  energy without entropy =      -77.28893192  energy(sigma->0) =      -77.28893192


--------------------------------------------------------------------------------------------------------




--------------------------------------- Iteration      1(  24)  ---------------------------------------


    POTLOK:  cpu time      1.6067: real time      1.6075
    SETDIJ:  cpu time      0.2985: real time      0.2985
    TRIAL :  cpu time      3.3878: real time      3.3892
    CORREC:  cpu time      3.4594: real time      3.4609
    CHARGE:  cpu time      0.6658: real time      0.6659
    --------------------------------------------
      LOOP:  cpu time      9.4365: real time      9.4526

 eigenvalue-minimisations  :     0
 total energy-change (2. order) :-0.1391527E-06  (-0.6227698E-07)
 number of electron      36.0000000 magnetization 
 augmentation part        0.1301522 magnetization 

 Free energy of the ion-electron system (eV)
  ---------------------------------------------------
  alpha Z        PSCENC =         0.34590649
  Ewald energy   TEWEN  =      2898.72375109
  -Hartree energ DENC   =     -4420.84505616
  -exchange      EXHF   =         0.00000000
  -V(xc)+E(xc)   XCENC  =       155.82516692
  PAW double counting   =     20965.70190139   -20969.18409975
  entropy T*S    EENTRO =        -0.00000000
  eigenvalues    EBANDS =      -521.32711310
  atomic energy  EATOM  =      1813.47061108
  ---------------------------------------------------
  free energy    TOTEN  =       -77.28893206 eV

  energy without entropy =      -77.28893206  energy(sigma->0) =      -77.28893206


--------------------------------------------------------------------------------------------------------




--------------------------------------- Iteration      1(  25)  ---------------------------------------


    POTLOK:  cpu time      1.6445: real time      1.6453
    SETDIJ:  cpu time      0.2627: real time      0.2628
    TRIAL :  cpu time      3.3828: real time      3.3845
    CORREC:  cpu time      3.4558: real time      3.4571
    EDDIAG:  cpu time      0.8825: real time      0.8832
    CHARGE:  cpu time      0.6664: real time      0.6671
    --------------------------------------------
      LOOP:  cpu time     10.3084: real time     10.3317

 eigenvalue-minimisations  :     0
 total energy-change (2. order) :-0.6012488E-07  (-0.2374444E-07)
 number of electron      36.0000000 magnetization 
 augmentation part        0.1301512 magnetization 

 Free energy of the ion-electron system (eV)
  ---------------------------------------------------
  alpha Z        PSCENC =         0.34590649
  Ewald energy   TEWEN  =      2898.72375109
  -Hartree energ DENC   =     -4420.84758174
  -exchange      EXHF   =         0.00000000
  -V(xc)+E(xc)   XCENC  =       155.82525885
  PAW double counting   =     20964.88896768   -20968.37117577
  entropy T*S    EENTRO =        -0.00000000
  eigenvalues    EBANDS =      -521.32466979
  atomic energy  EATOM  =      1813.47061108
  ---------------------------------------------------
  free energy    TOTEN  =       -77.28893212 eV

  energy without entropy =      -77.28893212  energy(sigma->0) =      -77.28893212


--------------------------------------------------------------------------------------------------------


  average scaling for gradient   1.0479


 average (electrostatic) potential at core
  the test charge radii are     0.5770  0.4325  0.5955
  (the norm of the test charge is              1.0000)
       1 -90.8453       2 -90.8449       3 -90.8444       4 -47.5384       5 -47.5526
       6 -47.5416       7 -47.5384       8 -47.5512       9 -47.5562      10-123.8486
      11-123.8469      12-123.8480



 E-fermi :  -6.9067     XC(G=0):  -0.1241     alpha+bet : -0.0680

 Fermi energy:        -6.9067013688

 k-point     1 :       0.0000    0.0000    0.0000
  band No.  band energies     occupation 
      1     -29.3851      2.00000
      2     -26.9858      2.00000
      3     -26.9843      2.00000
      4     -18.6812      2.00000
      5     -18.6796      2.00000
      6     -15.7108      2.00000
      7     -13.8298      2.00000
      8     -13.6644      2.00000
      9     -12.4878      2.00000
     10     -12.4873      2.00000
     11     -11.4193      2.00000
     12     -10.9549      2.00000
     13     -10.9544      2.00000
     14      -8.4795      2.00000
     15      -8.4773      2.00000
     16      -7.2568      2.00000
     17      -7.2550      2.00000
     18      -6.9693      2.00000
     19      -0.1665      0.00000
     20       0.1244      0.00000
     21       0.2650      0.00000
     22       0.2664      0.00000
     23       0.2904      0.00000
     24       0.3500      0.00000
     25       0.3603      0.00000
     26       0.4813      0.00000
     27       0.5182      0.00000
     28       0.5424      0.00000
     29       0.6128      0.00000
     30       0.6216      0.00000
     31       0.6945      0.00000
     32       0.7553      0.00000


--------------------------------------------------------------------------------------------------------


 soft charge-density along one line, spin component           1
         0         1         2         3         4         5         6         7         8         9
 total charge-density along one line

 pseudopotential strength for first ion, spin component:           1
 12.729  21.421   0.008   0.012   0.010   0.015   0.021   0.018
 21.421  36.046   0.014   0.019   0.016   0.025   0.035   0.030
  0.008   0.014  -3.286  -0.004   0.002  -5.891  -0.006   0.003
  0.012   0.019  -0.004  -3.290   0.002  -0.006  -5.898   0.003
  0.010   0.016   0.002   0.002  -3.294   0.003   0.003  -5.905
  0.015   0.025  -5.891  -0.006   0.003 -10.538  -0.011   0.005
  0.021   0.035  -0.006  -5.898   0.003  -0.011 -10.550   0.006
  0.018   0.030   0.003   0.003  -5.905   0.005   0.006 -10.563
 total augmentation occupancy for first ion, spin component:           1
  9.003  -3.366   0.310   0.480   0.392  -0.185  -0.287  -0.234
 -3.366   1.314  -0.235  -0.361  -0.295   0.117   0.182   0.148
  0.310  -0.235   6.169   0.140  -0.050  -2.005  -0.161   0.071
  0.480  -0.361   0.140   6.130  -0.150  -0.161  -2.097   0.116
  0.392  -0.295  -0.050  -0.150   6.393   0.071   0.116  -2.324
 -0.185   0.117  -2.005  -0.161   0.071   0.665   0.096  -0.046
 -0.287   0.182  -0.161  -2.097   0.116   0.096   0.735  -0.066
 -0.234   0.148   0.071   0.116  -2.324  -0.046  -0.066   0.865


------------------------ aborting loop because EDIFF is reached ----------------------------------------


    FORLOC:  cpu time      0.0414: real time      0.0414
    FORNL :  cpu time      0.0358: real time      0.0362
    FORCOR:  cpu time      1.6971: real time      1.6987
    OFIELD:  cpu time      0.0042: real time      0.0041

 VOLUME and BASIS-vectors are now :
 -----------------------------------------------------------------------------
  energy-cutoff  :     1000.00
  volume of cell :    10648.00
      direct lattice vectors                 reciprocal lattice vectors
    22.000000000  0.000000000  0.000000000     0.045454545  0.000000000  0.000000000
     0.000000000 22.000000000  0.000000000     0.000000000  0.045454545  0.000000000
     0.000000000  0.000000000 22.000000000     0.000000000  0.000000000  0.045454545

  length of vectors
    22.000000000 22.000000000 22.000000000     0.045454545  0.045454545  0.045454545


 FORCES acting on ions:
    Electron-Ion                     Ewald-Force                    Non-Local-Force
 -----------------------------------------------------------------------------------------------
   0.141E+03 0.171E+03 0.131E+03   -.147E+03 -.176E+03 -.139E+03   0.653E+01 0.553E+01 0.779E+01
   -.211E+03 -.683E+02 0.131E+03   0.218E+03 0.722E+02 -.139E+03   -.753E+01 -.405E+01 0.780E+01
   0.140E+03 -.206E+03 -.655E+02   -.147E+03 0.215E+03 0.655E+02   0.652E+01 -.956E+01 -.974E-01
   -.970E+02 -.349E+01 0.686E+01   0.103E+03 0.322E+01 -.636E+01   -.615E+01 0.267E+00 -.502E+00
   0.451E+02 -.611E+01 0.847E+02   -.468E+02 0.833E+01 -.894E+02   0.185E+01 -.228E+01 0.490E+01
   0.387E+02 0.891E+02 0.690E+01   -.406E+02 -.947E+02 -.640E+01   0.200E+01 0.582E+01 -.497E+00
   0.386E+02 -.566E+02 -.693E+02   -.405E+02 0.594E+02 0.742E+02   0.199E+01 -.291E+01 -.507E+01
   0.451E+02 -.660E+02 0.533E+02   -.469E+02 0.686E+02 -.579E+02   0.186E+01 -.272E+01 0.467E+01
   -.108E+02 -.441E+02 0.847E+02   0.936E+01 0.466E+02 -.894E+02   0.144E+01 -.256E+01 0.490E+01
   -.211E+03 0.309E+03 0.899E+02   0.239E+03 -.350E+03 -.866E+02   -.280E+02 0.410E+02 -.324E+01
   -.211E+03 -.251E+03 -.202E+03   0.239E+03 0.271E+03 0.237E+03   -.280E+02 -.209E+02 -.354E+02
   0.310E+03 0.105E+03 -.202E+03   -.340E+03 -.124E+03 0.237E+03   0.296E+02 0.185E+02 -.355E+02
 -----------------------------------------------------------------------------------------------
   0.179E+02 -.262E+02 0.502E+02   0.000E+00 0.114E-12 -.568E-13   -.179E+02 0.262E+02 -.502E+02


 POSITION                                       TOTAL-FORCE (eV/Angst)
 -----------------------------------------------------------------------------------
      9.75943     10.23302     10.48981         0.153879      0.157605      0.164476
     11.66973     11.53522     10.48910        -0.203737     -0.082679      0.169237
      9.76112     12.28260     11.55955         0.153063     -0.222825     -0.033541
     12.75629     11.48691     10.57995        -0.227398      0.000863      0.000248
      9.41113     10.69645      9.54435         0.080210     -0.061624      0.187633
      9.40758      9.20383     10.57990         0.080959      0.212237      0.002988
      9.41107     12.79617     12.45662         0.081721     -0.117017     -0.173467
      9.41144     12.79398     10.63978         0.080207     -0.117145      0.156042
     11.36588     12.02819      9.54338         0.027626     -0.096538      0.184490
     11.17738     10.20523     10.50814        -0.277579      0.410123      0.007604
     11.17926     12.28296     11.59037        -0.280907     -0.251414     -0.331266
      9.24371     10.96230     11.59172         0.331957      0.168414     -0.334443
 -----------------------------------------------------------------------------------
    total drift:                               -0.001295      0.000165      0.001036


--------------------------------------------------------------------------------------------------------



  FREE ENERGIE OF THE ION-ELECTRON SYSTEM (eV)
  ---------------------------------------------------
  free  energy   TOTEN  =       -77.28893212 eV

  energy  without entropy=      -77.28893212  energy(sigma->0) =      -77.28893212



--------------------------------------------------------------------------------------------------------


    POTLOK:  cpu time      1.9149: real time      1.9156


--------------------------------------------------------------------------------------------------------


 stress matrix after NEB project (eV)
      0.00000      0.00000      0.00000
      0.00000      0.00000      0.00000
      0.00000      0.00000      0.00000
  FORCES: max atom, RMS     0.501852    0.324317
  FORCE total and by dimension    1.123467    0.410123
  Stress total and by dimension    0.000000    0.000000
     LOOP+:  cpu time    217.3579: real time    217.8055
    4ORBIT:  cpu time      0.0000: real time      0.0000

 total amount of memory used by VASP MPI-rank0   128249. kBytes
=======================================================================

   base      :      30000. kBytes
   nonl-proj :       4583. kBytes
   fftplans  :      24880. kBytes
   grid      :      66493. kBytes
   one-center:          1. kBytes
   wavefun   :       2292. kBytes

  
  
 General timing and accounting informations for this job:
 ========================================================
  
                  Total CPU time used (sec):      247.382
                            User time (sec):      224.266
                          System time (sec):       23.116
                         Elapsed time (sec):      254.689
  
                   Maximum memory used (kb):      345680.
                   Average memory used (kb):          N/A
  
                          Minor page faults:       567148
                          Major page faults:          617
                 Voluntary context switches:         7911
