 vasp.6.4.1 05Apr23 (build Jun  6 2023 14:46:38) gamma-only                      
 executed on        HPECrayEX_GCC date 2024.08.22  07:07:52
 running  512 mpi-ranks, with    1 threads/rank, on    4 nodes
 distrk:  each k-point on  512 cores,    1 groups
 distr:  one band on NCORE= 128 cores,    4 groups


--------------------------------------------------------------------------------------------------------


 INCAR:
   ALGO = Conjugate
   NPAR = 4
   ISMEAR = 0
   SIGMA = 0.01
   PREC = Accurate
   EDIFF = 1E-7
   ENCUT = 1000
   ISIF = 0
   GGA = RE
   LUSE_VDW = .TRUE.
   AGGAC = 0.0000
   LASPH = .TRUE.
   LWAVE = .FALSE.
   LCHARG = .FALSE.

 POTCAR:    PAW_PBE C_h 06Feb2004                 
 POTCAR:    PAW_PBE H_h 06Feb2004                 
 POTCAR:    PAW_PBE O_h 06Feb2004                 
 -----------------------------------------------------------------------------
|                                                                             |
|               ----> ADVICE to this user running VASP <----                  |
|                                                                             |
|     You have switched on vdW-DFT.                                           |
|     This routine was written and supplied by Jiri Klimes. We recommend      |
|     that you carefully read and cite the following publications:            |
|       J. Klimes, D.R. Bowler, A. Michelides                                 |
|          J. Phys.: Cond Matt. 22 022201 (2010)                              |
|       J. Klimes, D.R. Bowler, A. Michelides                                 |
|          Phys. Rev. B. 83, 195131 (2011)                                    |
|     and references therein.                                                 |
|                                                                             |
 -----------------------------------------------------------------------------

 POTCAR:    PAW_PBE C_h 06Feb2004                 
   VRHFIN =C: s2p2                                                                                  
   LEXCH  = PE                                                                                      
   EATOM  =   147.1560 eV,   10.8157 Ry                                                             
                                                                                                    
   TITEL  = PAW_PBE C_h 06Feb2004                                                                   
   LULTRA =        F    use ultrasoft PP ?                                                          
   IUNSCR =        1    unscreen: 0-lin 1-nonlin 2-no                                               
   RPACOR =    0.800    partial core radius                                                         
   POMASS =   12.011; ZVAL   =    4.000    mass and valenz                                          
   RCORE  =    1.100    outmost cutoff radius                                                       
   RWIGS  =    1.630; RWIGS  =    0.863    wigner-seitz radius (au A)                               
   ENMAX  =  700.000; ENMIN  =  500.000 eV                                                          
   ICORE  =        2    local potential                                                             
   LCOR   =        T    correct aug charges                                                         
   LPAW   =        T    paw PP                                                                      
   EAUG   =  946.768                                                                                
   DEXC   =    0.000                                                                                
   RMAX   =    1.128    core radius for proj-oper                                                   
   RAUG   =    1.300    factor for augmentation sphere                                              
   RDEP   =    1.162    radius for radial grids                                                     
   RDEPT  =    1.088    core radius for aug-charge                                                  
                                                                                                    
   Atomic configuration                                                                             
    4 entries                                                                                       
     n  l   j            E        occ.                                                              
     1  0  0.50      -273.3789   2.0000                                                             
     2  0  0.50       -13.7508   2.0000                                                             
     2  1  0.50        -5.2854   2.0000                                                             
     3  2  1.50        -5.4423   0.0000                                                             
   Description                                                                                      
     l       E           TYP  RCUT    TYP  RCUT                                                     
     0    -13.7508458     23  1.100                                                                 
     0     -8.2022199     23  1.100                                                                 
     1     -5.2854383     23  1.100                                                                 
     1      1.1560700     23  1.100                                                                 
     2     -5.4423304      7  1.100                                                                 
  local pseudopotential read in
  partial core-charges read in
  partial kinetic energy density read in
  atomic valenz-charges read in
  non local Contribution for L=           0  read in
    real space projection operators read in
  non local Contribution for L=           0  read in
    real space projection operators read in
  non local Contribution for L=           1  read in
    real space projection operators read in
  non local Contribution for L=           1  read in
    real space projection operators read in
    PAW grid and wavefunctions read in

   number of l-projection  operators is LMAX  =           4
   number of lm-projection operators is LMMAX =           8

 POTCAR:    PAW_PBE H_h 06Feb2004                 
   VRHFIN =H: ultrasoft test                                                                        
   LEXCH  = PE                                                                                      
   EATOM  =    12.4884 eV,    0.9179 Ry                                                             
                                                                                                    
   TITEL  = PAW_PBE H_h 06Feb2004                                                                   
   LULTRA =        F    use ultrasoft PP ?                                                          
   IUNSCR =        0    unscreen: 0-lin 1-nonlin 2-no                                               
   RPACOR =    0.000    partial core radius                                                         
   POMASS =    1.000; ZVAL   =    1.000    mass and valenz                                          
   RCORE  =    0.800    outmost cutoff radius                                                       
   RWIGS  =    0.700; RWIGS  =    0.370    wigner-seitz radius (au A)                               
   ENMAX  =  700.000; ENMIN  =  350.000 eV                                                          
   RCLOC  =    0.701    cutoff for local pot                                                        
   LCOR   =        T    correct aug charges                                                         
   LPAW   =        T    paw PP                                                                      
   EAUG   = 1000.000                                                                                
   RMAX   =    0.819    core radius for proj-oper                                                   
   RAUG   =    1.000    factor for augmentation sphere                                              
   RDEP   =    0.817    radius for radial grids                                                     
   RDEPT  =    0.817    core radius for aug-charge                                                  
                                                                                                    
   Atomic configuration                                                                             
    2 entries                                                                                       
     n  l   j            E        occ.                                                              
     1  0  0.50        -6.4927   1.0000                                                             
     2  1  0.50        -3.4015   0.0000                                                             
   Description                                                                                      
     l       E           TYP  RCUT    TYP  RCUT                                                     
     0     -6.4927493     23  0.800                                                                 
     0      6.8029130     23  0.800                                                                 
     1     -6.8029130     23  0.800                                                                 
  local pseudopotential read in
  atomic valenz-charges read in
  non local Contribution for L=           0  read in
    real space projection operators read in
  non local Contribution for L=           0  read in
    real space projection operators read in
  non local Contribution for L=           1  read in
    real space projection operators read in
    PAW grid and wavefunctions read in

   number of l-projection  operators is LMAX  =           3
   number of lm-projection operators is LMMAX =           5

 POTCAR:    PAW_PBE O_h 06Feb2004                 
   VRHFIN =O: s2p4                                                                                  
   LEXCH  = PE                                                                                      
   EATOM  =   432.3788 eV,   31.7789 Ry                                                             
                                                                                                    
   TITEL  = PAW_PBE O_h 06Feb2004                                                                   
   LULTRA =        F    use ultrasoft PP ?                                                          
   IUNSCR =        1    unscreen: 0-lin 1-nonlin 2-no                                               
   RPACOR =    0.800    partial core radius                                                         
   POMASS =   16.000; ZVAL   =    6.000    mass and valenz                                          
   RCORE  =    1.100    outmost cutoff radius                                                       
   RWIGS  =    1.400; RWIGS  =    0.741    wigner-seitz radius (au A)                               
   ENMAX  =  700.000; ENMIN  =  500.000 eV                                                          
   ICORE  =        2    local potential                                                             
   LCOR   =        T    correct aug charges                                                         
   LPAW   =        T    paw PP                                                                      
   EAUG   =  888.804                                                                                
   DEXC   =    0.000                                                                                
   RMAX   =    1.128    core radius for proj-oper                                                   
   RAUG   =    1.300    factor for augmentation sphere                                              
   RDEP   =    1.125    radius for radial grids                                                     
   RDEPT  =    1.088    core radius for aug-charge                                                  
                                                                                                    
   Atomic configuration                                                                             
    4 entries                                                                                       
     n  l   j            E        occ.                                                              
     1  0  0.50      -514.6923   2.0000                                                             
     2  0  0.50       -23.9615   2.0000                                                             
     2  1  0.50        -9.0305   4.0000                                                             
     3  2  1.50        -9.5241   0.0000                                                             
   Description                                                                                      
     l       E           TYP  RCUT    TYP  RCUT                                                     
     0    -23.9615319     23  1.100                                                                 
     0    -25.3221145     23  1.100                                                                 
     1     -9.0304911     23  1.100                                                                 
     1     -5.4802209     23  1.100                                                                 
     2     -9.5240782      7  1.100                                                                 
  local pseudopotential read in
  partial core-charges read in
  partial kinetic energy density read in
  atomic valenz-charges read in
  non local Contribution for L=           0  read in
    real space projection operators read in
  non local Contribution for L=           0  read in
    real space projection operators read in
  non local Contribution for L=           1  read in
    real space projection operators read in
  non local Contribution for L=           1  read in
    real space projection operators read in
    PAW grid and wavefunctions read in

   number of l-projection  operators is LMAX  =           4
   number of lm-projection operators is LMMAX =           8

 -----------------------------------------------------------------------------
|                                                                             |
|               ----> ADVICE to this user running VASP <----                  |
|                                                                             |
|     You enforced a specific xc type in the INCAR file but a different       |
|     type was found in the POTCAR file.                                      |
|     I HOPE YOU KNOW WHAT YOU ARE DOING!                                     |
|                                                                             |
 -----------------------------------------------------------------------------

  PAW_PBE C_h 06Feb2004                 :
 energy of atom  1       EATOM= -147.1560
 kinetic energy error for atom=    0.0031 (will be added to EATOM!!)
  PAW_PBE H_h 06Feb2004                 :
 energy of atom  2       EATOM=  -12.4884
 kinetic energy error for atom=    0.0006 (will be added to EATOM!!)
  PAW_PBE O_h 06Feb2004                 :
 energy of atom  3       EATOM= -432.3788
 kinetic energy error for atom=    0.0171 (will be added to EATOM!!)


 POSCAR:  C  H  O
  positions in cartesian coordinates
  No initial velocities read in
 exchange correlation table for  LEXCH =       40
   RHO(1)=    0.500       N(1)  =     2000
   RHO(2)=  100.500       N(2)  =     4000

 VTST: version 4.1, (05/19/21)

 CHAIN: initializing optimizer
 
 OPT: Using VASP Dynamics algorithm
 CHAIN: Read ICHAIN            0

 POSCAR:  C  H  O
  positions in cartesian coordinates
  No initial velocities read in



--------------------------------------------------------------------------------------------------------


 ion  position               nearest neighbor table
   1  0.444  0.465  0.477-   6 1.09   5 1.11  10 1.42  12 1.42
   2  0.530  0.524  0.477-   4 1.09   9 1.11  10 1.42  11 1.42
   3  0.444  0.558  0.525-   7 1.09   8 1.11  12 1.42  11 1.42
   4  0.580  0.522  0.481-   2 1.09
   5  0.428  0.486  0.434-   1 1.11
   6  0.428  0.418  0.481-   1 1.09
   7  0.428  0.582  0.566-   3 1.09
   8  0.428  0.582  0.484-   3 1.11
   9  0.517  0.547  0.434-   2 1.11
  10  0.508  0.464  0.478-   1 1.42   2 1.42
  11  0.508  0.558  0.527-   3 1.42   2 1.42
  12  0.420  0.498  0.527-   3 1.42   1 1.42

  LATTYP: Found a simple cubic cell.
 ALAT       =    22.0000000000
  
  Lattice vectors:
  
 A1 = (  22.0000000000,   0.0000000000,   0.0000000000)
 A2 = (   0.0000000000,  22.0000000000,   0.0000000000)
 A3 = (   0.0000000000,   0.0000000000,  22.0000000000)


Analysis of symmetry for initial positions (statically):
=====================================================================
 Subroutine PRICEL returns:
 Original cell was already a primitive cell.
 

 Routine SETGRP: Setting up the symmetry group for a 
 simple cubic supercell.


 Subroutine GETGRP returns: Found  1 space group operations
 (whereof  1 operations were pure point group operations)
 out of a pool of 48 trial point group operations.


The static configuration has the point symmetry C_1 .


Analysis of symmetry for dynamics (positions and initial velocities):
=====================================================================
 Subroutine PRICEL returns:
 Original cell was already a primitive cell.
 

 Routine SETGRP: Setting up the symmetry group for a 
 simple cubic supercell.


 Subroutine GETGRP returns: Found  1 space group operations
 (whereof  1 operations were pure point group operations)
 out of a pool of 48 trial point group operations.


The dynamic configuration has the point symmetry C_1 .


 Subroutine INISYM returns: Found  1 space group operations
 (whereof  1 operations are pure point group operations),
 and found     1 'primitive' translations


----------------------------------------------------------------------------------------

                                     Primitive cell                                     

  volume of cell :   10648.0000

  direct lattice vectors                    reciprocal lattice vectors
    22.000000000  0.000000000  0.000000000     0.045454545  0.000000000  0.000000000
     0.000000000 22.000000000  0.000000000     0.000000000  0.045454545  0.000000000
     0.000000000  0.000000000 22.000000000     0.000000000  0.000000000  0.045454545

  length of vectors
    22.000000000 22.000000000 22.000000000     0.045454545  0.045454545  0.045454545

  position of ions in fractional coordinates (direct lattice)
     0.443610682  0.465137045  0.476809773
     0.530442500  0.524328409  0.476777045
     0.443687045  0.558299773  0.525434318
     0.579831136  0.522132045  0.480906591
     0.427778409  0.486202500  0.433834318
     0.427617045  0.418355682  0.480904773
     0.427776136  0.581644318  0.566210227
     0.427792955  0.581544773  0.483626136
     0.516631136  0.546735682  0.433789773
     0.508062500  0.463873864  0.477642500
     0.508148409  0.558316136  0.526835227
     0.420168864  0.498286591  0.526896591

  ion indices of the primitive-cell ions
   primitive index   ion index
                 1           1
                 2           2
                 3           3
                 4           4
                 5           5
                 6           6
                 7           7
                 8           8
                 9           9
                10          10
                11          11
                12          12

----------------------------------------------------------------------------------------



 KPOINTS: auto                                    

Automatic generation of k-mesh.
 Grid dimensions read from file:
 generate k-points for:    1    1    1

 Generating k-lattice:

  Cartesian coordinates                     Fractional coordinates (reciprocal lattice)
     0.045454545  0.000000000  0.000000000     1.000000000  0.000000000  0.000000000
     0.000000000  0.045454545  0.000000000     0.000000000  1.000000000  0.000000000
     0.000000000  0.000000000  0.045454545     0.000000000  0.000000000  1.000000000

  Length of vectors
     0.045454545  0.045454545  0.045454545

  Shift w.r.t. Gamma in fractional coordinates (k-lattice)
     0.000000000  0.000000000  0.000000000

 
 Subroutine IBZKPT returns following result:
 ===========================================
 
 Found      1 irreducible k-points:
 
 Following reciprocal coordinates:
            Coordinates               Weight
  0.000000  0.000000  0.000000      1.000000
 
 Following cartesian coordinates:
            Coordinates               Weight
  0.000000  0.000000  0.000000      1.000000
 


--------------------------------------------------------------------------------------------------------




 Dimension of arrays:
   k-points           NKPTS =      1   k-points in BZ     NKDIM =      1   number of bands    NBANDS=     28
   number of dos      NEDOS =    301   number of ions     NIONS =     12
   non local maximal  LDIM  =      4   non local SUM 2l+1 LMDIM =      8
   total plane-waves  NPLWV = ******
   max r-space proj   IRMAX =      1   max aug-charges    IRDMAX=   9667
   dimension x,y,z NGX =   240 NGY =  240 NGZ =  240
   dimension x,y,z NGXF=   480 NGYF=  480 NGZF=  480
   support grid    NGXF=   480 NGYF=  480 NGZF=  480
   ions per type =               3   6   3
   NGX,Y,Z   is equivalent  to a cutoff of  18.14, 18.14, 18.14 a.u.
   NGXF,Y,Z  is equivalent  to a cutoff of  36.27, 36.27, 36.27 a.u.

 SYSTEM =  unknown system                          
 POSCAR =   C  H  O                                

 Startparameter for this run:
   NWRITE =      2    write-flag & timer
   PREC   = accura    normal or accurate (medium, high low for compatibility)
   ISTART =      0    job   : 0-new  1-cont  2-samecut
   ICHARG =      2    charge: 1-file 2-atom 10-const
   ISPIN  =      1    spin polarized calculation?
   LNONCOLLINEAR =      F non collinear calculations
   LSORBIT =      F    spin-orbit coupling
   INIWAV =      1    electr: 0-lowe 1-rand  2-diag
   LASPH  =      T    aspherical Exc in radial PAW
 Electronic Relaxation 1
   ENCUT  = 1000.0 eV  73.50 Ry    8.57 a.u.  56.73 56.73 56.73*2*pi/ulx,y,z
   ENINI  = 1000.0     initial cutoff
   ENAUG  = 1000.0 eV  augmentation charge cutoff
   NELM   =     60;   NELMIN=  2; NELMDL= -5     # of ELM steps 
   EDIFF  = 0.1E-06   stopping-criterion for ELM
   LREAL  =      F    real-space projection
   NLSPLINE    = F    spline interpolate recip. space projectors
   LCOMPAT=      F    compatible to vasp.4.4
   GGA_COMPAT  = T    GGA compatible to vasp.4.4-vasp.4.6
   LMAXPAW     = -100 max onsite density
   LMAXMIX     =    2 max onsite mixed and CHGCAR
   VOSKOWN=      0    Vosko Wilk Nusair interpolation
   ROPT   =    0.00000   0.00000   0.00000
 Ionic relaxation
   EDIFFG = 0.1E-05   stopping-criterion for IOM
   NSW    =      0    number of steps for IOM
   NBLOCK =      1;   KBLOCK =      1    inner block; outer block 
   IBRION =     -1    ionic relax: 0-MD 1-quasi-New 2-CG
   NFREE  =      0    steps in history (QN), initial steepest desc. (CG)
   ISIF   =      0    stress and relaxation
   IWAVPR =     10    prediction:  0-non 1-charg 2-wave 3-comb
   ISYM   =      2    0-nonsym 1-usesym 2-fastsym
   LCORR  =      T    Harris-Foulkes like correction to forces

   POTIM  = 0.5000    time-step for ionic-motion
   TEIN   =    0.0    initial temperature
   TEBEG  =    0.0;   TEEND  =   0.0 temperature during run
   SMASS  =  -3.00    Nose mass-parameter (am)
   estimated Nose-frequenzy (Omega)   =  0.10E-29 period in steps = 0.13E+47 mass=  -0.111E-25a.u.
   SCALEE = 1.0000    scale energy and forces
   NPACO  =    256;   APACO  = 10.0  distance and # of slots for P.C.
   PSTRESS=    0.0 pullay stress

  Mass of Ions in am
   POMASS =  12.01  1.00 16.00
  Ionic Valenz
   ZVAL   =   4.00  1.00  6.00
  Atomic Wigner-Seitz radii
   RWIGS  =  -1.00 -1.00 -1.00
  virtual crystal weights 
   VCA    =   1.00  1.00  1.00
   NELECT =      36.0000    total number of electrons
   NUPDOWN=      -1.0000    fix difference up-down

 DOS related values:
   EMIN   =  10.00;   EMAX   =-10.00  energy-range for DOS
   EFERMI =   0.00;   METHOD = LEGACY      
   ISMEAR =     0;   SIGMA  =   0.01  broadening in eV -4-tet -1-fermi 0-gaus

 Electronic relaxation 2 (details)
   IALGO  =     58    algorithm
   LDIAG  =      T    sub-space diagonalisation (order eigenvalues)
   LSUBROT=      F    optimize rotation matrix (better conditioning)
   TURBO    =      0    0=normal 1=particle mesh
   IRESTART =      0    0=no restart 2=restart with 2 vectors
   NREBOOT  =      0    no. of reboots
   NMIN     =      0    reboot dimension
   EREF     =   0.00    reference energy to select bands
   IMIX   =      4    mixing-type and parameters
     AMIX     =   0.40;   BMIX     =  1.00
     AMIX_MAG =   1.60;   BMIX_MAG =  1.00
     AMIN     =   0.10
     WC   =   100.;   INIMIX=   1;  MIXPRE=   1;  MAXMIX= -45

 Intra band minimization:
   WEIMIN = 0.0000     energy-eigenvalue tresh-hold
   EBREAK =  0.89E-09  absolut break condition
   DEPER  =   0.30     relativ break condition  

   TIME   =   0.40     timestep for ELM

  volume/ion in A,a.u.               =     887.33      5988.02
  Fermi-wavevector in a.u.,A,eV,Ry     =   0.245708  0.464321  0.821418  0.060373
  Thomas-Fermi vector in A             =   1.056973

 Write flags
   LWAVE        =      F    write WAVECAR
   LDOWNSAMPLE  =      F    k-point downsampling of WAVECAR
   LCHARG       =      F    write CHGCAR
   LVTOT        =      F    write LOCPOT, total local potential
   LVHAR        =      F    write LOCPOT, Hartree potential only
   LELF         =      F    write electronic localiz. function (ELF)
   LORBIT       =      0    0 simple, 1 ext, 2 COOP (PROOUT), +10 PAW based schemes


 Dipole corrections
   LMONO  =      F    monopole corrections only (constant potential shift)
   LDIPOL =      F    correct potential (dipole corrections)
   IDIPOL =      0    1-x, 2-y, 3-z, 4-all directions 
   EPSILON=  1.0000000 bulk dielectric constant

 Exchange correlation treatment:
   GGA     =    RE    GGA type
   LEXCH   =    40    internal setting for exchange type
   LIBXC   =     F    Libxc                    
   VOSKOWN =     0    Vosko Wilk Nusair interpolation
   LHFCALC =     F    Hartree Fock is set to
   LHFONE  =     F    Hartree Fock one center treatment
   AEXX    =    0.0000 exact exchange contribution

 vdW DFT:
   LUSE_VDW   =     T    switch on vdW DFT
   IVDW_NL    =     1    kernel type
   LSPIN_VDW  =     F    use spin-polarized vdW DFT
   Zab_VDW    =-.8491    correlation parameter
   PARAM1     =0.1234
   PARAM2     =1.0000
   PARAM3     =0.0000
   -- rVV10 --
   BPARAM     = 6.3000
   CPARAM     = 0.0093

 Linear response parameters
   LEPSILON=     F    determine dielectric tensor
   LRPA    =     F    only Hartree local field effects (RPA)
   LNABLA  =     F    use nabla operator in PAW spheres
   LVEL    =     F    velocity operator in full k-point grid
   CSHIFT  =0.1000    complex shift for real part using Kramers Kronig
   OMEGAMAX=  -1.0    maximum frequency
   DEG_THRESHOLD= 0.2000000E-02 threshold for treating states as degnerate
   RTIME   =   -0.100 relaxation time in fs
  (WPLASMAI=    0.000 imaginary part of plasma frequency in eV, 0.658/RTIME)
   DFIELD  = 0.0000000 0.0000000 0.0000000 field for delta impulse in time

  Optional k-point grid parameters
   LKPOINTS_OPT  =     F    use optional k-point grid
   KPOINTS_OPT_MODE=     1    mode for optional k-point grid

 Orbital magnetization related:
   ORBITALMAG=     F  switch on orbital magnetization
   LCHIMAG   =     F  perturbation theory with respect to B field
   DQ        =  0.001000  dq finite difference perturbation B field
   LLRAUG    =     F  two centre corrections for induced B field
   LBONE     =     F  B-component reconstruction in AE one-centre
   LVGVCALC  =     T  calculate vGv susceptibility
   LVGVAPPL  =     F  apply vGv susceptibility instead of pGv for G=0

 Random number generation:
   RANDOM_GENERATOR = DEFAULT
   PCG_SEED         = not used


--------------------------------------------------------------------------------------------------------


 Static calculation
 charge density and potential will be updated during run
 non-spin polarized calculation
 Conjugate gradient for all bands (Freysoldt, et al. PRB 79, 241103 (2009))
 preconditioned conjugated gradient                                        
 perform sub-space diagonalisation
    before iterative eigenvector-optimisation
 modified Broyden-mixing scheme, WC =      100.0
 initial mixing is a Kerker type mixing with AMIX =  0.4000 and BMIX =      1.0000
 Hartree-type preconditioning will be used
 using additional bands           10
 reciprocal scheme for non local part
 use partial core corrections
 no Harris-corrections to forces 
 use gradient corrections 
 use of overlap-Matrix (Vanderbilt PP)
 Gauss-broadening in eV      SIGMA  =   0.01


--------------------------------------------------------------------------------------------------------


  energy-cutoff  :     1000.00
  volume of cell :    10648.00
      direct lattice vectors                 reciprocal lattice vectors
    22.000000000  0.000000000  0.000000000     0.045454545  0.000000000  0.000000000
     0.000000000 22.000000000  0.000000000     0.000000000  0.045454545  0.000000000
     0.000000000  0.000000000 22.000000000     0.000000000  0.000000000  0.045454545

  length of vectors
    22.000000000 22.000000000 22.000000000     0.045454545  0.045454545  0.045454545



 k-points in units of 2pi/SCALE and weight: auto                                    
   0.00000000  0.00000000  0.00000000       1.000

 k-points in reciprocal lattice and weights: auto                                    
   0.00000000  0.00000000  0.00000000       1.000

 position of ions in fractional coordinates (direct lattice) 
   0.44361068  0.46513705  0.47680977
   0.53044250  0.52432841  0.47677705
   0.44368705  0.55829977  0.52543432
   0.57983114  0.52213205  0.48090659
   0.42777841  0.48620250  0.43383432
   0.42761705  0.41835568  0.48090477
   0.42777614  0.58164432  0.56621023
   0.42779295  0.58154477  0.48362614
   0.51663114  0.54673568  0.43378977
   0.50806250  0.46387386  0.47764250
   0.50814841  0.55831614  0.52683523
   0.42016886  0.49828659  0.52689659

 position of ions in cartesian coordinates  (Angst):
   9.75943500 10.23301500 10.48981500
  11.66973500 11.53522500 10.48909500
   9.76111500 12.28259500 11.55955500
  12.75628500 11.48690500 10.57994500
   9.41112500 10.69645500  9.54435500
   9.40757500  9.20382500 10.57990500
   9.41107500 12.79617500 12.45662500
   9.41144500 12.79398500 10.63977500
  11.36588500 12.02818500  9.54337500
  11.17737500 10.20522500 10.50813500
  11.17926500 12.28295500 11.59037500
   9.24371500 10.96230500 11.59172500



--------------------------------------------------------------------------------------------------------


 use parallel FFT for orbitals z direction half grid
 k-point   1 :   0.0000 0.0000 0.0000  plane waves:  381993

 maximum and minimum number of plane-waves per node :      2992     2977

 maximum number of plane-waves:    381993
 maximum index in each direction: 
   IXMAX=   56   IYMAX=   56   IZMAX=   56
   IXMIN=  -56   IYMIN=  -56   IZMIN=    0


 parallel 3D FFT for wavefunctions:
    minimum data exchange during FFTs selected (reduces bandwidth)
 parallel 3D FFT for charge:
    minimum data exchange during FFTs selected (reduces bandwidth)


 total amount of memory used by VASP MPI-rank0    61950. kBytes
=======================================================================

   base      :      30000. kBytes
   nonl-proj :       1145. kBytes
   fftplans  :      10395. kBytes
   grid      :      19407. kBytes
   one-center:          1. kBytes
   wavefun   :       1002. kBytes

     INWAV:  cpu time      0.0001: real time      0.0003
 Broyden mixing: mesh for mixing (old mesh)
   NGX =113   NGY =113   NGZ =113
  (NGX  =480   NGY  =480   NGZ  =480)
  gives a total of ****** points

 initial charge density was supplied:
 charge density of overlapping atoms calculated
 number of electron      36.0000000 magnetization 
 keeping initial charge density in first step


--------------------------------------------------------------------------------------------------------


 Maximum index for augmentation-charges            0 (set IRDMAX)


--------------------------------------------------------------------------------------------------------


 First call to EWALD:  gamma=   0.081
 Maximum number of real-space cells 3x 3x 3
 Maximum number of reciprocal cells 3x 3x 3

    FEWALD:  cpu time      0.0032: real time      0.0032


--------------------------------------- Ionic step        1  -------------------------------------------




--------------------------------------- Iteration      1(   1)  ---------------------------------------


vdW kernel read from vdw_kernel.bindat
  0.0000  0.2424  0.5071  0.7962  1.1119  1.4567  1.8333  2.2446  2.6937  3.1842
  3.7199  4.3049  4.9438  5.6415  6.4036  7.2358  8.1446  9.1372 10.2212 11.4050
 12.6979 14.1099 15.6519 17.3360 19.1751 21.1837 23.3773 25.7729 28.3892 31.2465
 34.3669 37.7748 41.4965 45.5611 50.0000

    POTLOK:  cpu time     11.3704: real time     11.3807
    SETDIJ:  cpu time      0.0708: real time      0.0710
    TRIAL :  cpu time      0.3371: real time      0.3390
    CORREC:  cpu time      0.0017: real time      0.0017
    --------------------------------------------
      LOOP:  cpu time     11.7859: real time     11.7984

 eigenvalue-minimisations  :    72
 total energy-change (2. order) : 0.3895162E+03  (-0.9152288E+03)
 number of electron      36.0000000 magnetization 
 augmentation part       36.0000000 magnetization 

 Free energy of the ion-electron system (eV)
  ---------------------------------------------------
  alpha Z        PSCENC =         0.34590649
  Ewald energy   TEWEN  =      2898.72375109
  -Hartree energ DENC   =     -4279.26319512
  -exchange      EXHF   =         0.00000000
  -V(xc)+E(xc)   XCENC  =       110.27985694
  PAW double counting   =      1393.86600143    -1379.48988290
  entropy T*S    EENTRO =        -0.00000000
  eigenvalues    EBANDS =      -189.30221410
  atomic energy  EATOM  =      1834.35599387
  ---------------------------------------------------
  free energy    TOTEN  =       389.51621769 eV

  energy without entropy =      389.51621769  energy(sigma->0) =      389.51621769


--------------------------------------------------------------------------------------------------------




--------------------------------------- Iteration      1(   2)  ---------------------------------------


    TRIAL :  cpu time      0.3563: real time      0.3567
    CORREC:  cpu time      0.0001: real time      0.0001
    --------------------------------------------
      LOOP:  cpu time      0.3701: real time      0.3871

 eigenvalue-minimisations  :    92
 total energy-change (2. order) :-0.1840114E+03  (-0.1799999E+03)
 number of electron      36.0000000 magnetization 
 augmentation part       36.0000000 magnetization 

 Free energy of the ion-electron system (eV)
  ---------------------------------------------------
  alpha Z        PSCENC =         0.34590649
  Ewald energy   TEWEN  =      2898.72375109
  -Hartree energ DENC   =     -4279.26319512
  -exchange      EXHF   =         0.00000000
  -V(xc)+E(xc)   XCENC  =       110.27985694
  PAW double counting   =      1393.86600143    -1379.48988290
  entropy T*S    EENTRO =        -0.00000000
  eigenvalues    EBANDS =      -373.31356414
  atomic energy  EATOM  =      1834.35599387
  ---------------------------------------------------
  free energy    TOTEN  =       205.50486765 eV

  energy without entropy =      205.50486765  energy(sigma->0) =      205.50486765


--------------------------------------------------------------------------------------------------------




--------------------------------------- Iteration      1(   3)  ---------------------------------------


    TRIAL :  cpu time      0.3647: real time      0.3647
    CORREC:  cpu time      0.0001: real time      0.0001
    --------------------------------------------
      LOOP:  cpu time      0.3812: real time      0.3954

 eigenvalue-minimisations  :    96
 total energy-change (2. order) :-0.1694045E+03  (-0.1650579E+03)
 number of electron      36.0000000 magnetization 
 augmentation part       36.0000000 magnetization 

 Free energy of the ion-electron system (eV)
  ---------------------------------------------------
  alpha Z        PSCENC =         0.34590649
  Ewald energy   TEWEN  =      2898.72375109
  -Hartree energ DENC   =     -4279.26319512
  -exchange      EXHF   =         0.00000000
  -V(xc)+E(xc)   XCENC  =       110.27985694
  PAW double counting   =      1393.86600143    -1379.48988290
  entropy T*S    EENTRO =        -0.00000000
  eigenvalues    EBANDS =      -542.71806762
  atomic energy  EATOM  =      1834.35599387
  ---------------------------------------------------
  free energy    TOTEN  =        36.10036417 eV

  energy without entropy =       36.10036417  energy(sigma->0) =       36.10036417


--------------------------------------------------------------------------------------------------------




--------------------------------------- Iteration      1(   4)  ---------------------------------------


    TRIAL :  cpu time      0.2942: real time      0.2943
    CORREC:  cpu time      0.0001: real time      0.0001
    --------------------------------------------
      LOOP:  cpu time      0.3236: real time      0.3237

 eigenvalue-minimisations  :    72
 total energy-change (2. order) :-0.8526651E+02  (-0.8497707E+02)
 number of electron      36.0000000 magnetization 
 augmentation part       36.0000000 magnetization 

 Free energy of the ion-electron system (eV)
  ---------------------------------------------------
  alpha Z        PSCENC =         0.34590649
  Ewald energy   TEWEN  =      2898.72375109
  -Hartree energ DENC   =     -4279.26319512
  -exchange      EXHF   =         0.00000000
  -V(xc)+E(xc)   XCENC  =       110.27985694
  PAW double counting   =      1393.86600143    -1379.48988290
  entropy T*S    EENTRO =        -0.00000000
  eigenvalues    EBANDS =      -627.98457287
  atomic energy  EATOM  =      1834.35599387
  ---------------------------------------------------
  free energy    TOTEN  =       -49.16614108 eV

  energy without entropy =      -49.16614108  energy(sigma->0) =      -49.16614108


--------------------------------------------------------------------------------------------------------




--------------------------------------- Iteration      1(   5)  ---------------------------------------


    TRIAL :  cpu time      0.2708: real time      0.2712
    CORREC:  cpu time      0.0001: real time      0.0001
    CHARGE:  cpu time      0.0722: real time      0.0740
    --------------------------------------------
      LOOP:  cpu time      0.3587: real time      0.3756

 eigenvalue-minimisations  :    64
 total energy-change (2. order) :-0.1295770E+02  (-0.1294282E+02)
 number of electron      36.0000000 magnetization 
 augmentation part        0.2127455 magnetization 

 Free energy of the ion-electron system (eV)
  ---------------------------------------------------
  alpha Z        PSCENC =         0.34590649
  Ewald energy   TEWEN  =      2898.72375109
  -Hartree energ DENC   =     -4279.26319512
  -exchange      EXHF   =         0.00000000
  -V(xc)+E(xc)   XCENC  =       110.27985694
  PAW double counting   =      1393.86600143    -1379.48988290
  entropy T*S    EENTRO =        -0.00000000
  eigenvalues    EBANDS =      -640.94227588
  atomic energy  EATOM  =      1834.35599387
  ---------------------------------------------------
  free energy    TOTEN  =       -62.12384409 eV

  energy without entropy =      -62.12384409  energy(sigma->0) =      -62.12384409


--------------------------------------------------------------------------------------------------------




--------------------------------------- Iteration      1(   6)  ---------------------------------------


    POTLOK:  cpu time     10.7477: real time     10.7502
    SETDIJ:  cpu time      0.0660: real time      0.0662
    TRIAL :  cpu time      0.1589: real time      0.1606
    CORREC:  cpu time     10.8485: real time     10.8516
    CHARGE:  cpu time      0.0450: real time      0.0450
    --------------------------------------------
      LOOP:  cpu time     21.8824: real time     21.9055

 eigenvalue-minimisations  :     0
 total energy-change (2. order) : 0.8244555E+01  (-0.2990260E+01)
 number of electron      36.0000000 magnetization 
 augmentation part        0.1764294 magnetization 

 Free energy of the ion-electron system (eV)
  ---------------------------------------------------
  alpha Z        PSCENC =         0.34590649
  Ewald energy   TEWEN  =      2898.72375109
  -Hartree energ DENC   =     -4530.21596728
  -exchange      EXHF   =         0.00000000
  -V(xc)+E(xc)   XCENC  =       121.34594299
  PAW double counting   =     14218.21327237   -14205.71123188
  entropy T*S    EENTRO =        -0.00000000
  eigenvalues    EBANDS =      -390.93695679
  atomic energy  EATOM  =      1834.35599387
  ---------------------------------------------------
  free energy    TOTEN  =       -53.87928914 eV

  energy without entropy =      -53.87928914  energy(sigma->0) =      -53.87928914


--------------------------------------------------------------------------------------------------------




--------------------------------------- Iteration      1(   7)  ---------------------------------------


    POTLOK:  cpu time     10.7523: real time     10.7547
    SETDIJ:  cpu time      0.0665: real time      0.0665
    TRIAL :  cpu time      0.1416: real time      0.1420
    CORREC:  cpu time     10.8437: real time     10.8459
    CHARGE:  cpu time      0.0449: real time      0.0449
    --------------------------------------------
      LOOP:  cpu time     21.8803: real time     21.8855

 eigenvalue-minimisations  :     0
 total energy-change (2. order) :-0.3028345E+01  (-0.4753186E+00)
 number of electron      36.0000000 magnetization 
 augmentation part        0.1489415 magnetization 

 Free energy of the ion-electron system (eV)
  ---------------------------------------------------
  alpha Z        PSCENC =         0.34590649
  Ewald energy   TEWEN  =      2898.72375109
  -Hartree energ DENC   =     -4421.86900644
  -exchange      EXHF   =         0.00000000
  -V(xc)+E(xc)   XCENC  =       117.11162794
  PAW double counting   =     15613.96978910   -15600.73426138
  entropy T*S    EENTRO =        -0.00000000
  eigenvalues    EBANDS =      -498.81143518
  atomic energy  EATOM  =      1834.35599387
  ---------------------------------------------------
  free energy    TOTEN  =       -56.90763452 eV

  energy without entropy =      -56.90763452  energy(sigma->0) =      -56.90763452


--------------------------------------------------------------------------------------------------------




--------------------------------------- Iteration      1(   8)  ---------------------------------------


    POTLOK:  cpu time     10.7445: real time     10.7467
    SETDIJ:  cpu time      0.0663: real time      0.0663
    TRIAL :  cpu time      0.1421: real time      0.1421
    CORREC:  cpu time     10.9285: real time     10.9313
    CHARGE:  cpu time      0.0449: real time      0.0449
    --------------------------------------------
      LOOP:  cpu time     21.9389: real time     21.9634

 eigenvalue-minimisations  :     0
 total energy-change (2. order) :-0.4764312E+00  (-0.1902270E+00)
 number of electron      36.0000000 magnetization 
 augmentation part        0.1489416 magnetization 

 Free energy of the ion-electron system (eV)
  ---------------------------------------------------
  alpha Z        PSCENC =         0.34590649
  Ewald energy   TEWEN  =      2898.72375109
  -Hartree energ DENC   =     -4421.87434628
  -exchange      EXHF   =         0.00000000
  -V(xc)+E(xc)   XCENC  =       116.94877762
  PAW double counting   =     15849.10797143   -15835.69242947
  entropy T*S    EENTRO =        -0.00000000
  eigenvalues    EBANDS =      -499.29969050
  atomic energy  EATOM  =      1834.35599387
  ---------------------------------------------------
  free energy    TOTEN  =       -57.38406576 eV

  energy without entropy =      -57.38406576  energy(sigma->0) =      -57.38406576


--------------------------------------------------------------------------------------------------------




--------------------------------------- Iteration      1(   9)  ---------------------------------------


    POTLOK:  cpu time     10.6553: real time     10.6580
    SETDIJ:  cpu time      0.0665: real time      0.0665
    TRIAL :  cpu time      0.1424: real time      0.1424
    CORREC:  cpu time     10.8320: real time     10.8346
    CHARGE:  cpu time      0.0449: real time      0.0449
    --------------------------------------------
      LOOP:  cpu time     21.7545: real time     21.7766

 eigenvalue-minimisations  :     0
 total energy-change (2. order) :-0.1902472E+00  (-0.1093336E+00)
 number of electron      36.0000000 magnetization 
 augmentation part        0.1509373 magnetization 

 Free energy of the ion-electron system (eV)
  ---------------------------------------------------
  alpha Z        PSCENC =         0.34590649
  Ewald energy   TEWEN  =      2898.72375109
  -Hartree energ DENC   =     -4424.17825443
  -exchange      EXHF   =         0.00000000
  -V(xc)+E(xc)   XCENC  =       116.94416238
  PAW double counting   =     16136.47214096   -16123.03248351
  entropy T*S    EENTRO =        -0.00000000
  eigenvalues    EBANDS =      -497.20552980
  atomic energy  EATOM  =      1834.35599387
  ---------------------------------------------------
  free energy    TOTEN  =       -57.57431295 eV

  energy without entropy =      -57.57431295  energy(sigma->0) =      -57.57431295


--------------------------------------------------------------------------------------------------------




--------------------------------------- Iteration      1(  10)  ---------------------------------------


    POTLOK:  cpu time     10.6847: real time     10.6874
    SETDIJ:  cpu time      0.0667: real time      0.0667
    TRIAL :  cpu time      0.1416: real time      0.1416
    CORREC:  cpu time     10.8166: real time     10.8192
    CHARGE:  cpu time      0.0451: real time      0.0451
    --------------------------------------------
      LOOP:  cpu time     21.7676: real time     21.7895

 eigenvalue-minimisations  :     0
 total energy-change (2. order) :-0.1075004E+00  (-0.3784201E-01)
 number of electron      36.0000000 magnetization 
 augmentation part        0.1523205 magnetization 

 Free energy of the ion-electron system (eV)
  ---------------------------------------------------
  alpha Z        PSCENC =         0.34590649
  Ewald energy   TEWEN  =      2898.72375109
  -Hartree energ DENC   =     -4417.65024715
  -exchange      EXHF   =         0.00000000
  -V(xc)+E(xc)   XCENC  =       116.76875220
  PAW double counting   =     15883.20291171   -15869.76085344
  entropy T*S    EENTRO =        -0.00000000
  eigenvalues    EBANDS =      -503.66802806
  atomic energy  EATOM  =      1834.35599387
  ---------------------------------------------------
  free energy    TOTEN  =       -57.68181330 eV

  energy without entropy =      -57.68181330  energy(sigma->0) =      -57.68181330


--------------------------------------------------------------------------------------------------------




--------------------------------------- Iteration      1(  11)  ---------------------------------------


    POTLOK:  cpu time     10.7224: real time     10.7251
    SETDIJ:  cpu time      0.0664: real time      0.0664
    TRIAL :  cpu time      0.1415: real time      0.1415
    CORREC:  cpu time     10.8945: real time     10.8972
    CHARGE:  cpu time      0.0451: real time      0.0451
    --------------------------------------------
      LOOP:  cpu time     21.8873: real time     21.9068

 eigenvalue-minimisations  :     0
 total energy-change (2. order) :-0.3764620E-01  (-0.1302327E-01)
 number of electron      36.0000000 magnetization 
 augmentation part        0.1535940 magnetization 

 Free energy of the ion-electron system (eV)
  ---------------------------------------------------
  alpha Z        PSCENC =         0.34590649
  Ewald energy   TEWEN  =      2898.72375109
  -Hartree energ DENC   =     -4415.71258967
  -exchange      EXHF   =         0.00000000
  -V(xc)+E(xc)   XCENC  =       116.74032292
  PAW double counting   =     15548.58002741   -15535.15899940
  entropy T*S    EENTRO =        -0.00000000
  eigenvalues    EBANDS =      -505.59387221
  atomic energy  EATOM  =      1834.35599387
  ---------------------------------------------------
  free energy    TOTEN  =       -57.71945950 eV

  energy without entropy =      -57.71945950  energy(sigma->0) =      -57.71945950


--------------------------------------------------------------------------------------------------------




--------------------------------------- Iteration      1(  12)  ---------------------------------------


    POTLOK:  cpu time     10.7035: real time     10.7062
    SETDIJ:  cpu time      0.0665: real time      0.0665
    TRIAL :  cpu time      0.1415: real time      0.1416
    CORREC:  cpu time     10.8408: real time     10.8431
    CHARGE:  cpu time      0.0451: real time      0.0451
    --------------------------------------------
      LOOP:  cpu time     21.8275: real time     21.8328

 eigenvalue-minimisations  :     0
 total energy-change (2. order) :-0.1301441E-01  (-0.4986921E-02)
 number of electron      36.0000000 magnetization 
 augmentation part        0.1537744 magnetization 

 Free energy of the ion-electron system (eV)
  ---------------------------------------------------
  alpha Z        PSCENC =         0.34590649
  Ewald energy   TEWEN  =      2898.72375109
  -Hartree energ DENC   =     -4415.56266265
  -exchange      EXHF   =         0.00000000
  -V(xc)+E(xc)   XCENC  =       116.72857823
  PAW double counting   =     15474.98173774   -15461.57469432
  entropy T*S    EENTRO =        -0.00000000
  eigenvalues    EBANDS =      -505.73108436
  atomic energy  EATOM  =      1834.35599387
  ---------------------------------------------------
  free energy    TOTEN  =       -57.73247392 eV

  energy without entropy =      -57.73247392  energy(sigma->0) =      -57.73247392


--------------------------------------------------------------------------------------------------------




--------------------------------------- Iteration      1(  13)  ---------------------------------------


    POTLOK:  cpu time     10.6968: real time     10.6992
    SETDIJ:  cpu time      0.0664: real time      0.0666
    TRIAL :  cpu time      0.1425: real time      0.1426
    CORREC:  cpu time     10.9334: real time     10.9359
    CHARGE:  cpu time      0.0446: real time      0.0446
    --------------------------------------------
      LOOP:  cpu time     21.8999: real time     21.9200

 eigenvalue-minimisations  :     0
 total energy-change (2. order) :-0.4994000E-02  (-0.2323645E-02)
 number of electron      36.0000000 magnetization 
 augmentation part        0.1537993 magnetization 

 Free energy of the ion-electron system (eV)
  ---------------------------------------------------
  alpha Z        PSCENC =         0.34590649
  Ewald energy   TEWEN  =      2898.72375109
  -Hartree energ DENC   =     -4415.21352090
  -exchange      EXHF   =         0.00000000
  -V(xc)+E(xc)   XCENC  =       116.70722085
  PAW double counting   =     15519.81719485   -15506.41229190
  entropy T*S    EENTRO =        -0.00000000
  eigenvalues    EBANDS =      -506.06172226
  atomic energy  EATOM  =      1834.35599387
  ---------------------------------------------------
  free energy    TOTEN  =       -57.73746792 eV

  energy without entropy =      -57.73746792  energy(sigma->0) =      -57.73746792


--------------------------------------------------------------------------------------------------------




--------------------------------------- Iteration      1(  14)  ---------------------------------------


    POTLOK:  cpu time     10.7481: real time     10.7504
    SETDIJ:  cpu time      0.0666: real time      0.0666
    TRIAL :  cpu time      0.1420: real time      0.1424
    CORREC:  cpu time     10.8007: real time     10.8032
    CHARGE:  cpu time      0.0454: real time      0.0454
    --------------------------------------------
      LOOP:  cpu time     21.8245: real time     21.8412

 eigenvalue-minimisations  :     0
 total energy-change (2. order) :-0.2326999E-02  (-0.1227474E-02)
 number of electron      36.0000000 magnetization 
 augmentation part        0.1537240 magnetization 

 Free energy of the ion-electron system (eV)
  ---------------------------------------------------
  alpha Z        PSCENC =         0.34590649
  Ewald energy   TEWEN  =      2898.72375109
  -Hartree energ DENC   =     -4415.79544260
  -exchange      EXHF   =         0.00000000
  -V(xc)+E(xc)   XCENC  =       116.72656549
  PAW double counting   =     15563.91740388   -15550.51568352
  entropy T*S    EENTRO =        -0.00000000
  eigenvalues    EBANDS =      -505.49828962
  atomic energy  EATOM  =      1834.35599387
  ---------------------------------------------------
  free energy    TOTEN  =       -57.73979492 eV

  energy without entropy =      -57.73979492  energy(sigma->0) =      -57.73979492


--------------------------------------------------------------------------------------------------------




--------------------------------------- Iteration      1(  15)  ---------------------------------------


    POTLOK:  cpu time     10.7688: real time     10.7709
    SETDIJ:  cpu time      0.0666: real time      0.0666
    TRIAL :  cpu time      0.1414: real time      0.1415
    CORREC:  cpu time     10.8520: real time     10.8542
    CHARGE:  cpu time      0.0454: real time      0.0454
    --------------------------------------------
      LOOP:  cpu time     21.9053: real time     21.9103

 eigenvalue-minimisations  :     0
 total energy-change (2. order) :-0.1228992E-02  (-0.5321069E-03)
 number of electron      36.0000000 magnetization 
 augmentation part        0.1537520 magnetization 

 Free energy of the ion-electron system (eV)
  ---------------------------------------------------
  alpha Z        PSCENC =         0.34590649
  Ewald energy   TEWEN  =      2898.72375109
  -Hartree energ DENC   =     -4416.08415040
  -exchange      EXHF   =         0.00000000
  -V(xc)+E(xc)   XCENC  =       116.73542100
  PAW double counting   =     15587.13372381   -15573.73158622
  entropy T*S    EENTRO =        -0.00000000
  eigenvalues    EBANDS =      -505.22008354
  atomic energy  EATOM  =      1834.35599387
  ---------------------------------------------------
  free energy    TOTEN  =       -57.74102391 eV

  energy without entropy =      -57.74102391  energy(sigma->0) =      -57.74102391


--------------------------------------------------------------------------------------------------------




--------------------------------------- Iteration      1(  16)  ---------------------------------------


    POTLOK:  cpu time     10.6857: real time     10.6883
    SETDIJ:  cpu time      0.0665: real time      0.0665
    TRIAL :  cpu time      0.1416: real time      0.1416
    CORREC:  cpu time     10.8518: real time     10.8541
    CHARGE:  cpu time      0.0451: real time      0.0451
    --------------------------------------------
      LOOP:  cpu time     21.8056: real time     21.8273

 eigenvalue-minimisations  :     0
 total energy-change (2. order) :-0.5330184E-03  (-0.1800718E-03)
 number of electron      36.0000000 magnetization 
 augmentation part        0.1538682 magnetization 

 Free energy of the ion-electron system (eV)
  ---------------------------------------------------
  alpha Z        PSCENC =         0.34590649
  Ewald energy   TEWEN  =      2898.72375109
  -Hartree energ DENC   =     -4416.17769805
  -exchange      EXHF   =         0.00000000
  -V(xc)+E(xc)   XCENC  =       116.73764609
  PAW double counting   =     15583.07984445   -15569.67649020
  entropy T*S    EENTRO =        -0.00000000
  eigenvalues    EBANDS =      -505.13051066
  atomic energy  EATOM  =      1834.35599387
  ---------------------------------------------------
  free energy    TOTEN  =       -57.74155693 eV

  energy without entropy =      -57.74155693  energy(sigma->0) =      -57.74155693


--------------------------------------------------------------------------------------------------------




--------------------------------------- Iteration      1(  17)  ---------------------------------------


    POTLOK:  cpu time     10.7298: real time     10.7322
    SETDIJ:  cpu time      0.0666: real time      0.0666
    TRIAL :  cpu time      0.1440: real time      0.1440
    CORREC:  cpu time     10.7858: real time     10.7883
    CHARGE:  cpu time      0.0448: real time      0.0448
    --------------------------------------------
      LOOP:  cpu time     21.7840: real time     21.8071

 eigenvalue-minimisations  :     0
 total energy-change (2. order) :-0.1804551E-03  (-0.5788169E-04)
 number of electron      36.0000000 magnetization 
 augmentation part        0.1538513 magnetization 

 Free energy of the ion-electron system (eV)
  ---------------------------------------------------
  alpha Z        PSCENC =         0.34590649
  Ewald energy   TEWEN  =      2898.72375109
  -Hartree energ DENC   =     -4416.33996414
  -exchange      EXHF   =         0.00000000
  -V(xc)+E(xc)   XCENC  =       116.74412939
  PAW double counting   =     15571.35768186   -15557.95458666
  entropy T*S    EENTRO =        -0.00000000
  eigenvalues    EBANDS =      -504.97464927
  atomic energy  EATOM  =      1834.35599387
  ---------------------------------------------------
  free energy    TOTEN  =       -57.74173738 eV

  energy without entropy =      -57.74173738  energy(sigma->0) =      -57.74173738


--------------------------------------------------------------------------------------------------------




--------------------------------------- Iteration      1(  18)  ---------------------------------------


    POTLOK:  cpu time     10.6790: real time     10.6816
    SETDIJ:  cpu time      0.0665: real time      0.0665
    TRIAL :  cpu time      0.1411: real time      0.1411
    CORREC:  cpu time     10.8455: real time     10.8482
    CHARGE:  cpu time      0.0452: real time      0.0452
    --------------------------------------------
      LOOP:  cpu time     21.8080: real time     21.8136

 eigenvalue-minimisations  :     0
 total energy-change (2. order) :-0.5803772E-04  (-0.2067844E-04)
 number of electron      36.0000000 magnetization 
 augmentation part        0.1538460 magnetization 

 Free energy of the ion-electron system (eV)
  ---------------------------------------------------
  alpha Z        PSCENC =         0.34590649
  Ewald energy   TEWEN  =      2898.72375109
  -Hartree energ DENC   =     -4416.27639271
  -exchange      EXHF   =         0.00000000
  -V(xc)+E(xc)   XCENC  =       116.74264056
  PAW double counting   =     15567.70858973   -15554.30482078
  entropy T*S    EENTRO =        -0.00000000
  eigenvalues    EBANDS =      -505.03746366
  atomic energy  EATOM  =      1834.35599387
  ---------------------------------------------------
  free energy    TOTEN  =       -57.74179542 eV

  energy without entropy =      -57.74179542  energy(sigma->0) =      -57.74179542


--------------------------------------------------------------------------------------------------------




--------------------------------------- Iteration      1(  19)  ---------------------------------------


    POTLOK:  cpu time     10.7111: real time     10.7137
    SETDIJ:  cpu time      0.0665: real time      0.0665
    TRIAL :  cpu time      0.1432: real time      0.1432
    CORREC:  cpu time     10.9008: real time     10.9037
    CHARGE:  cpu time      0.0451: real time      0.0451
    --------------------------------------------
      LOOP:  cpu time     21.8964: real time     21.9023

 eigenvalue-minimisations  :     0
 total energy-change (2. order) :-0.2063009E-04  (-0.7975027E-05)
 number of electron      36.0000000 magnetization 
 augmentation part        0.1538270 magnetization 

 Free energy of the ion-electron system (eV)
  ---------------------------------------------------
  alpha Z        PSCENC =         0.34590649
  Ewald energy   TEWEN  =      2898.72375109
  -Hartree energ DENC   =     -4416.28641624
  -exchange      EXHF   =         0.00000000
  -V(xc)+E(xc)   XCENC  =       116.74339956
  PAW double counting   =     15568.93524618   -15555.53139595
  entropy T*S    EENTRO =        -0.00000000
  eigenvalues    EBANDS =      -505.02830104
  atomic energy  EATOM  =      1834.35599387
  ---------------------------------------------------
  free energy    TOTEN  =       -57.74181605 eV

  energy without entropy =      -57.74181605  energy(sigma->0) =      -57.74181605


--------------------------------------------------------------------------------------------------------




--------------------------------------- Iteration      1(  20)  ---------------------------------------


    POTLOK:  cpu time     10.6980: real time     10.7006
    SETDIJ:  cpu time      0.0664: real time      0.0666
    TRIAL :  cpu time      0.1411: real time      0.1411
    CORREC:  cpu time     10.8181: real time     10.8207
    CHARGE:  cpu time      0.0448: real time      0.0448
    --------------------------------------------
      LOOP:  cpu time     21.7878: real time     21.8045

 eigenvalue-minimisations  :     0
 total energy-change (2. order) :-0.7925228E-05  (-0.3020834E-05)
 number of electron      36.0000000 magnetization 
 augmentation part        0.1538165 magnetization 

 Free energy of the ion-electron system (eV)
  ---------------------------------------------------
  alpha Z        PSCENC =         0.34590649
  Ewald energy   TEWEN  =      2898.72375109
  -Hartree energ DENC   =     -4416.25787267
  -exchange      EXHF   =         0.00000000
  -V(xc)+E(xc)   XCENC  =       116.74255469
  PAW double counting   =     15570.87861691   -15557.47464258
  entropy T*S    EENTRO =        -0.00000000
  eigenvalues    EBANDS =      -505.05613177
  atomic energy  EATOM  =      1834.35599387
  ---------------------------------------------------
  free energy    TOTEN  =       -57.74182397 eV

  energy without entropy =      -57.74182397  energy(sigma->0) =      -57.74182397


--------------------------------------------------------------------------------------------------------




--------------------------------------- Iteration      1(  21)  ---------------------------------------


    POTLOK:  cpu time     10.6427: real time     10.6451
    SETDIJ:  cpu time      0.0666: real time      0.0666
    TRIAL :  cpu time      0.1414: real time      0.1414
    CORREC:  cpu time     10.7603: real time     10.7629
    CHARGE:  cpu time      0.0451: real time      0.0451
    --------------------------------------------
      LOOP:  cpu time     21.6678: real time     21.6918

 eigenvalue-minimisations  :     0
 total energy-change (2. order) :-0.2982602E-05  (-0.1128438E-05)
 number of electron      36.0000000 magnetization 
 augmentation part        0.1538156 magnetization 

 Free energy of the ion-electron system (eV)
  ---------------------------------------------------
  alpha Z        PSCENC =         0.34590649
  Ewald energy   TEWEN  =      2898.72375109
  -Hartree energ DENC   =     -4416.24069904
  -exchange      EXHF   =         0.00000000
  -V(xc)+E(xc)   XCENC  =       116.74196495
  PAW double counting   =     15571.50981451   -15558.10584176
  entropy T*S    EENTRO =        -0.00000000
  eigenvalues    EBANDS =      -505.07271706
  atomic energy  EATOM  =      1834.35599387
  ---------------------------------------------------
  free energy    TOTEN  =       -57.74182696 eV

  energy without entropy =      -57.74182696  energy(sigma->0) =      -57.74182696


--------------------------------------------------------------------------------------------------------




--------------------------------------- Iteration      1(  22)  ---------------------------------------


    POTLOK:  cpu time     10.6280: real time     10.6307
    SETDIJ:  cpu time      0.0669: real time      0.0669
    TRIAL :  cpu time      0.1410: real time      0.1410
    CORREC:  cpu time     10.8916: real time     10.8942
    CHARGE:  cpu time      0.0452: real time      0.0453
    --------------------------------------------
      LOOP:  cpu time     21.7880: real time     21.8098

 eigenvalue-minimisations  :     0
 total energy-change (2. order) :-0.1099428E-05  (-0.4102980E-06)
 number of electron      36.0000000 magnetization 
 augmentation part        0.1538112 magnetization 

 Free energy of the ion-electron system (eV)
  ---------------------------------------------------
  alpha Z        PSCENC =         0.34590649
  Ewald energy   TEWEN  =      2898.72375109
  -Hartree energ DENC   =     -4416.24182725
  -exchange      EXHF   =         0.00000000
  -V(xc)+E(xc)   XCENC  =       116.74194182
  PAW double counting   =     15571.15267878   -15557.74878857
  entropy T*S    EENTRO =        -0.00000000
  eigenvalues    EBANDS =      -505.07148429
  atomic energy  EATOM  =      1834.35599387
  ---------------------------------------------------
  free energy    TOTEN  =       -57.74182806 eV

  energy without entropy =      -57.74182806  energy(sigma->0) =      -57.74182806


--------------------------------------------------------------------------------------------------------




--------------------------------------- Iteration      1(  23)  ---------------------------------------


    POTLOK:  cpu time     10.6378: real time     10.6410
    SETDIJ:  cpu time      0.0664: real time      0.0664
    TRIAL :  cpu time      0.1431: real time      0.1431
    CORREC:  cpu time     10.7780: real time     10.7810
    CHARGE:  cpu time      0.0454: real time      0.0454
    --------------------------------------------
      LOOP:  cpu time     21.7012: real time     21.7079

 eigenvalue-minimisations  :     0
 total energy-change (2. order) :-0.4041503E-06  (-0.1825028E-06)
 number of electron      36.0000000 magnetization 
 augmentation part        0.1538132 magnetization 

 Free energy of the ion-electron system (eV)
  ---------------------------------------------------
  alpha Z        PSCENC =         0.34590649
  Ewald energy   TEWEN  =      2898.72375109
  -Hartree energ DENC   =     -4416.23512796
  -exchange      EXHF   =         0.00000000
  -V(xc)+E(xc)   XCENC  =       116.74163949
  PAW double counting   =     15570.71394835   -15557.31004864
  entropy T*S    EENTRO =        -0.00000000
  eigenvalues    EBANDS =      -505.07789114
  atomic energy  EATOM  =      1834.35599387
  ---------------------------------------------------
  free energy    TOTEN  =       -57.74182846 eV

  energy without entropy =      -57.74182846  energy(sigma->0) =      -57.74182846


--------------------------------------------------------------------------------------------------------




--------------------------------------- Iteration      1(  24)  ---------------------------------------


    POTLOK:  cpu time     10.6899: real time     10.6924
    SETDIJ:  cpu time      0.0665: real time      0.0667
    TRIAL :  cpu time      0.1420: real time      0.1420
    CORREC:  cpu time     10.7901: real time     10.7924
    CHARGE:  cpu time      0.0445: real time      0.0447
    --------------------------------------------
      LOOP:  cpu time     21.7463: real time     21.7686

 eigenvalue-minimisations  :     0
 total energy-change (2. order) :-0.1709905E-06  (-0.5851745E-07)
 number of electron      36.0000000 magnetization 
 augmentation part        0.1538111 magnetization 

 Free energy of the ion-electron system (eV)
  ---------------------------------------------------
  alpha Z        PSCENC =         0.34590649
  Ewald energy   TEWEN  =      2898.72375109
  -Hartree energ DENC   =     -4416.24314841
  -exchange      EXHF   =         0.00000000
  -V(xc)+E(xc)   XCENC  =       116.74188387
  PAW double counting   =     15570.52286937   -15557.11900775
  entropy T*S    EENTRO =        -0.00000000
  eigenvalues    EBANDS =      -505.07007715
  atomic energy  EATOM  =      1834.35599387
  ---------------------------------------------------
  free energy    TOTEN  =       -57.74182863 eV

  energy without entropy =      -57.74182863  energy(sigma->0) =      -57.74182863


--------------------------------------------------------------------------------------------------------




--------------------------------------- Iteration      1(  25)  ---------------------------------------


    POTLOK:  cpu time     10.7344: real time     10.7368
    SETDIJ:  cpu time      0.0666: real time      0.0666
    TRIAL :  cpu time      0.1413: real time      0.1416
    CORREC:  cpu time     10.8070: real time     10.8096
    EDDIAG:  cpu time      0.0727: real time      0.0734
    CHARGE:  cpu time      0.0454: real time      0.0454
    --------------------------------------------
      LOOP:  cpu time     21.8833: real time     21.9038

 eigenvalue-minimisations  :     0
 total energy-change (2. order) :-0.5941001E-07  (-0.2785576E-07)
 number of electron      36.0000000 magnetization 
 augmentation part        0.1538119 magnetization 

 Free energy of the ion-electron system (eV)
  ---------------------------------------------------
  alpha Z        PSCENC =         0.34590649
  Ewald energy   TEWEN  =      2898.72375109
  -Hartree energ DENC   =     -4416.24029071
  -exchange      EXHF   =         0.00000000
  -V(xc)+E(xc)   XCENC  =       116.74176885
  PAW double counting   =     15570.59052567   -15557.18663253
  entropy T*S    EENTRO =        -0.00000000
  eigenvalues    EBANDS =      -505.07285141
  atomic energy  EATOM  =      1834.35599387
  ---------------------------------------------------
  free energy    TOTEN  =       -57.74182869 eV

  energy without entropy =      -57.74182869  energy(sigma->0) =      -57.74182869


--------------------------------------------------------------------------------------------------------


  average scaling for gradient   1.0067


 average (electrostatic) potential at core
  the test charge radii are     0.5770  0.4325  0.5955
  (the norm of the test charge is              1.0000)
       1 -89.6949       2 -89.6946       3 -89.6940       4 -47.0926       5 -46.9451
       6 -47.0931       7 -47.0920       8 -46.9441       9 -46.9451      10-120.5189
      11-120.5173      12-120.5183



 E-fermi :  -6.8327     XC(G=0):  -0.1929     alpha+bet : -0.0680

 Fermi energy:        -6.8327103097

 k-point     1 :       0.0000    0.0000    0.0000
  band No.  band energies     occupation 
      1     -28.1482      2.00000
      2     -25.8207      2.00000
      3     -25.8193      2.00000
      4     -18.0084      2.00000
      5     -18.0069      2.00000
      6     -15.1815      2.00000
      7     -13.4643      2.00000
      8     -13.3262      2.00000
      9     -12.2013      2.00000
     10     -12.2008      2.00000
     11     -11.0580      2.00000
     12     -10.7605      2.00000
     13     -10.7600      2.00000
     14      -8.3552      2.00000
     15      -8.3531      2.00000
     16      -7.0843      2.00000
     17      -7.0827      2.00000
     18      -6.9044      2.00000
     19      -0.9732      0.00000
     20      -0.4245      0.00000
     21      -0.4025      0.00000
     22      -0.4022      0.00000
     23       0.0878      0.00000
     24       0.1277      0.00000
     25       0.1462      0.00000
     26       0.2970      0.00000
     27       0.3628      0.00000
     28       0.4014      0.00000


--------------------------------------------------------------------------------------------------------


 soft charge-density along one line, spin component           1
         0         1         2         3         4         5         6         7         8         9
 total charge-density along one line

 pseudopotential strength for first ion, spin component:           1
 12.804  21.552   0.008   0.012   0.010   0.015   0.021   0.017
 21.552  36.275   0.014   0.019   0.016   0.025   0.035   0.029
  0.008   0.014  -3.220  -0.006   0.003  -5.775  -0.010   0.005
  0.012   0.019  -0.006  -3.226   0.003  -0.010  -5.786   0.004
  0.010   0.016   0.003   0.003  -3.232   0.005   0.004  -5.796
  0.015   0.025  -5.775  -0.010   0.005 -10.334  -0.018   0.008
  0.021   0.035  -0.010  -5.786   0.004  -0.018 -10.354   0.008
  0.017   0.029   0.005   0.004  -5.796   0.008   0.008 -10.373
 total augmentation occupancy for first ion, spin component:           1
  6.554  -2.227   0.268   0.423   0.344  -0.158  -0.248  -0.201
 -2.227   0.831  -0.205  -0.322  -0.261   0.099   0.158   0.128
  0.268  -0.205   5.109   0.137  -0.055  -1.527  -0.149   0.069
  0.423  -0.322   0.137   5.085  -0.147  -0.150  -1.617   0.110
  0.344  -0.261  -0.055  -0.147   5.341   0.069   0.110  -1.829
 -0.158   0.099  -1.527  -0.150   0.069   0.473   0.085  -0.042
 -0.248   0.158  -0.149  -1.617   0.110   0.085   0.534  -0.061
 -0.201   0.128   0.069   0.110  -1.829  -0.042  -0.061   0.651


------------------------ aborting loop because EDIFF is reached ----------------------------------------


    FORLOC:  cpu time      0.0260: real time      0.0260
    FORNL :  cpu time      0.0207: real time      0.0211
    FORCOR:  cpu time     11.1451: real time     11.1476
    OFIELD:  cpu time      0.0041: real time      0.0049

 VOLUME and BASIS-vectors are now :
 -----------------------------------------------------------------------------
  energy-cutoff  :     1000.00
  volume of cell :    10648.00
      direct lattice vectors                 reciprocal lattice vectors
    22.000000000  0.000000000  0.000000000     0.045454545  0.000000000  0.000000000
     0.000000000 22.000000000  0.000000000     0.000000000  0.045454545  0.000000000
     0.000000000  0.000000000 22.000000000     0.000000000  0.000000000  0.045454545

  length of vectors
    22.000000000 22.000000000 22.000000000     0.045454545  0.045454545  0.045454545


 FORCES acting on ions:
    Electron-Ion                     Ewald-Force                    Non-Local-Force
 -----------------------------------------------------------------------------------------------
   0.141E+03 0.171E+03 0.131E+03   -.147E+03 -.176E+03 -.139E+03   0.629E+01 0.523E+01 0.757E+01
   -.211E+03 -.683E+02 0.131E+03   0.218E+03 0.722E+02 -.139E+03   -.717E+01 -.393E+01 0.757E+01
   0.140E+03 -.206E+03 -.655E+02   -.147E+03 0.215E+03 0.655E+02   0.628E+01 -.921E+01 0.192E-01
   -.968E+02 -.348E+01 0.686E+01   0.103E+03 0.322E+01 -.636E+01   -.615E+01 0.269E+00 -.506E+00
   0.450E+02 -.609E+01 0.845E+02   -.468E+02 0.833E+01 -.894E+02   0.186E+01 -.227E+01 0.490E+01
   0.386E+02 0.889E+02 0.690E+01   -.406E+02 -.947E+02 -.640E+01   0.199E+01 0.582E+01 -.501E+00
   0.385E+02 -.564E+02 -.691E+02   -.405E+02 0.594E+02 0.742E+02   0.198E+01 -.291E+01 -.507E+01
   0.450E+02 -.659E+02 0.532E+02   -.469E+02 0.686E+02 -.579E+02   0.186E+01 -.272E+01 0.466E+01
   -.108E+02 -.440E+02 0.845E+02   0.936E+01 0.466E+02 -.894E+02   0.144E+01 -.256E+01 0.490E+01
   -.211E+03 0.310E+03 0.898E+02   0.239E+03 -.350E+03 -.866E+02   -.275E+02 0.404E+02 -.322E+01
   -.211E+03 -.251E+03 -.202E+03   0.239E+03 0.271E+03 0.237E+03   -.276E+02 -.205E+02 -.349E+02
   0.310E+03 0.105E+03 -.202E+03   -.340E+03 -.124E+03 0.237E+03   0.291E+02 0.182E+02 -.349E+02
 -----------------------------------------------------------------------------------------------
   0.176E+02 -.258E+02 0.495E+02   0.000E+00 0.114E-12 -.568E-13   -.176E+02 0.258E+02 -.495E+02


 POSITION                                       TOTAL-FORCE (eV/Angst)
 -----------------------------------------------------------------------------------
      9.75943     10.23302     10.48981        -0.247979     -0.245181     -0.271506
     11.66973     11.53522     10.48910         0.317509      0.144029     -0.266645
      9.76112     12.28260     11.55955        -0.247784      0.364833      0.048236
     12.75629     11.48691     10.57995        -0.006405      0.005432     -0.008722
      9.41113     10.69645      9.54435        -0.014745     -0.041037      0.003454
      9.40758      9.20383     10.57990        -0.004077      0.008103     -0.006140
      9.41107     12.79617     12.45662        -0.002825      0.006983     -0.010865
      9.41144     12.79398     10.63978        -0.014817      0.022475      0.033927
     11.36588     12.02819      9.54338         0.043371     -0.000579      0.000268
     11.17738     10.20523     10.50814         0.234799     -0.341521     -0.036641
     11.17926     12.28296     11.59037         0.232481      0.215771      0.258147
      9.24371     10.96230     11.59172        -0.289529     -0.139308      0.256487
 -----------------------------------------------------------------------------------
    total drift:                               -0.000462      0.000110     -0.000526


--------------------------------------------------------------------------------------------------------



  FREE ENERGIE OF THE ION-ELECTRON SYSTEM (eV)
  ---------------------------------------------------
  free  energy   TOTEN  =       -57.74182869 eV

  energy  without entropy=      -57.74182869  energy(sigma->0) =      -57.74182869



--------------------------------------------------------------------------------------------------------


    POTLOK:  cpu time     10.7391: real time     10.7423


--------------------------------------------------------------------------------------------------------


 stress matrix after NEB project (eV)
      0.00000      0.00000      0.00000
      0.00000      0.00000      0.00000
      0.00000      0.00000      0.00000
  FORCES: max atom, RMS     0.443651    0.302805
  FORCE total and by dimension    1.048947    0.364833
  Stress total and by dimension    0.000000    0.000000
     LOOP+:  cpu time    471.6361: real time    472.0429
    4ORBIT:  cpu time      0.0000: real time      0.0000

 total amount of memory used by VASP MPI-rank0    61950. kBytes
=======================================================================

   base      :      30000. kBytes
   nonl-proj :       1145. kBytes
   fftplans  :      10395. kBytes
   grid      :      19407. kBytes
   one-center:          1. kBytes
   wavefun   :       1002. kBytes

  
  
 General timing and accounting informations for this job:
 ========================================================
  
                  Total CPU time used (sec):      524.177
                            User time (sec):      517.939
                          System time (sec):        6.239
                         Elapsed time (sec):      543.803
  
                   Maximum memory used (kb):      456844.
                   Average memory used (kb):          N/A
  
                          Minor page faults:       322177
                          Major page faults:          295
                 Voluntary context switches:        11466
