 vasp.6.4.1 05Apr23 (build Jun  6 2023 14:46:38) gamma-only                      
 executed on        HPECrayEX_GCC date 2024.08.22  07:06:20
 running  512 mpi-ranks, with    1 threads/rank, on    4 nodes
 distrk:  each k-point on  256 cores,    2 groups
 distr:  one band on NCORE=  32 cores,    8 groups


--------------------------------------------------------------------------------------------------------


 INCAR:
   ALGO = Conjugate
   KPAR = 2
   NCORE = 32
   ISMEAR = 0
   SIGMA = 0.01
   PREC = Accurate
   EDIFF = 1E-7
   ENCUT = 1000
   ISIF = 0
   GGA = RE
   IVDW = 11
   LWAVE = .FALSE.
   LCHARG = .FALSE.
   SYMPREC = 1E-7
   LWAVE = .FALSE.
   LCHARG = .FALSE.

 POTCAR:    PAW_PBE C_h 06Feb2004                 
 POTCAR:    PAW_PBE H_h 06Feb2004                 
 POTCAR:    PAW_PBE O_h 06Feb2004                 
 POTCAR:    PAW_PBE C_h 06Feb2004                 
   VRHFIN =C: s2p2                                                                                  
   LEXCH  = PE                                                                                      
   EATOM  =   147.1560 eV,   10.8157 Ry                                                             
                                                                                                    
   TITEL  = PAW_PBE C_h 06Feb2004                                                                   
   LULTRA =        F    use ultrasoft PP ?                                                          
   IUNSCR =        1    unscreen: 0-lin 1-nonlin 2-no                                               
   RPACOR =    0.800    partial core radius                                                         
   POMASS =   12.011; ZVAL   =    4.000    mass and valenz                                          
   RCORE  =    1.100    outmost cutoff radius                                                       
   RWIGS  =    1.630; RWIGS  =    0.863    wigner-seitz radius (au A)                               
   ENMAX  =  700.000; ENMIN  =  500.000 eV                                                          
   ICORE  =        2    local potential                                                             
   LCOR   =        T    correct aug charges                                                         
   LPAW   =        T    paw PP                                                                      
   EAUG   =  946.768                                                                                
   DEXC   =    0.000                                                                                
   RMAX   =    1.128    core radius for proj-oper                                                   
   RAUG   =    1.300    factor for augmentation sphere                                              
   RDEP   =    1.162    radius for radial grids                                                     
   RDEPT  =    1.088    core radius for aug-charge                                                  
                                                                                                    
   Atomic configuration                                                                             
    4 entries                                                                                       
     n  l   j            E        occ.                                                              
     1  0  0.50      -273.3789   2.0000                                                             
     2  0  0.50       -13.7508   2.0000                                                             
     2  1  0.50        -5.2854   2.0000                                                             
     3  2  1.50        -5.4423   0.0000                                                             
   Description                                                                                      
     l       E           TYP  RCUT    TYP  RCUT                                                     
     0    -13.7508458     23  1.100                                                                 
     0     -8.2022199     23  1.100                                                                 
     1     -5.2854383     23  1.100                                                                 
     1      1.1560700     23  1.100                                                                 
     2     -5.4423304      7  1.100                                                                 
  local pseudopotential read in
  partial core-charges read in
  partial kinetic energy density read in
  atomic valenz-charges read in
  non local Contribution for L=           0  read in
    real space projection operators read in
  non local Contribution for L=           0  read in
    real space projection operators read in
  non local Contribution for L=           1  read in
    real space projection operators read in
  non local Contribution for L=           1  read in
    real space projection operators read in
    PAW grid and wavefunctions read in

   number of l-projection  operators is LMAX  =           4
   number of lm-projection operators is LMMAX =           8

 POTCAR:    PAW_PBE H_h 06Feb2004                 
   VRHFIN =H: ultrasoft test                                                                        
   LEXCH  = PE                                                                                      
   EATOM  =    12.4884 eV,    0.9179 Ry                                                             
                                                                                                    
   TITEL  = PAW_PBE H_h 06Feb2004                                                                   
   LULTRA =        F    use ultrasoft PP ?                                                          
   IUNSCR =        0    unscreen: 0-lin 1-nonlin 2-no                                               
   RPACOR =    0.000    partial core radius                                                         
   POMASS =    1.000; ZVAL   =    1.000    mass and valenz                                          
   RCORE  =    0.800    outmost cutoff radius                                                       
   RWIGS  =    0.700; RWIGS  =    0.370    wigner-seitz radius (au A)                               
   ENMAX  =  700.000; ENMIN  =  350.000 eV                                                          
   RCLOC  =    0.701    cutoff for local pot                                                        
   LCOR   =        T    correct aug charges                                                         
   LPAW   =        T    paw PP                                                                      
   EAUG   = 1000.000                                                                                
   RMAX   =    0.819    core radius for proj-oper                                                   
   RAUG   =    1.000    factor for augmentation sphere                                              
   RDEP   =    0.817    radius for radial grids                                                     
   RDEPT  =    0.817    core radius for aug-charge                                                  
                                                                                                    
   Atomic configuration                                                                             
    2 entries                                                                                       
     n  l   j            E        occ.                                                              
     1  0  0.50        -6.4927   1.0000                                                             
     2  1  0.50        -3.4015   0.0000                                                             
   Description                                                                                      
     l       E           TYP  RCUT    TYP  RCUT                                                     
     0     -6.4927493     23  0.800                                                                 
     0      6.8029130     23  0.800                                                                 
     1     -6.8029130     23  0.800                                                                 
  local pseudopotential read in
  atomic valenz-charges read in
  non local Contribution for L=           0  read in
    real space projection operators read in
  non local Contribution for L=           0  read in
    real space projection operators read in
  non local Contribution for L=           1  read in
    real space projection operators read in
    PAW grid and wavefunctions read in

   number of l-projection  operators is LMAX  =           3
   number of lm-projection operators is LMMAX =           5

 POTCAR:    PAW_PBE O_h 06Feb2004                 
   VRHFIN =O: s2p4                                                                                  
   LEXCH  = PE                                                                                      
   EATOM  =   432.3788 eV,   31.7789 Ry                                                             
                                                                                                    
   TITEL  = PAW_PBE O_h 06Feb2004                                                                   
   LULTRA =        F    use ultrasoft PP ?                                                          
   IUNSCR =        1    unscreen: 0-lin 1-nonlin 2-no                                               
   RPACOR =    0.800    partial core radius                                                         
   POMASS =   16.000; ZVAL   =    6.000    mass and valenz                                          
   RCORE  =    1.100    outmost cutoff radius                                                       
   RWIGS  =    1.400; RWIGS  =    0.741    wigner-seitz radius (au A)                               
   ENMAX  =  700.000; ENMIN  =  500.000 eV                                                          
   ICORE  =        2    local potential                                                             
   LCOR   =        T    correct aug charges                                                         
   LPAW   =        T    paw PP                                                                      
   EAUG   =  888.804                                                                                
   DEXC   =    0.000                                                                                
   RMAX   =    1.128    core radius for proj-oper                                                   
   RAUG   =    1.300    factor for augmentation sphere                                              
   RDEP   =    1.125    radius for radial grids                                                     
   RDEPT  =    1.088    core radius for aug-charge                                                  
                                                                                                    
   Atomic configuration                                                                             
    4 entries                                                                                       
     n  l   j            E        occ.                                                              
     1  0  0.50      -514.6923   2.0000                                                             
     2  0  0.50       -23.9615   2.0000                                                             
     2  1  0.50        -9.0305   4.0000                                                             
     3  2  1.50        -9.5241   0.0000                                                             
   Description                                                                                      
     l       E           TYP  RCUT    TYP  RCUT                                                     
     0    -23.9615319     23  1.100                                                                 
     0    -25.3221145     23  1.100                                                                 
     1     -9.0304911     23  1.100                                                                 
     1     -5.4802209     23  1.100                                                                 
     2     -9.5240782      7  1.100                                                                 
  local pseudopotential read in
  partial core-charges read in
  partial kinetic energy density read in
  atomic valenz-charges read in
  non local Contribution for L=           0  read in
    real space projection operators read in
  non local Contribution for L=           0  read in
    real space projection operators read in
  non local Contribution for L=           1  read in
    real space projection operators read in
  non local Contribution for L=           1  read in
    real space projection operators read in
    PAW grid and wavefunctions read in

   number of l-projection  operators is LMAX  =           4
   number of lm-projection operators is LMMAX =           8

 -----------------------------------------------------------------------------
|                                                                             |
|               ----> ADVICE to this user running VASP <----                  |
|                                                                             |
|     You enforced a specific xc type in the INCAR file but a different       |
|     type was found in the POTCAR file.                                      |
|     I HOPE YOU KNOW WHAT YOU ARE DOING!                                     |
|                                                                             |
 -----------------------------------------------------------------------------

  PAW_PBE C_h 06Feb2004                 :
 energy of atom  1       EATOM= -147.1560
 kinetic energy error for atom=    0.0031 (will be added to EATOM!!)
  PAW_PBE H_h 06Feb2004                 :
 energy of atom  2       EATOM=  -12.4884
 kinetic energy error for atom=    0.0006 (will be added to EATOM!!)
  PAW_PBE O_h 06Feb2004                 :
 energy of atom  3       EATOM= -432.3788
 kinetic energy error for atom=    0.0171 (will be added to EATOM!!)


 POSCAR:  C  H  O
  positions in cartesian coordinates
  No initial velocities read in
 exchange correlation table for  LEXCH =       40
   RHO(1)=    0.500       N(1)  =     2000
   RHO(2)=  100.500       N(2)  =     4000

 VTST: version 4.1, (05/19/21)

 CHAIN: initializing optimizer
 
 OPT: Using VASP Dynamics algorithm
 CHAIN: Read ICHAIN            0

 POSCAR:  C  H  O
  positions in cartesian coordinates
  No initial velocities read in



--------------------------------------------------------------------------------------------------------


 ion  position               nearest neighbor table
   1  0.444  0.465  0.477-   6 1.09   5 1.11  10 1.42  12 1.42
   2  0.530  0.524  0.477-   4 1.09   9 1.11  10 1.42  11 1.42
   3  0.444  0.558  0.525-   7 1.09   8 1.11  12 1.42  11 1.42
   4  0.580  0.522  0.481-   2 1.09
   5  0.428  0.486  0.434-   1 1.11
   6  0.428  0.418  0.481-   1 1.09
   7  0.428  0.582  0.566-   3 1.09
   8  0.428  0.582  0.484-   3 1.11
   9  0.517  0.547  0.434-   2 1.11
  10  0.508  0.464  0.478-   1 1.42   2 1.42
  11  0.508  0.558  0.527-   3 1.42   2 1.42
  12  0.420  0.498  0.527-   3 1.42   1 1.42

  LATTYP: Found a simple cubic cell.
 ALAT       =    22.0000000000
  
  Lattice vectors:
  
 A1 = (  22.0000000000,   0.0000000000,   0.0000000000)
 A2 = (   0.0000000000,  22.0000000000,   0.0000000000)
 A3 = (   0.0000000000,   0.0000000000,  22.0000000000)


Analysis of symmetry for initial positions (statically):
=====================================================================
 Subroutine PRICEL returns:
 Original cell was already a primitive cell.
 

 Routine SETGRP: Setting up the symmetry group for a 
 simple cubic supercell.


 Subroutine GETGRP returns: Found  1 space group operations
 (whereof  1 operations were pure point group operations)
 out of a pool of 48 trial point group operations.


The static configuration has the point symmetry C_1 .


Analysis of symmetry for dynamics (positions and initial velocities):
=====================================================================
 Subroutine PRICEL returns:
 Original cell was already a primitive cell.
 

 Routine SETGRP: Setting up the symmetry group for a 
 simple cubic supercell.


 Subroutine GETGRP returns: Found  1 space group operations
 (whereof  1 operations were pure point group operations)
 out of a pool of 48 trial point group operations.


The dynamic configuration has the point symmetry C_1 .


 Subroutine INISYM returns: Found  1 space group operations
 (whereof  1 operations are pure point group operations),
 and found     1 'primitive' translations


----------------------------------------------------------------------------------------

                                     Primitive cell                                     

  volume of cell :   10648.0000

  direct lattice vectors                    reciprocal lattice vectors
    22.000000000  0.000000000  0.000000000     0.045454545  0.000000000  0.000000000
     0.000000000 22.000000000  0.000000000     0.000000000  0.045454545  0.000000000
     0.000000000  0.000000000 22.000000000     0.000000000  0.000000000  0.045454545

  length of vectors
    22.000000000 22.000000000 22.000000000     0.045454545  0.045454545  0.045454545

  position of ions in fractional coordinates (direct lattice)
     0.443610682  0.465137045  0.476809773
     0.530442500  0.524328409  0.476777045
     0.443687045  0.558299773  0.525434318
     0.579831136  0.522132045  0.480906591
     0.427778409  0.486202500  0.433834318
     0.427617045  0.418355682  0.480904773
     0.427776136  0.581644318  0.566210227
     0.427792955  0.581544773  0.483626136
     0.516631136  0.546735682  0.433789773
     0.508062500  0.463873864  0.477642500
     0.508148409  0.558316136  0.526835227
     0.420168864  0.498286591  0.526896591

  ion indices of the primitive-cell ions
   primitive index   ion index
                 1           1
                 2           2
                 3           3
                 4           4
                 5           5
                 6           6
                 7           7
                 8           8
                 9           9
                10          10
                11          11
                12          12

----------------------------------------------------------------------------------------



 KPOINTS: auto                                    

Automatic generation of k-mesh.
 Grid dimensions read from file:
 generate k-points for:    1    1    1

 Generating k-lattice:

  Cartesian coordinates                     Fractional coordinates (reciprocal lattice)
     0.045454545  0.000000000  0.000000000     1.000000000  0.000000000  0.000000000
     0.000000000  0.045454545  0.000000000     0.000000000  1.000000000  0.000000000
     0.000000000  0.000000000  0.045454545     0.000000000  0.000000000  1.000000000

  Length of vectors
     0.045454545  0.045454545  0.045454545

  Shift w.r.t. Gamma in fractional coordinates (k-lattice)
     0.000000000  0.000000000  0.000000000

 
 Subroutine IBZKPT returns following result:
 ===========================================
 
 Found      1 irreducible k-points:
 
 Following reciprocal coordinates:
            Coordinates               Weight
  0.000000  0.000000  0.000000      1.000000
 
 Following cartesian coordinates:
            Coordinates               Weight
  0.000000  0.000000  0.000000      1.000000
 


--------------------------------------------------------------------------------------------------------




 Dimension of arrays:
   k-points           NKPTS =      1   k-points in BZ     NKDIM =      1   number of bands    NBANDS=     32
   number of dos      NEDOS =    301   number of ions     NIONS =     12
   non local maximal  LDIM  =      4   non local SUM 2l+1 LMDIM =      8
   total plane-waves  NPLWV = ******
   max r-space proj   IRMAX =      1   max aug-charges    IRDMAX=   9667
   dimension x,y,z NGX =   240 NGY =  240 NGZ =  240
   dimension x,y,z NGXF=   480 NGYF=  480 NGZF=  480
   support grid    NGXF=   480 NGYF=  480 NGZF=  480
   ions per type =               3   6   3
   NGX,Y,Z   is equivalent  to a cutoff of  18.14, 18.14, 18.14 a.u.
   NGXF,Y,Z  is equivalent  to a cutoff of  36.27, 36.27, 36.27 a.u.

 SYSTEM =  unknown system                          
 POSCAR =   C  H  O                                

 Startparameter for this run:
   NWRITE =      2    write-flag & timer
   PREC   = accura    normal or accurate (medium, high low for compatibility)
   ISTART =      0    job   : 0-new  1-cont  2-samecut
   ICHARG =      2    charge: 1-file 2-atom 10-const
   ISPIN  =      1    spin polarized calculation?
   LNONCOLLINEAR =      F non collinear calculations
   LSORBIT =      F    spin-orbit coupling
   INIWAV =      1    electr: 0-lowe 1-rand  2-diag
   LASPH  =      F    aspherical Exc in radial PAW
 Electronic Relaxation 1
   ENCUT  = 1000.0 eV  73.50 Ry    8.57 a.u.  56.73 56.73 56.73*2*pi/ulx,y,z
   ENINI  = 1000.0     initial cutoff
   ENAUG  = 1000.0 eV  augmentation charge cutoff
   NELM   =     60;   NELMIN=  2; NELMDL= -5     # of ELM steps 
   EDIFF  = 0.1E-06   stopping-criterion for ELM
   LREAL  =      F    real-space projection
   NLSPLINE    = F    spline interpolate recip. space projectors
   LCOMPAT=      F    compatible to vasp.4.4
   GGA_COMPAT  = T    GGA compatible to vasp.4.4-vasp.4.6
   LMAXPAW     = -100 max onsite density
   LMAXMIX     =    2 max onsite mixed and CHGCAR
   VOSKOWN=      0    Vosko Wilk Nusair interpolation
   ROPT   =    0.00000   0.00000   0.00000
 Ionic relaxation
   EDIFFG = 0.1E-05   stopping-criterion for IOM
   NSW    =      0    number of steps for IOM
   NBLOCK =      1;   KBLOCK =      1    inner block; outer block 
   IBRION =     -1    ionic relax: 0-MD 1-quasi-New 2-CG
   NFREE  =      0    steps in history (QN), initial steepest desc. (CG)
   ISIF   =      0    stress and relaxation
   IWAVPR =     10    prediction:  0-non 1-charg 2-wave 3-comb
   ISYM   =      2    0-nonsym 1-usesym 2-fastsym
   LCORR  =      T    Harris-Foulkes like correction to forces

   POTIM  = 0.5000    time-step for ionic-motion
   TEIN   =    0.0    initial temperature
   TEBEG  =    0.0;   TEEND  =   0.0 temperature during run
   SMASS  =  -3.00    Nose mass-parameter (am)
   estimated Nose-frequenzy (Omega)   =  0.10E-29 period in steps = 0.13E+47 mass=  -0.111E-25a.u.
   SCALEE = 1.0000    scale energy and forces
   NPACO  =    256;   APACO  = 10.0  distance and # of slots for P.C.
   PSTRESS=    0.0 pullay stress

  Mass of Ions in am
   POMASS =  12.01  1.00 16.00
  Ionic Valenz
   ZVAL   =   4.00  1.00  6.00
  Atomic Wigner-Seitz radii
   RWIGS  =  -1.00 -1.00 -1.00
  virtual crystal weights 
   VCA    =   1.00  1.00  1.00
   NELECT =      36.0000    total number of electrons
   NUPDOWN=      -1.0000    fix difference up-down

 DOS related values:
   EMIN   =  10.00;   EMAX   =-10.00  energy-range for DOS
   EFERMI =   0.00;   METHOD = LEGACY      
   ISMEAR =     0;   SIGMA  =   0.01  broadening in eV -4-tet -1-fermi 0-gaus

 Electronic relaxation 2 (details)
   IALGO  =     58    algorithm
   LDIAG  =      T    sub-space diagonalisation (order eigenvalues)
   LSUBROT=      F    optimize rotation matrix (better conditioning)
   TURBO    =      0    0=normal 1=particle mesh
   IRESTART =      0    0=no restart 2=restart with 2 vectors
   NREBOOT  =      0    no. of reboots
   NMIN     =      0    reboot dimension
   EREF     =   0.00    reference energy to select bands
   IMIX   =      4    mixing-type and parameters
     AMIX     =   0.40;   BMIX     =  1.00
     AMIX_MAG =   1.60;   BMIX_MAG =  1.00
     AMIN     =   0.10
     WC   =   100.;   INIMIX=   1;  MIXPRE=   1;  MAXMIX= -45

 Intra band minimization:
   WEIMIN = 0.0000     energy-eigenvalue tresh-hold
   EBREAK =  0.78E-09  absolut break condition
   DEPER  =   0.30     relativ break condition  

   TIME   =   0.40     timestep for ELM

  volume/ion in A,a.u.               =     887.33      5988.02
  Fermi-wavevector in a.u.,A,eV,Ry     =   0.245708  0.464321  0.821418  0.060373
  Thomas-Fermi vector in A             =   1.056973

 Write flags
   LWAVE        =      F    write WAVECAR
   LDOWNSAMPLE  =      F    k-point downsampling of WAVECAR
   LCHARG       =      F    write CHGCAR
   LVTOT        =      F    write LOCPOT, total local potential
   LVHAR        =      F    write LOCPOT, Hartree potential only
   LELF         =      F    write electronic localiz. function (ELF)
   LORBIT       =      0    0 simple, 1 ext, 2 COOP (PROOUT), +10 PAW based schemes


 Dipole corrections
   LMONO  =      F    monopole corrections only (constant potential shift)
   LDIPOL =      F    correct potential (dipole corrections)
   IDIPOL =      0    1-x, 2-y, 3-z, 4-all directions 
   EPSILON=  1.0000000 bulk dielectric constant

 Exchange correlation treatment:
   GGA     =    RE    GGA type
   LEXCH   =    40    internal setting for exchange type
   LIBXC   =     F    Libxc                    
   VOSKOWN =     0    Vosko Wilk Nusair interpolation
   LHFCALC =     F    Hartree Fock is set to
   LHFONE  =     F    Hartree Fock one center treatment
   AEXX    =    0.0000 exact exchange contribution

 Linear response parameters
   LEPSILON=     F    determine dielectric tensor
   LRPA    =     F    only Hartree local field effects (RPA)
   LNABLA  =     F    use nabla operator in PAW spheres
   LVEL    =     F    velocity operator in full k-point grid
   CSHIFT  =0.1000    complex shift for real part using Kramers Kronig
   OMEGAMAX=  -1.0    maximum frequency
   DEG_THRESHOLD= 0.2000000E-02 threshold for treating states as degnerate
   RTIME   =   -0.100 relaxation time in fs
  (WPLASMAI=    0.000 imaginary part of plasma frequency in eV, 0.658/RTIME)
   DFIELD  = 0.0000000 0.0000000 0.0000000 field for delta impulse in time

  Optional k-point grid parameters
   LKPOINTS_OPT  =     F    use optional k-point grid
   KPOINTS_OPT_MODE=     1    mode for optional k-point grid

 Orbital magnetization related:
   ORBITALMAG=     F  switch on orbital magnetization
   LCHIMAG   =     F  perturbation theory with respect to B field
   DQ        =  0.001000  dq finite difference perturbation B field
   LLRAUG    =     F  two centre corrections for induced B field
   LBONE     =     F  B-component reconstruction in AE one-centre
   LVGVCALC  =     T  calculate vGv susceptibility
   LVGVAPPL  =     F  apply vGv susceptibility instead of pGv for G=0

 Random number generation:
   RANDOM_GENERATOR = DEFAULT
   PCG_SEED         = not used


--------------------------------------------------------------------------------------------------------


 Static calculation
 charge density and potential will be updated during run
 non-spin polarized calculation
 Conjugate gradient for all bands (Freysoldt, et al. PRB 79, 241103 (2009))
 preconditioned conjugated gradient                                        
 perform sub-space diagonalisation
    before iterative eigenvector-optimisation
 modified Broyden-mixing scheme, WC =      100.0
 initial mixing is a Kerker type mixing with AMIX =  0.4000 and BMIX =      1.0000
 Hartree-type preconditioning will be used
 using additional bands           14
 reciprocal scheme for non local part
 use partial core corrections
 no Harris-corrections to forces 
 use gradient corrections 
 use of overlap-Matrix (Vanderbilt PP)
 Gauss-broadening in eV      SIGMA  =   0.01


--------------------------------------------------------------------------------------------------------


  energy-cutoff  :     1000.00
  volume of cell :    10648.00
      direct lattice vectors                 reciprocal lattice vectors
    22.000000000  0.000000000  0.000000000     0.045454545  0.000000000  0.000000000
     0.000000000 22.000000000  0.000000000     0.000000000  0.045454545  0.000000000
     0.000000000  0.000000000 22.000000000     0.000000000  0.000000000  0.045454545

  length of vectors
    22.000000000 22.000000000 22.000000000     0.045454545  0.045454545  0.045454545



 k-points in units of 2pi/SCALE and weight: auto                                    
   0.00000000  0.00000000  0.00000000       1.000

 k-points in reciprocal lattice and weights: auto                                    
   0.00000000  0.00000000  0.00000000       1.000

 position of ions in fractional coordinates (direct lattice) 
   0.44361068  0.46513705  0.47680977
   0.53044250  0.52432841  0.47677705
   0.44368705  0.55829977  0.52543432
   0.57983114  0.52213205  0.48090659
   0.42777841  0.48620250  0.43383432
   0.42761705  0.41835568  0.48090477
   0.42777614  0.58164432  0.56621023
   0.42779295  0.58154477  0.48362614
   0.51663114  0.54673568  0.43378977
   0.50806250  0.46387386  0.47764250
   0.50814841  0.55831614  0.52683523
   0.42016886  0.49828659  0.52689659

 position of ions in cartesian coordinates  (Angst):
   9.75943500 10.23301500 10.48981500
  11.66973500 11.53522500 10.48909500
   9.76111500 12.28259500 11.55955500
  12.75628500 11.48690500 10.57994500
   9.41112500 10.69645500  9.54435500
   9.40757500  9.20382500 10.57990500
   9.41107500 12.79617500 12.45662500
   9.41144500 12.79398500 10.63977500
  11.36588500 12.02818500  9.54337500
  11.17737500 10.20522500 10.50813500
  11.17926500 12.28295500 11.59037500
   9.24371500 10.96230500 11.59172500



--------------------------------------------------------------------------------------------------------


 use parallel FFT for orbitals z direction half grid
 k-point   1 :   0.0000 0.0000 0.0000  plane waves:  381993

 maximum and minimum number of plane-waves per node :     11948    11928

 maximum number of plane-waves:    381993
 maximum index in each direction: 
   IXMAX=   56   IYMAX=   56   IZMAX=   56
   IXMIN=  -56   IYMIN=  -56   IZMIN=    0


 parallel 3D FFT for wavefunctions:
    minimum data exchange during FFTs selected (reduces bandwidth)
 parallel 3D FFT for charge:
    minimum data exchange during FFTs selected (reduces bandwidth)


 total amount of memory used by VASP MPI-rank0   109802. kBytes
=======================================================================

   base      :      30000. kBytes
   nonl-proj :       4583. kBytes
   fftplans  :      24880. kBytes
   grid      :      48046. kBytes
   one-center:          1. kBytes
   wavefun   :       2292. kBytes

     INWAV:  cpu time      0.0001: real time      0.0004
 Broyden mixing: mesh for mixing (old mesh)
   NGX =113   NGY =113   NGZ =113
  (NGX  =480   NGY  =480   NGZ  =480)
  gives a total of ****** points

 initial charge density was supplied:
 charge density of overlapping atoms calculated
 number of electron      36.0000000 magnetization 
 keeping initial charge density in first step


--------------------------------------------------------------------------------------------------------


 Maximum index for augmentation-charges          494 (set IRDMAX)


--------------------------------------------------------------------------------------------------------


 First call to EWALD:  gamma=   0.081
 Maximum number of real-space cells 3x 3x 3
 Maximum number of reciprocal cells 3x 3x 3

    FEWALD:  cpu time      0.0033: real time      0.0033


--------------------------------------- Ionic step        1  -------------------------------------------




--------------------------------------- Iteration      1(   1)  ---------------------------------------


    POTLOK:  cpu time      0.6085: real time      0.6095
    SETDIJ:  cpu time      0.0106: real time      0.0111
    TRIAL :  cpu time      0.8861: real time      0.8885
    CORREC:  cpu time      0.0005: real time      0.0005
    --------------------------------------------
      LOOP:  cpu time      1.5163: real time      1.5205

 eigenvalue-minimisations  :    80
 total energy-change (2. order) : 0.3760755E+03  (-0.9171280E+03)
 number of electron      36.0000000 magnetization 
 augmentation part       36.0000000 magnetization 

 Free energy of the ion-electron system (eV)
  ---------------------------------------------------
  alpha Z        PSCENC =         0.34590649
  Ewald energy   TEWEN  =      2898.72375109
  -Hartree energ DENC   =     -4279.26319512
  -exchange      EXHF   =         0.00000000
  -V(xc)+E(xc)   XCENC  =       113.38061049
  PAW double counting   =      1390.44441998    -1376.05664430
  entropy T*S    EENTRO =        -0.00000000
  eigenvalues    EBANDS =      -183.94990788
  atomic energy  EATOM  =      1812.45053270
  ---------------------------------------------------
  free energy    TOTEN  =       376.07547345 eV

  energy without entropy =      376.07547345  energy(sigma->0) =      376.07547345


--------------------------------------------------------------------------------------------------------




--------------------------------------- Iteration      1(   2)  ---------------------------------------


    TRIAL :  cpu time      0.9296: real time      0.9300
    CORREC:  cpu time      0.0005: real time      0.0005
    --------------------------------------------
      LOOP:  cpu time      0.9583: real time      0.9589

 eigenvalue-minimisations  :    88
 total energy-change (2. order) :-0.1818100E+03  (-0.1778168E+03)
 number of electron      36.0000000 magnetization 
 augmentation part       36.0000000 magnetization 

 Free energy of the ion-electron system (eV)
  ---------------------------------------------------
  alpha Z        PSCENC =         0.34590649
  Ewald energy   TEWEN  =      2898.72375109
  -Hartree energ DENC   =     -4279.26319512
  -exchange      EXHF   =         0.00000000
  -V(xc)+E(xc)   XCENC  =       113.38061049
  PAW double counting   =      1390.44441998    -1376.05664430
  entropy T*S    EENTRO =        -0.00001552
  eigenvalues    EBANDS =      -365.75990314
  atomic energy  EATOM  =      1812.45053270
  ---------------------------------------------------
  free energy    TOTEN  =       194.26546268 eV

  energy without entropy =      194.26547819  energy(sigma->0) =      194.26547044


--------------------------------------------------------------------------------------------------------




--------------------------------------- Iteration      1(   3)  ---------------------------------------


    TRIAL :  cpu time      1.0989: real time      1.0996
    CORREC:  cpu time      0.0001: real time      0.0001
    --------------------------------------------
      LOOP:  cpu time      1.1147: real time      1.1301

 eigenvalue-minimisations  :   112
 total energy-change (2. order) :-0.1732221E+03  (-0.1676503E+03)
 number of electron      36.0000000 magnetization 
 augmentation part       36.0000000 magnetization 

 Free energy of the ion-electron system (eV)
  ---------------------------------------------------
  alpha Z        PSCENC =         0.34590649
  Ewald energy   TEWEN  =      2898.72375109
  -Hartree energ DENC   =     -4279.26319512
  -exchange      EXHF   =         0.00000000
  -V(xc)+E(xc)   XCENC  =       113.38061049
  PAW double counting   =      1390.44441998    -1376.05664430
  entropy T*S    EENTRO =        -0.00000000
  eigenvalues    EBANDS =      -538.98205298
  atomic energy  EATOM  =      1812.45053270
  ---------------------------------------------------
  free energy    TOTEN  =        21.04332835 eV

  energy without entropy =       21.04332835  energy(sigma->0) =       21.04332835


--------------------------------------------------------------------------------------------------------




--------------------------------------- Iteration      1(   4)  ---------------------------------------


    TRIAL :  cpu time      0.9174: real time      0.9177
    CORREC:  cpu time      0.0002: real time      0.0002
    --------------------------------------------
      LOOP:  cpu time      0.9310: real time      0.9474

 eigenvalue-minimisations  :    88
 total energy-change (2. order) :-0.8034141E+02  (-0.7992858E+02)
 number of electron      36.0000000 magnetization 
 augmentation part       36.0000000 magnetization 

 Free energy of the ion-electron system (eV)
  ---------------------------------------------------
  alpha Z        PSCENC =         0.34590649
  Ewald energy   TEWEN  =      2898.72375109
  -Hartree energ DENC   =     -4279.26319512
  -exchange      EXHF   =         0.00000000
  -V(xc)+E(xc)   XCENC  =       113.38061049
  PAW double counting   =      1390.44441998    -1376.05664430
  entropy T*S    EENTRO =        -0.00000000
  eigenvalues    EBANDS =      -619.32346160
  atomic energy  EATOM  =      1812.45053270
  ---------------------------------------------------
  free energy    TOTEN  =       -59.29808027 eV

  energy without entropy =      -59.29808027  energy(sigma->0) =      -59.29808027


--------------------------------------------------------------------------------------------------------




--------------------------------------- Iteration      1(   5)  ---------------------------------------


    TRIAL :  cpu time      0.8578: real time      0.8579
    CORREC:  cpu time      0.0001: real time      0.0001
    CHARGE:  cpu time      0.2379: real time      0.2399
    --------------------------------------------
      LOOP:  cpu time      1.1120: real time      1.1268

 eigenvalue-minimisations  :    80
 total energy-change (2. order) :-0.1195575E+02  (-0.1194160E+02)
 number of electron      36.0000000 magnetization 
 augmentation part        0.1925978 magnetization 

 Free energy of the ion-electron system (eV)
  ---------------------------------------------------
  alpha Z        PSCENC =         0.34590649
  Ewald energy   TEWEN  =      2898.72375109
  -Hartree energ DENC   =     -4279.26319512
  -exchange      EXHF   =         0.00000000
  -V(xc)+E(xc)   XCENC  =       113.38061049
  PAW double counting   =      1390.44441998    -1376.05664430
  entropy T*S    EENTRO =        -0.00000000
  eigenvalues    EBANDS =      -631.27921057
  atomic energy  EATOM  =      1812.45053270
  ---------------------------------------------------
  free energy    TOTEN  =       -71.25382924 eV

  energy without entropy =      -71.25382924  energy(sigma->0) =      -71.25382924


--------------------------------------------------------------------------------------------------------




--------------------------------------- Iteration      1(   6)  ---------------------------------------


    POTLOK:  cpu time      0.6174: real time      0.6176
    SETDIJ:  cpu time      0.0009: real time      0.0009
    TRIAL :  cpu time      0.5164: real time      0.5176
    CORREC:  cpu time      0.9693: real time      0.9702
    CHARGE:  cpu time      0.2001: real time      0.2002
    --------------------------------------------
      LOOP:  cpu time      2.3194: real time      2.3357

 eigenvalue-minimisations  :     0
 total energy-change (2. order) : 0.7279148E+01  (-0.2505905E+01)
 number of electron      36.0000000 magnetization 
 augmentation part        0.1582460 magnetization 

 Free energy of the ion-electron system (eV)
  ---------------------------------------------------
  alpha Z        PSCENC =         0.34590649
  Ewald energy   TEWEN  =      2898.72375109
  -Hartree energ DENC   =     -4520.59293787
  -exchange      EXHF   =         0.00000000
  -V(xc)+E(xc)   XCENC  =       123.81811281
  PAW double counting   =     16429.01028623   -16416.05783480
  entropy T*S    EENTRO =        -0.00000000
  eigenvalues    EBANDS =      -391.67249739
  atomic energy  EATOM  =      1812.45053270
  ---------------------------------------------------
  free energy    TOTEN  =       -63.97468075 eV

  energy without entropy =      -63.97468075  energy(sigma->0) =      -63.97468075


--------------------------------------------------------------------------------------------------------




--------------------------------------- Iteration      1(   7)  ---------------------------------------


    POTLOK:  cpu time      0.6141: real time      0.6146
    SETDIJ:  cpu time      0.0057: real time      0.0057
    TRIAL :  cpu time      0.5056: real time      0.5058
    CORREC:  cpu time      0.9692: real time      0.9696
    CHARGE:  cpu time      0.2007: real time      0.2008
    --------------------------------------------
      LOOP:  cpu time      2.3262: real time      2.3276

 eigenvalue-minimisations  :     0
 total energy-change (2. order) :-0.2532067E+01  (-0.4030957E+00)
 number of electron      36.0000000 magnetization 
 augmentation part        0.1346224 magnetization 

 Free energy of the ion-electron system (eV)
  ---------------------------------------------------
  alpha Z        PSCENC =         0.34590649
  Ewald energy   TEWEN  =      2898.72375109
  -Hartree energ DENC   =     -4420.57501787
  -exchange      EXHF   =         0.00000000
  -V(xc)+E(xc)   XCENC  =       120.00386117
  PAW double counting   =     18074.03743193   -18060.50284168
  entropy T*S    EENTRO =        -0.00000000
  eigenvalues    EBANDS =      -490.99037200
  atomic energy  EATOM  =      1812.45053270
  ---------------------------------------------------
  free energy    TOTEN  =       -66.50674817 eV

  energy without entropy =      -66.50674817  energy(sigma->0) =      -66.50674817


--------------------------------------------------------------------------------------------------------




--------------------------------------- Iteration      1(   8)  ---------------------------------------


    POTLOK:  cpu time      0.6145: real time      0.6150
    SETDIJ:  cpu time      0.0098: real time      0.0098
    TRIAL :  cpu time      0.5068: real time      0.5068
    CORREC:  cpu time      0.9622: real time      0.9629
    CHARGE:  cpu time      0.1986: real time      0.1991
    --------------------------------------------
      LOOP:  cpu time      2.3120: real time      2.3258

 eigenvalue-minimisations  :     0
 total energy-change (2. order) :-0.4042601E+00  (-0.1638496E+00)
 number of electron      36.0000000 magnetization 
 augmentation part        0.1357049 magnetization 

 Free energy of the ion-electron system (eV)
  ---------------------------------------------------
  alpha Z        PSCENC =         0.34590649
  Ewald energy   TEWEN  =      2898.72375109
  -Hartree energ DENC   =     -4420.37894019
  -exchange      EXHF   =         0.00000000
  -V(xc)+E(xc)   XCENC  =       119.86689554
  PAW double counting   =     18016.34306177   -18002.67437555
  entropy T*S    EENTRO =        -0.00000000
  eigenvalues    EBANDS =      -491.58784010
  atomic energy  EATOM  =      1812.45053270
  ---------------------------------------------------
  free energy    TOTEN  =       -66.91100826 eV

  energy without entropy =      -66.91100826  energy(sigma->0) =      -66.91100826


--------------------------------------------------------------------------------------------------------




--------------------------------------- Iteration      1(   9)  ---------------------------------------


    POTLOK:  cpu time      0.6118: real time      0.6120
    SETDIJ:  cpu time      0.0070: real time      0.0070
    TRIAL :  cpu time      0.5075: real time      0.5079
    CORREC:  cpu time      0.9601: real time      0.9608
    CHARGE:  cpu time      0.1999: real time      0.2001
    --------------------------------------------
      LOOP:  cpu time      2.3014: real time      2.3184

 eigenvalue-minimisations  :     0
 total energy-change (2. order) :-0.1637999E+00  (-0.8784332E-01)
 number of electron      36.0000000 magnetization 
 augmentation part        0.1378021 magnetization 

 Free energy of the ion-electron system (eV)
  ---------------------------------------------------
  alpha Z        PSCENC =         0.34590649
  Ewald energy   TEWEN  =      2898.72375109
  -Hartree energ DENC   =     -4422.50719292
  -exchange      EXHF   =         0.00000000
  -V(xc)+E(xc)   XCENC  =       119.85326785
  PAW double counting   =     18156.83820657   -18143.15670229
  entropy T*S    EENTRO =        -0.00000000
  eigenvalues    EBANDS =      -489.62257769
  atomic energy  EATOM  =      1812.45053270
  ---------------------------------------------------
  free energy    TOTEN  =       -67.07480821 eV

  energy without entropy =      -67.07480821  energy(sigma->0) =      -67.07480821


--------------------------------------------------------------------------------------------------------




--------------------------------------- Iteration      1(  10)  ---------------------------------------


    POTLOK:  cpu time      0.6110: real time      0.6114
    SETDIJ:  cpu time      0.0072: real time      0.0072
    TRIAL :  cpu time      0.5061: real time      0.5062
    CORREC:  cpu time      0.9583: real time      0.9588
    CHARGE:  cpu time      0.2006: real time      0.2007
    --------------------------------------------
      LOOP:  cpu time      2.3146: real time      2.3159

 eigenvalue-minimisations  :     0
 total energy-change (2. order) :-0.8660891E-01  (-0.3167117E-01)
 number of electron      36.0000000 magnetization 
 augmentation part        0.1389176 magnetization 

 Free energy of the ion-electron system (eV)
  ---------------------------------------------------
  alpha Z        PSCENC =         0.34590649
  Ewald energy   TEWEN  =      2898.72375109
  -Hartree energ DENC   =     -4417.23484862
  -exchange      EXHF   =         0.00000000
  -V(xc)+E(xc)   XCENC  =       119.70751630
  PAW double counting   =     17786.45586000   -17772.77692826
  entropy T*S    EENTRO =        -0.00000000
  eigenvalues    EBANDS =      -494.83320681
  atomic energy  EATOM  =      1812.45053270
  ---------------------------------------------------
  free energy    TOTEN  =       -67.16141712 eV

  energy without entropy =      -67.16141712  energy(sigma->0) =      -67.16141712


--------------------------------------------------------------------------------------------------------




--------------------------------------- Iteration      1(  11)  ---------------------------------------


    POTLOK:  cpu time      0.6109: real time      0.6112
    SETDIJ:  cpu time      0.0029: real time      0.0029
    TRIAL :  cpu time      0.5063: real time      0.5063
    CORREC:  cpu time      0.9585: real time      0.9591
    CHARGE:  cpu time      0.2005: real time      0.2009
    --------------------------------------------
      LOOP:  cpu time      2.2933: real time      2.3100

 eigenvalue-minimisations  :     0
 total energy-change (2. order) :-0.3147189E-01  (-0.1097788E-01)
 number of electron      36.0000000 magnetization 
 augmentation part        0.1398970 magnetization 

 Free energy of the ion-electron system (eV)
  ---------------------------------------------------
  alpha Z        PSCENC =         0.34590649
  Ewald energy   TEWEN  =      2898.72375109
  -Hartree energ DENC   =     -4415.54470089
  -exchange      EXHF   =         0.00000000
  -V(xc)+E(xc)   XCENC  =       119.68202584
  PAW double counting   =     17415.36338525   -17401.70123795
  entropy T*S    EENTRO =        -0.00000000
  eigenvalues    EBANDS =      -496.51255153
  atomic energy  EATOM  =      1812.45053270
  ---------------------------------------------------
  free energy    TOTEN  =       -67.19288900 eV

  energy without entropy =      -67.19288900  energy(sigma->0) =      -67.19288900


--------------------------------------------------------------------------------------------------------




--------------------------------------- Iteration      1(  12)  ---------------------------------------


    POTLOK:  cpu time      0.6130: real time      0.6132
    SETDIJ:  cpu time      0.0025: real time      0.0025
    TRIAL :  cpu time      0.5054: real time      0.5058
    CORREC:  cpu time      0.9604: real time      0.9611
    CHARGE:  cpu time      0.2007: real time      0.2008
    --------------------------------------------
      LOOP:  cpu time      2.2982: real time      2.3161

 eigenvalue-minimisations  :     0
 total energy-change (2. order) :-0.1096614E-01  (-0.3994543E-02)
 number of electron      36.0000000 magnetization 
 augmentation part        0.1399987 magnetization 

 Free energy of the ion-electron system (eV)
  ---------------------------------------------------
  alpha Z        PSCENC =         0.34590649
  Ewald energy   TEWEN  =      2898.72375109
  -Hartree energ DENC   =     -4415.44706927
  -exchange      EXHF   =         0.00000000
  -V(xc)+E(xc)   XCENC  =       119.67397241
  PAW double counting   =     17372.60017408   -17358.94798428
  entropy T*S    EENTRO =        -0.00000000
  eigenvalues    EBANDS =      -496.60313836
  atomic energy  EATOM  =      1812.45053270
  ---------------------------------------------------
  free energy    TOTEN  =       -67.20385514 eV

  energy without entropy =      -67.20385514  energy(sigma->0) =      -67.20385514


--------------------------------------------------------------------------------------------------------




--------------------------------------- Iteration      1(  13)  ---------------------------------------


    POTLOK:  cpu time      0.6094: real time      0.6099
    SETDIJ:  cpu time      0.0076: real time      0.0076
    TRIAL :  cpu time      0.5079: real time      0.5080
    CORREC:  cpu time      0.9560: real time      0.9564
    CHARGE:  cpu time      0.2003: real time      0.2004
    --------------------------------------------
      LOOP:  cpu time      2.2972: real time      2.3143

 eigenvalue-minimisations  :     0
 total energy-change (2. order) :-0.3998588E-02  (-0.1750221E-02)
 number of electron      36.0000000 magnetization 
 augmentation part        0.1400943 magnetization 

 Free energy of the ion-electron system (eV)
  ---------------------------------------------------
  alpha Z        PSCENC =         0.34590649
  Ewald energy   TEWEN  =      2898.72375109
  -Hartree energ DENC   =     -4415.13915764
  -exchange      EXHF   =         0.00000000
  -V(xc)+E(xc)   XCENC  =       119.65706037
  PAW double counting   =     17460.20088135   -17446.54924880
  entropy T*S    EENTRO =        -0.00000000
  eigenvalues    EBANDS =      -496.89757929
  atomic energy  EATOM  =      1812.45053270
  ---------------------------------------------------
  free energy    TOTEN  =       -67.20785373 eV

  energy without entropy =      -67.20785373  energy(sigma->0) =      -67.20785373


--------------------------------------------------------------------------------------------------------




--------------------------------------- Iteration      1(  14)  ---------------------------------------


    POTLOK:  cpu time      0.6102: real time      0.6108
    SETDIJ:  cpu time      0.0040: real time      0.0040
    TRIAL :  cpu time      0.5064: real time      0.5065
    CORREC:  cpu time      0.9529: real time      0.9538
    CHARGE:  cpu time      0.2008: real time      0.2009
    --------------------------------------------
      LOOP:  cpu time      2.2897: real time      2.3068

 eigenvalue-minimisations  :     0
 total energy-change (2. order) :-0.1752296E-02  (-0.9317180E-03)
 number of electron      36.0000000 magnetization 
 augmentation part        0.1401422 magnetization 

 Free energy of the ion-electron system (eV)
  ---------------------------------------------------
  alpha Z        PSCENC =         0.34590649
  Ewald energy   TEWEN  =      2898.72375109
  -Hartree energ DENC   =     -4415.55185321
  -exchange      EXHF   =         0.00000000
  -V(xc)+E(xc)   XCENC  =       119.67147523
  PAW double counting   =     17532.65079961   -17519.00116452
  entropy T*S    EENTRO =        -0.00000000
  eigenvalues    EBANDS =      -496.49905341
  atomic energy  EATOM  =      1812.45053270
  ---------------------------------------------------
  free energy    TOTEN  =       -67.20960603 eV

  energy without entropy =      -67.20960603  energy(sigma->0) =      -67.20960603


--------------------------------------------------------------------------------------------------------




--------------------------------------- Iteration      1(  15)  ---------------------------------------


    POTLOK:  cpu time      0.6032: real time      0.6034
    SETDIJ:  cpu time      0.0036: real time      0.0036
    TRIAL :  cpu time      0.5071: real time      0.5074
    CORREC:  cpu time      0.9410: real time      0.9417
    CHARGE:  cpu time      0.2002: real time      0.2003
    --------------------------------------------
      LOOP:  cpu time      2.2806: real time      2.2874

 eigenvalue-minimisations  :     0
 total energy-change (2. order) :-0.9339501E-03  (-0.4143994E-03)
 number of electron      36.0000000 magnetization 
 augmentation part        0.1402172 magnetization 

 Free energy of the ion-electron system (eV)
  ---------------------------------------------------
  alpha Z        PSCENC =         0.34590649
  Ewald energy   TEWEN  =      2898.72375109
  -Hartree energ DENC   =     -4415.74920533
  -exchange      EXHF   =         0.00000000
  -V(xc)+E(xc)   XCENC  =       119.67785118
  PAW double counting   =     17570.19942021   -17556.54985646
  entropy T*S    EENTRO =        -0.00000000
  eigenvalues    EBANDS =      -496.30893986
  atomic energy  EATOM  =      1812.45053270
  ---------------------------------------------------
  free energy    TOTEN  =       -67.21053998 eV

  energy without entropy =      -67.21053998  energy(sigma->0) =      -67.21053998


--------------------------------------------------------------------------------------------------------




--------------------------------------- Iteration      1(  16)  ---------------------------------------


    POTLOK:  cpu time      0.5923: real time      0.5924
    SETDIJ:  cpu time      0.0052: real time      0.0052
    TRIAL :  cpu time      0.5078: real time      0.5083
    CORREC:  cpu time      0.9342: real time      0.9348
    CHARGE:  cpu time      0.1993: real time      0.1994
    --------------------------------------------
      LOOP:  cpu time      2.2534: real time      2.2699

 eigenvalue-minimisations  :     0
 total energy-change (2. order) :-0.4152698E-03  (-0.1419520E-03)
 number of electron      36.0000000 magnetization 
 augmentation part        0.1402997 magnetization 

 Free energy of the ion-electron system (eV)
  ---------------------------------------------------
  alpha Z        PSCENC =         0.34590649
  Ewald energy   TEWEN  =      2898.72375109
  -Hartree energ DENC   =     -4415.84054054
  -exchange      EXHF   =         0.00000000
  -V(xc)+E(xc)   XCENC  =       119.68020589
  PAW double counting   =     17568.03552972   -17554.38560490
  entropy T*S    EENTRO =        -0.00000000
  eigenvalues    EBANDS =      -496.22073570
  atomic energy  EATOM  =      1812.45053270
  ---------------------------------------------------
  free energy    TOTEN  =       -67.21095525 eV

  energy without entropy =      -67.21095525  energy(sigma->0) =      -67.21095525


--------------------------------------------------------------------------------------------------------




--------------------------------------- Iteration      1(  17)  ---------------------------------------


    POTLOK:  cpu time      0.5863: real time      0.5866
    SETDIJ:  cpu time      0.0042: real time      0.0042
    TRIAL :  cpu time      0.5045: real time      0.5046
    CORREC:  cpu time      0.9332: real time      0.9338
    CHARGE:  cpu time      0.2000: real time      0.2001
    --------------------------------------------
      LOOP:  cpu time      2.2439: real time      2.2619

 eigenvalue-minimisations  :     0
 total energy-change (2. order) :-0.1422120E-03  (-0.4373859E-04)
 number of electron      36.0000000 magnetization 
 augmentation part        0.1402654 magnetization 

 Free energy of the ion-electron system (eV)
  ---------------------------------------------------
  alpha Z        PSCENC =         0.34590649
  Ewald energy   TEWEN  =      2898.72375109
  -Hartree energ DENC   =     -4415.97111138
  -exchange      EXHF   =         0.00000000
  -V(xc)+E(xc)   XCENC  =       119.68505932
  PAW double counting   =     17553.98083068   -17540.33121987
  entropy T*S    EENTRO =        -0.00000000
  eigenvalues    EBANDS =      -496.09484648
  atomic energy  EATOM  =      1812.45053270
  ---------------------------------------------------
  free energy    TOTEN  =       -67.21109746 eV

  energy without entropy =      -67.21109746  energy(sigma->0) =      -67.21109746


--------------------------------------------------------------------------------------------------------




--------------------------------------- Iteration      1(  18)  ---------------------------------------


    POTLOK:  cpu time      0.5819: real time      0.5823
    SETDIJ:  cpu time      0.0050: real time      0.0050
    TRIAL :  cpu time      0.5074: real time      0.5075
    CORREC:  cpu time      0.9319: real time      0.9326
    CHARGE:  cpu time      0.2003: real time      0.2007
    --------------------------------------------
      LOOP:  cpu time      2.2424: real time      2.2599

 eigenvalue-minimisations  :     0
 total energy-change (2. order) :-0.4379744E-04  (-0.1443857E-04)
 number of electron      36.0000000 magnetization 
 augmentation part        0.1402491 magnetization 

 Free energy of the ion-electron system (eV)
  ---------------------------------------------------
  alpha Z        PSCENC =         0.34590649
  Ewald energy   TEWEN  =      2898.72375109
  -Hartree energ DENC   =     -4415.92287409
  -exchange      EXHF   =         0.00000000
  -V(xc)+E(xc)   XCENC  =       119.68375225
  PAW double counting   =     17548.40283048   -17534.75273063
  entropy T*S    EENTRO =        -0.00000000
  eigenvalues    EBANDS =      -496.14230955
  atomic energy  EATOM  =      1812.45053270
  ---------------------------------------------------
  free energy    TOTEN  =       -67.21114126 eV

  energy without entropy =      -67.21114126  energy(sigma->0) =      -67.21114126


--------------------------------------------------------------------------------------------------------




--------------------------------------- Iteration      1(  19)  ---------------------------------------


    POTLOK:  cpu time      0.5827: real time      0.5828
    SETDIJ:  cpu time      0.0034: real time      0.0034
    TRIAL :  cpu time      0.5057: real time      0.5061
    CORREC:  cpu time      0.9330: real time      0.9337
    CHARGE:  cpu time      0.1997: real time      0.1998
    --------------------------------------------
      LOOP:  cpu time      2.2400: real time      2.2571

 eigenvalue-minimisations  :     0
 total energy-change (2. order) :-0.1433307E-04  (-0.5121759E-05)
 number of electron      36.0000000 magnetization 
 augmentation part        0.1402205 magnetization 

 Free energy of the ion-electron system (eV)
  ---------------------------------------------------
  alpha Z        PSCENC =         0.34590649
  Ewald energy   TEWEN  =      2898.72375109
  -Hartree energ DENC   =     -4415.94151944
  -exchange      EXHF   =         0.00000000
  -V(xc)+E(xc)   XCENC  =       119.68466776
  PAW double counting   =     17547.94068547   -17534.29052870
  entropy T*S    EENTRO =        -0.00000000
  eigenvalues    EBANDS =      -496.12465095
  atomic energy  EATOM  =      1812.45053270
  ---------------------------------------------------
  free energy    TOTEN  =       -67.21115559 eV

  energy without entropy =      -67.21115559  energy(sigma->0) =      -67.21115559


--------------------------------------------------------------------------------------------------------




--------------------------------------- Iteration      1(  20)  ---------------------------------------


    POTLOK:  cpu time      0.5805: real time      0.5806
    SETDIJ:  cpu time      0.0050: real time      0.0050
    TRIAL :  cpu time      0.5040: real time      0.5045
    CORREC:  cpu time      0.9301: real time      0.9307
    CHARGE:  cpu time      0.2005: real time      0.2007
    --------------------------------------------
      LOOP:  cpu time      2.2341: real time      2.2528

 eigenvalue-minimisations  :     0
 total energy-change (2. order) :-0.5040729E-05  (-0.1931104E-05)
 number of electron      36.0000000 magnetization 
 augmentation part        0.1402111 magnetization 

 Free energy of the ion-electron system (eV)
  ---------------------------------------------------
  alpha Z        PSCENC =         0.34590649
  Ewald energy   TEWEN  =      2898.72375109
  -Hartree energ DENC   =     -4415.91148447
  -exchange      EXHF   =         0.00000000
  -V(xc)+E(xc)   XCENC  =       119.68377170
  PAW double counting   =     17548.50764744   -17534.85732005
  entropy T*S    EENTRO =        -0.00000000
  eigenvalues    EBANDS =      -496.15396553
  atomic energy  EATOM  =      1812.45053270
  ---------------------------------------------------
  free energy    TOTEN  =       -67.21116063 eV

  energy without entropy =      -67.21116063  energy(sigma->0) =      -67.21116063


--------------------------------------------------------------------------------------------------------




--------------------------------------- Iteration      1(  21)  ---------------------------------------


    POTLOK:  cpu time      0.5818: real time      0.5824
    SETDIJ:  cpu time      0.0033: real time      0.0033
    TRIAL :  cpu time      0.5068: real time      0.5069
    CORREC:  cpu time      0.9289: real time      0.9296
    CHARGE:  cpu time      0.2005: real time      0.2006
    --------------------------------------------
      LOOP:  cpu time      2.2361: real time      2.2540

 eigenvalue-minimisations  :     0
 total energy-change (2. order) :-0.1852461E-05  (-0.7123810E-06)
 number of electron      36.0000000 magnetization 
 augmentation part        0.1402045 magnetization 

 Free energy of the ion-electron system (eV)
  ---------------------------------------------------
  alpha Z        PSCENC =         0.34590649
  Ewald energy   TEWEN  =      2898.72375109
  -Hartree energ DENC   =     -4415.90754568
  -exchange      EXHF   =         0.00000000
  -V(xc)+E(xc)   XCENC  =       119.68366523
  PAW double counting   =     17548.03640928   -17534.38609899
  entropy T*S    EENTRO =        -0.00000000
  eigenvalues    EBANDS =      -496.15778259
  atomic energy  EATOM  =      1812.45053270
  ---------------------------------------------------
  free energy    TOTEN  =       -67.21116248 eV

  energy without entropy =      -67.21116248  energy(sigma->0) =      -67.21116248


--------------------------------------------------------------------------------------------------------




--------------------------------------- Iteration      1(  22)  ---------------------------------------


    POTLOK:  cpu time      0.5799: real time      0.5804
    SETDIJ:  cpu time      0.0128: real time      0.0128
    TRIAL :  cpu time      0.5067: real time      0.5067
    CORREC:  cpu time      0.9311: real time      0.9317
    CHARGE:  cpu time      0.1995: real time      0.2000
    --------------------------------------------
      LOOP:  cpu time      2.2452: real time      2.2630

 eigenvalue-minimisations  :     0
 total energy-change (2. order) :-0.6801656E-06  (-0.2946968E-06)
 number of electron      36.0000000 magnetization 
 augmentation part        0.1402044 magnetization 

 Free energy of the ion-electron system (eV)
  ---------------------------------------------------
  alpha Z        PSCENC =         0.34590649
  Ewald energy   TEWEN  =      2898.72375109
  -Hartree energ DENC   =     -4415.89882453
  -exchange      EXHF   =         0.00000000
  -V(xc)+E(xc)   XCENC  =       119.68331874
  PAW double counting   =     17547.04883320   -17533.39851476
  entropy T*S    EENTRO =        -0.00000000
  eigenvalues    EBANDS =      -496.16616609
  atomic energy  EATOM  =      1812.45053270
  ---------------------------------------------------
  free energy    TOTEN  =       -67.21116316 eV

  energy without entropy =      -67.21116316  energy(sigma->0) =      -67.21116316


--------------------------------------------------------------------------------------------------------




--------------------------------------- Iteration      1(  23)  ---------------------------------------


    POTLOK:  cpu time      0.5807: real time      0.5808
    SETDIJ:  cpu time      0.0049: real time      0.0049
    TRIAL :  cpu time      0.5042: real time      0.5044
    CORREC:  cpu time      0.9302: real time      0.9309
    CHARGE:  cpu time      0.1997: real time      0.2001
    --------------------------------------------
      LOOP:  cpu time      2.2382: real time      2.2563

 eigenvalue-minimisations  :     0
 total energy-change (2. order) :-0.2758497E-06  (-0.1168442E-06)
 number of electron      36.0000000 magnetization 
 augmentation part        0.1402027 magnetization 

 Free energy of the ion-electron system (eV)
  ---------------------------------------------------
  alpha Z        PSCENC =         0.34590649
  Ewald energy   TEWEN  =      2898.72375109
  -Hartree energ DENC   =     -4415.90092576
  -exchange      EXHF   =         0.00000000
  -V(xc)+E(xc)   XCENC  =       119.68335352
  PAW double counting   =     17546.27152908   -17532.62123576
  entropy T*S    EENTRO =        -0.00000000
  eigenvalues    EBANDS =      -496.16407479
  atomic energy  EATOM  =      1812.45053270
  ---------------------------------------------------
  free energy    TOTEN  =       -67.21116344 eV

  energy without entropy =      -67.21116344  energy(sigma->0) =      -67.21116344


--------------------------------------------------------------------------------------------------------




--------------------------------------- Iteration      1(  24)  ---------------------------------------


    POTLOK:  cpu time      0.5890: real time      0.5891
    SETDIJ:  cpu time      0.0029: real time      0.0029
    TRIAL :  cpu time      0.5051: real time      0.5057
    CORREC:  cpu time      0.9289: real time      0.9296
    CHARGE:  cpu time      0.1997: real time      0.1998
    --------------------------------------------
      LOOP:  cpu time      2.2410: real time      2.2582

 eigenvalue-minimisations  :     0
 total energy-change (2. order) :-0.1124499E-06  (-0.4925657E-07)
 number of electron      36.0000000 magnetization 
 augmentation part        0.1402038 magnetization 

 Free energy of the ion-electron system (eV)
  ---------------------------------------------------
  alpha Z        PSCENC =         0.34590649
  Ewald energy   TEWEN  =      2898.72375109
  -Hartree energ DENC   =     -4415.89945333
  -exchange      EXHF   =         0.00000000
  -V(xc)+E(xc)   XCENC  =       119.68327639
  PAW double counting   =     17546.13496309   -17532.48465370
  entropy T*S    EENTRO =        -0.00000000
  eigenvalues    EBANDS =      -496.16548627
  atomic energy  EATOM  =      1812.45053270
  ---------------------------------------------------
  free energy    TOTEN  =       -67.21116355 eV

  energy without entropy =      -67.21116355  energy(sigma->0) =      -67.21116355


--------------------------------------------------------------------------------------------------------




--------------------------------------- Iteration      1(  25)  ---------------------------------------


    POTLOK:  cpu time      0.5822: real time      0.5828
    SETDIJ:  cpu time      0.0038: real time      0.0038
    TRIAL :  cpu time      0.5067: real time      0.5068
    CORREC:  cpu time      0.9348: real time      0.9355
    EDDIAG:  cpu time      0.2234: real time      0.2240
    CHARGE:  cpu time      0.1992: real time      0.1996
    --------------------------------------------
      LOOP:  cpu time      2.4640: real time      2.4841

 eigenvalue-minimisations  :     0
 total energy-change (2. order) :-0.4663525E-07  (-0.1505557E-07)
 number of electron      36.0000000 magnetization 
 augmentation part        0.1402040 magnetization 

 Free energy of the ion-electron system (eV)
  ---------------------------------------------------
  alpha Z        PSCENC =         0.34590649
  Ewald energy   TEWEN  =      2898.72375109
  -Hartree energ DENC   =     -4415.90234991
  -exchange      EXHF   =         0.00000000
  -V(xc)+E(xc)   XCENC  =       119.68337167
  PAW double counting   =     17546.34973516   -17532.69943062
  entropy T*S    EENTRO =        -0.00000000
  eigenvalues    EBANDS =      -496.16268018
  atomic energy  EATOM  =      1812.45053270
  ---------------------------------------------------
  free energy    TOTEN  =       -67.21116360 eV

  energy without entropy =      -67.21116360  energy(sigma->0) =      -67.21116360


--------------------------------------------------------------------------------------------------------


  average scaling for gradient   1.0098


 average (electrostatic) potential at core
  the test charge radii are     0.5770  0.4325  0.5955
  (the norm of the test charge is              1.0000)
       1 -88.7170       2 -88.7166       3 -88.7161       4 -45.5863       5 -45.3764
       6 -45.5868       7 -45.5858       8 -45.3756       9 -45.3766      10-120.1280
      11-120.1264      12-120.1275



 E-fermi :  -6.4370     XC(G=0):  -0.1612     alpha+bet : -0.0680

 Fermi energy:        -6.4370278311

 k-point     1 :       0.0000    0.0000    0.0000
  band No.  band energies     occupation 
      1     -27.9926      2.00000
      2     -25.6358      2.00000
      3     -25.6344      2.00000
      4     -17.8238      2.00000
      5     -17.8222      2.00000
      6     -14.9327      2.00000
      7     -13.2430      2.00000
      8     -13.1550      2.00000
      9     -11.9361      2.00000
     10     -11.9356      2.00000
     11     -10.8173      2.00000
     12     -10.4712      2.00000
     13     -10.4708      2.00000
     14      -8.0524      2.00000
     15      -8.0503      2.00000
     16      -6.7753      2.00000
     17      -6.7736      2.00000
     18      -6.5594      2.00000
     19      -0.5336      0.00000
     20      -0.0400      0.00000
     21      -0.0237      0.00000
     22      -0.0234      0.00000
     23       0.1135      0.00000
     24       0.3056      0.00000
     25       0.3284      0.00000
     26       0.4172      0.00000
     27       0.4346      0.00000
     28       0.4362      0.00000
     29       0.4572      0.00000
     30       0.5196      0.00000
     31       0.5314      0.00000
     32       0.5920      0.00000


--------------------------------------------------------------------------------------------------------


 soft charge-density along one line, spin component           1
         0         1         2         3         4         5         6         7         8         9
 total charge-density along one line

 pseudopotential strength for first ion, spin component:           1
 12.822  21.581   0.009   0.012   0.010   0.015   0.022   0.018
 21.581  36.321   0.014   0.021   0.017   0.026   0.037   0.031
  0.009   0.014  -3.147  -0.001   0.000  -5.644  -0.002   0.001
  0.012   0.021  -0.001  -3.148   0.001  -0.002  -5.646   0.001
  0.010   0.017   0.000   0.001  -3.150   0.001   0.001  -5.648
  0.015   0.026  -5.644  -0.002   0.001 -10.100  -0.004   0.001
  0.022   0.037  -0.002  -5.646   0.001  -0.004 -10.103   0.002
  0.018   0.031   0.001   0.001  -5.648   0.001   0.002 -10.108
 total augmentation occupancy for first ion, spin component:           1
  7.668  -2.738   0.235   0.399   0.317  -0.147  -0.243  -0.195
 -2.738   1.040  -0.194  -0.315  -0.253   0.098   0.159   0.128
  0.235  -0.194   5.787   0.119  -0.046  -1.829  -0.145   0.066
  0.399  -0.315   0.119   5.737  -0.142  -0.145  -1.909   0.109
  0.317  -0.253  -0.046  -0.142   5.977   0.066   0.110  -2.119
 -0.147   0.098  -1.829  -0.145   0.066   0.592   0.086  -0.043
 -0.243   0.159  -0.145  -1.909   0.110   0.086   0.653  -0.062
 -0.195   0.128   0.066   0.109  -2.119  -0.043  -0.062   0.773


------------------------ aborting loop because EDIFF is reached ----------------------------------------


    FORLOC:  cpu time      0.0532: real time      0.0532
    FORNL :  cpu time      0.0403: real time      0.0404
    FORCOR:  cpu time      0.5121: real time      0.5121
    OFIELD:  cpu time      0.0065: real time      0.0071

 ---------------------------------------------------------------------------------------------

         DFTD3 V3.0 Rev 1        
 IVDW         = 11
 DF revpbe    
 parameters
 VDW_S6       =    1.0000
 VDW_S8       =    1.0100
 VDW_SR       =    0.9230
 rs18     =    1.0000
 alpha6   =   14.0000
 alpha8   =   16.0000
 k1-k3    =   16.0000    1.3333   -4.0000
 VDW_RADIUS   =   50.2022 A
 VDW_CNRADIUS =   21.1671 A
 Edisp (eV)   -0.37366

 E6    (eV) :    -0.2680
 E8    (eV) :    -0.1057
 % E8        : 28.29
    FORVDW:  cpu time      0.0739: real time      0.0785

 VOLUME and BASIS-vectors are now :
 -----------------------------------------------------------------------------
  energy-cutoff  :     1000.00
  volume of cell :    10648.00
      direct lattice vectors                 reciprocal lattice vectors
    22.000000000  0.000000000  0.000000000     0.045454545  0.000000000  0.000000000
     0.000000000 22.000000000  0.000000000     0.000000000  0.045454545  0.000000000
     0.000000000  0.000000000 22.000000000     0.000000000  0.000000000  0.045454545

  length of vectors
    22.000000000 22.000000000 22.000000000     0.045454545  0.045454545  0.045454545


 FORCES acting on ions:
    Electron-Ion                     Ewald-Force                    Non-Local-Force
 -----------------------------------------------------------------------------------------------
   0.141E+03 0.171E+03 0.131E+03   -.147E+03 -.176E+03 -.139E+03   0.639E+01 0.540E+01 0.763E+01
   -.211E+03 -.684E+02 0.131E+03   0.218E+03 0.722E+02 -.139E+03   -.736E+01 -.397E+01 0.764E+01
   0.140E+03 -.206E+03 -.655E+02   -.147E+03 0.215E+03 0.655E+02   0.638E+01 -.935E+01 -.824E-01
   -.968E+02 -.348E+01 0.685E+01   0.103E+03 0.322E+01 -.636E+01   -.598E+01 0.261E+00 -.490E+00
   0.450E+02 -.609E+01 0.845E+02   -.468E+02 0.833E+01 -.894E+02   0.180E+01 -.222E+01 0.476E+01
   0.386E+02 0.889E+02 0.689E+01   -.406E+02 -.947E+02 -.640E+01   0.194E+01 0.566E+01 -.485E+00
   0.385E+02 -.565E+02 -.691E+02   -.405E+02 0.594E+02 0.742E+02   0.193E+01 -.283E+01 -.493E+01
   0.450E+02 -.659E+02 0.532E+02   -.469E+02 0.686E+02 -.579E+02   0.180E+01 -.264E+01 0.454E+01
   -.108E+02 -.440E+02 0.846E+02   0.936E+01 0.466E+02 -.894E+02   0.141E+01 -.248E+01 0.476E+01
   -.211E+03 0.309E+03 0.899E+02   0.239E+03 -.350E+03 -.866E+02   -.276E+02 0.405E+02 -.332E+01
   -.211E+03 -.251E+03 -.202E+03   0.239E+03 0.271E+03 0.237E+03   -.277E+02 -.205E+02 -.350E+02
   0.310E+03 0.105E+03 -.202E+03   -.340E+03 -.124E+03 0.237E+03   0.292E+02 0.183E+02 -.351E+02
 -----------------------------------------------------------------------------------------------
   0.179E+02 -.261E+02 0.501E+02   0.000E+00 0.114E-12 -.568E-13   -.179E+02 0.261E+02 -.501E+02


 POSITION                                       TOTAL-FORCE (eV/Angst)
 -----------------------------------------------------------------------------------
      9.75943     10.23302     10.48981         0.017389      0.055804     -0.007904
     11.66973     11.53522     10.48910        -0.059709      0.007186     -0.003063
      9.76112     12.28260     11.55955         0.017273     -0.023542     -0.048788
     12.75629     11.48691     10.57995         0.155129      0.000734     -0.000002
      9.41113     10.69645      9.54435        -0.072543      0.027319     -0.147407
      9.40758      9.20383     10.57990        -0.058693     -0.144028      0.002373
      9.41107     12.79617     12.45662        -0.057200      0.086680      0.119097
      9.41144     12.79398     10.63978        -0.072640      0.107113     -0.108299
     11.36588     12.02819      9.54338         0.000729      0.078144     -0.150581
     11.17738     10.20523     10.50814         0.204163     -0.296662     -0.064607
     11.17926     12.28296     11.59037         0.201845      0.212983      0.205429
      9.24371     10.96230     11.59172        -0.275742     -0.111732      0.203751
 -----------------------------------------------------------------------------------
    total drift:                               -0.000154      0.000021     -0.000212


--------------------------------------------------------------------------------------------------------



  FREE ENERGIE OF THE ION-ELECTRON SYSTEM (eV)
  ---------------------------------------------------
  free  energy   TOTEN  =       -67.58482566 eV

  energy  without entropy=      -67.58482566  energy(sigma->0) =      -67.58482566



--------------------------------------------------------------------------------------------------------


    POTLOK:  cpu time      0.5993: real time      0.5996


--------------------------------------------------------------------------------------------------------


 stress matrix after NEB project (eV)
      0.28714      0.00617     -0.01110
      0.00617      0.28276      0.01650
     -0.01110      0.01650      0.25954
  FORCES: max atom, RMS     0.365875    0.216173
  FORCE total and by dimension    0.748844    0.296662
  Stress total and by dimension    0.480240    0.287141
     LOOP+:  cpu time     52.6379: real time     53.0049
    4ORBIT:  cpu time      0.0000: real time      0.0000

 total amount of memory used by VASP MPI-rank0   109802. kBytes
=======================================================================

   base      :      30000. kBytes
   nonl-proj :       4583. kBytes
   fftplans  :      24880. kBytes
   grid      :      48046. kBytes
   one-center:          1. kBytes
   wavefun   :       2292. kBytes

  
  
 General timing and accounting informations for this job:
 ========================================================
  
                  Total CPU time used (sec):       81.702
                            User time (sec):       77.828
                          System time (sec):        3.874
                         Elapsed time (sec):       89.674
  
                   Maximum memory used (kb):      298832.
                   Average memory used (kb):          N/A
  
                          Minor page faults:       213010
                          Major page faults:          649
                 Voluntary context switches:         7861
