  20  20   0   0
  0.1041843E+02  0.6208109E-09  0.6191964E-09  0.5420565E-09  0.5000000E-15
   1.0000000000000000E-004
  CAR 
 unknown system                          
     12.09226051    -23.19520587  301      0.34447483      1.00000000
    -23.195  0.0000E+00  0.0000E+00
    -23.078  0.0000E+00  0.0000E+00
    -22.960  0.0000E+00  0.0000E+00
    -22.842  0.0000E+00  0.0000E+00
    -22.725  0.0000E+00  0.0000E+00
    -22.607  0.0000E+00  0.0000E+00
    -22.489  0.0000E+00  0.0000E+00
    -22.372  0.0000E+00  0.0000E+00
    -22.254  0.0000E+00  0.0000E+00
    -22.137  0.0000E+00  0.0000E+00
    -22.019  0.0000E+00  0.0000E+00
    -21.901  0.0000E+00  0.0000E+00
    -21.784  0.0000E+00  0.0000E+00
    -21.666  0.0000E+00  0.0000E+00
    -21.548  0.2144E-02  0.2522E-03
    -21.431  0.2940E-01  0.4692E-02
    -21.313  0.4501E-01  0.1245E-01
    -21.196  0.0000E+00  0.1333E-01
    -21.078  0.3398E-01  0.1733E-01
    -20.960  0.6297E-01  0.2667E-01
    -20.843  0.0000E+00  0.2667E-01
    -20.725  0.0000E+00  0.2667E-01
    -20.607  0.0000E+00  0.2667E-01
    -20.490  0.0000E+00  0.2667E-01
    -20.372  0.2842E-01  0.3001E-01
    -20.255  0.4347E-01  0.3869E-01
    -20.137  0.6297E-02  0.4000E-01
    -20.019  0.1026E-01  0.4121E-01
    -19.902  0.6717E-01  0.5333E-01
    -19.784  0.0000E+00  0.5333E-01
    -19.666  0.0000E+00  0.5333E-01
    -19.549  0.0000E+00  0.5333E-01
    -19.431  0.0000E+00  0.5333E-01
    -19.314  0.0000E+00  0.5333E-01
    -19.196  0.0000E+00  0.5333E-01
    -19.078  0.0000E+00  0.5333E-01
    -18.961  0.0000E+00  0.5333E-01
    -18.843  0.0000E+00  0.5333E-01
    -18.725  0.0000E+00  0.5333E-01
    -18.608  0.0000E+00  0.5333E-01
    -18.490  0.0000E+00  0.5333E-01
    -18.373  0.0000E+00  0.5333E-01
    -18.255  0.0000E+00  0.5333E-01
    -18.137  0.0000E+00  0.5333E-01
    -18.020  0.0000E+00  0.5333E-01
    -17.902  0.0000E+00  0.5333E-01
    -17.784  0.0000E+00  0.5333E-01
    -17.667  0.0000E+00  0.5333E-01
    -17.549  0.0000E+00  0.5333E-01
    -17.432  0.0000E+00  0.5333E-01
    -17.314  0.0000E+00  0.5333E-01
    -17.196  0.0000E+00  0.5333E-01
    -17.079  0.0000E+00  0.5333E-01
    -16.961  0.0000E+00  0.5333E-01
    -16.843  0.0000E+00  0.5333E-01
    -16.726  0.0000E+00  0.5333E-01
    -16.608  0.0000E+00  0.5333E-01
    -16.491  0.0000E+00  0.5333E-01
    -16.373  0.0000E+00  0.5333E-01
    -16.255  0.0000E+00  0.5333E-01
    -16.138  0.0000E+00  0.5333E-01
    -16.020  0.6523E-02  0.5410E-01
    -15.902  0.7553E-01  0.6666E-01
    -15.785  0.0000E+00  0.6667E-01
    -15.667  0.0000E+00  0.6667E-01
    -15.550  0.0000E+00  0.6667E-01
    -15.432  0.0000E+00  0.6667E-01
    -15.314  0.0000E+00  0.6667E-01
    -15.197  0.0000E+00  0.6667E-01
    -15.079  0.0000E+00  0.6667E-01
    -14.961  0.0000E+00  0.6667E-01
    -14.844  0.0000E+00  0.6667E-01
    -14.726  0.0000E+00  0.6667E-01
    -14.609  0.0000E+00  0.6667E-01
    -14.491  0.0000E+00  0.6667E-01
    -14.373  0.0000E+00  0.6667E-01
    -14.256  0.0000E+00  0.6667E-01
    -14.138  0.0000E+00  0.6667E-01
    -14.020  0.0000E+00  0.6667E-01
    -13.903  0.0000E+00  0.6667E-01
    -13.785  0.0000E+00  0.6667E-01
    -13.668  0.0000E+00  0.6667E-01
    -13.550  0.0000E+00  0.6667E-01
    -13.432  0.0000E+00  0.6667E-01
    -13.315  0.0000E+00  0.6667E-01
    -13.197  0.0000E+00  0.6667E-01
    -13.079  0.0000E+00  0.6667E-01
    -12.962  0.0000E+00  0.6667E-01
    -12.844  0.0000E+00  0.6667E-01
    -12.727  0.0000E+00  0.6667E-01
    -12.609  0.0000E+00  0.6667E-01
    -12.491  0.0000E+00  0.6667E-01
    -12.374  0.0000E+00  0.6667E-01
    -12.256  0.0000E+00  0.6667E-01
    -12.138  0.0000E+00  0.6667E-01
    -12.021  0.0000E+00  0.6667E-01
    -11.903  0.0000E+00  0.6667E-01
    -11.786  0.0000E+00  0.6667E-01
    -11.668  0.0000E+00  0.6667E-01
    -11.550  0.0000E+00  0.6667E-01
    -11.433  0.0000E+00  0.6667E-01
    -11.315  0.0000E+00  0.6667E-01
    -11.197  0.0000E+00  0.6667E-01
    -11.080  0.0000E+00  0.6667E-01
    -10.962  0.0000E+00  0.6667E-01
    -10.845  0.0000E+00  0.6667E-01
    -10.727  0.0000E+00  0.6667E-01
    -10.609  0.0000E+00  0.6667E-01
    -10.492  0.0000E+00  0.6667E-01
    -10.374  0.2384E-02  0.6695E-01
    -10.256  0.7403E-01  0.7636E-01
    -10.139  0.2251E-01  0.8364E-01
    -10.021  0.4187E-02  0.8568E-01
     -9.904  0.3792E-01  0.9039E-01
     -9.786  0.1259E-01  0.9333E-01
     -9.668  0.0000E+00  0.9333E-01
     -9.551  0.0000E+00  0.9333E-01
     -9.433  0.0000E+00  0.9333E-01
     -9.315  0.0000E+00  0.9333E-01
     -9.198  0.0000E+00  0.9333E-01
     -9.080  0.0000E+00  0.9333E-01
     -8.963  0.0000E+00  0.9333E-01
     -8.845  0.0000E+00  0.9333E-01
     -8.727  0.0000E+00  0.9333E-01
     -8.610  0.0000E+00  0.9333E-01
     -8.492  0.6143E-04  0.9334E-01
     -8.374  0.6203E-02  0.9431E-01
     -8.257  0.1569E-01  0.9789E-01
     -8.139  0.8407E-02  0.1002E+00
     -8.022  0.1194E-01  0.1021E+00
     -7.904  0.0000E+00  0.1022E+00
     -7.786  0.0000E+00  0.1022E+00
     -7.669  0.2678E-01  0.1054E+00
     -7.551  0.1375E-01  0.1108E+00
     -7.433  0.3638E-01  0.1179E+00
     -7.316  0.8397E-02  0.1200E+00
     -7.198  0.0000E+00  0.1200E+00
     -7.081  0.0000E+00  0.1200E+00
     -6.963  0.0000E+00  0.1200E+00
     -6.845  0.0000E+00  0.1200E+00
     -6.728  0.0000E+00  0.1200E+00
     -6.610  0.3260E-01  0.1238E+00
     -6.492  0.6460E-02  0.1257E+00
     -6.375  0.2300E-01  0.1301E+00
     -6.257  0.1259E-01  0.1328E+00
     -6.140  0.4220E-02  0.1333E+00
     -6.022  0.6298E-02  0.1351E+00
     -5.904  0.1677E-01  0.1380E+00
     -5.787  0.8955E-02  0.1391E+00
     -5.669  0.1769E-01  0.1441E+00
     -5.551  0.2403E-01  0.1473E+00
     -5.434  0.3444E-01  0.1554E+00
     -5.316  0.5004E-01  0.1632E+00
     -5.199  0.0000E+00  0.1642E+00
     -5.081  0.2099E-02  0.1644E+00
     -4.963  0.7881E-02  0.1656E+00
     -4.846  0.4850E-01  0.1721E+00
     -4.728  0.0000E+00  0.1733E+00
     -4.610  0.0000E+00  0.1733E+00
     -4.493  0.5787E-02  0.1740E+00
     -4.375  0.0000E+00  0.1743E+00
     -4.258  0.3979E-02  0.1748E+00
     -4.140  0.3552E-01  0.1795E+00
     -4.022  0.3383E-01  0.1842E+00
     -3.905  0.2920E-01  0.1896E+00
     -3.787  0.2927E-01  0.1950E+00
     -3.669  0.3466E-01  0.2016E+00
     -3.552  0.3736E-01  0.2064E+00
     -3.434  0.2103E-01  0.2106E+00
     -3.317  0.5181E-02  0.2122E+00
     -3.199  0.3885E-01  0.2196E+00
     -3.081  0.1915E-01  0.2250E+00
     -2.964  0.3230E-01  0.2302E+00
     -2.846  0.2623E-01  0.2372E+00
     -2.728  0.4198E-02  0.2400E+00
     -2.611  0.0000E+00  0.2400E+00
     -2.493  0.0000E+00  0.2400E+00
     -2.376  0.0000E+00  0.2400E+00
     -2.258  0.0000E+00  0.2400E+00
     -2.140  0.0000E+00  0.2400E+00
     -2.023  0.0000E+00  0.2400E+00
     -1.905  0.0000E+00  0.2400E+00
     -1.787  0.2493E-01  0.2429E+00
     -1.670  0.4476E-01  0.2492E+00
     -1.552  0.2074E-01  0.2533E+00
     -1.435  0.0000E+00  0.2533E+00
     -1.317  0.0000E+00  0.2533E+00
     -1.199  0.0000E+00  0.2533E+00
     -1.082  0.0000E+00  0.2533E+00
     -0.964  0.0000E+00  0.2533E+00
     -0.846  0.0000E+00  0.2533E+00
     -0.729  0.0000E+00  0.2533E+00
     -0.611  0.8699E-08  0.2533E+00
     -0.494  0.4192E-02  0.2541E+00
     -0.376  0.4485E-02  0.2546E+00
     -0.258  0.2333E-01  0.2576E+00
     -0.141  0.4162E-01  0.2646E+00
     -0.023  0.3358E-01  0.2741E+00
      0.095  0.8372E-02  0.2751E+00
      0.212  0.4173E-01  0.2800E+00
      0.330  0.0000E+00  0.2800E+00
      0.447  0.0000E+00  0.2800E+00
      0.565  0.0000E+00  0.2800E+00
      0.683  0.0000E+00  0.2800E+00
      0.800  0.0000E+00  0.2800E+00
      0.918  0.0000E+00  0.2800E+00
      1.036  0.0000E+00  0.2800E+00
      1.153  0.0000E+00  0.2800E+00
      1.271  0.0000E+00  0.2800E+00
      1.388  0.0000E+00  0.2800E+00
      1.506  0.0000E+00  0.2800E+00
      1.624  0.0000E+00  0.2800E+00
      1.741  0.0000E+00  0.2800E+00
      1.859  0.0000E+00  0.2800E+00
      1.977  0.0000E+00  0.2800E+00
      2.094  0.0000E+00  0.2800E+00
      2.212  0.0000E+00  0.2800E+00
      2.329  0.0000E+00  0.2800E+00
      2.447  0.0000E+00  0.2800E+00
      2.565  0.0000E+00  0.2800E+00
      2.682  0.0000E+00  0.2800E+00
      2.800  0.0000E+00  0.2800E+00
      2.918  0.0000E+00  0.2800E+00
      3.035  0.0000E+00  0.2800E+00
      3.153  0.0000E+00  0.2800E+00
      3.270  0.6721E-05  0.2800E+00
      3.388  0.4498E-16  0.2810E+00
      3.506  0.3480E-01  0.2851E+00
      3.623  0.5539E-01  0.2919E+00
      3.741  0.7071E-02  0.2942E+00
      3.859  0.3715E-01  0.3007E+00
      3.976  0.2068E-01  0.3051E+00
      4.094  0.1042E-01  0.3064E+00
      4.211  0.0000E+00  0.3067E+00
      4.329  0.0000E+00  0.3067E+00
      4.447  0.0000E+00  0.3067E+00
      4.564  0.0000E+00  0.3067E+00
      4.682  0.5410E-07  0.3067E+00
      4.800  0.0000E+00  0.3069E+00
      4.917  0.0000E+00  0.3069E+00
      5.035  0.0000E+00  0.3069E+00
      5.152  0.0000E+00  0.3069E+00
      5.270  0.0000E+00  0.3069E+00
      5.388  0.7442E-05  0.3069E+00
      5.505  0.1552E-04  0.3079E+00
      5.623  0.0000E+00  0.3084E+00
      5.741  0.0000E+00  0.3084E+00
      5.858  0.0000E+00  0.3084E+00
      5.976  0.2442E-15  0.3084E+00
      6.093  0.8397E-02  0.3094E+00
      6.211  0.1679E-01  0.3114E+00
      6.329  0.0000E+00  0.3114E+00
      6.446  0.0000E+00  0.3114E+00
      6.564  0.0000E+00  0.3114E+00
      6.682  0.5012E-06  0.3114E+00
      6.799  0.0000E+00  0.3133E+00
      6.917  0.0000E+00  0.3133E+00
      7.034  0.1396E-07  0.3133E+00
      7.152  0.4198E-02  0.3148E+00
      7.270  0.8387E-02  0.3158E+00
      7.387  0.6697E-07  0.3158E+00
      7.505  0.8397E-02  0.3178E+00
      7.623  0.8741E-02  0.3188E+00
      7.740  0.0000E+00  0.3200E+00
      7.858  0.6229E-12  0.3200E+00
      7.975  0.8397E-02  0.3210E+00
      8.093  0.1679E-01  0.3230E+00
      8.211  0.1192E-01  0.3244E+00
      8.328  0.4947E-01  0.3317E+00
      8.446  0.3359E-01  0.3373E+00
      8.564  0.1889E-01  0.3395E+00
      8.681  0.1968E-01  0.3418E+00
      8.799  0.0000E+00  0.3425E+00
      8.916  0.2099E-02  0.3427E+00
      9.034  0.1668E-01  0.3447E+00
      9.152  0.8441E-02  0.3457E+00
      9.269  0.2939E-01  0.3496E+00
      9.387  0.8397E-02  0.3516E+00
      9.505  0.1617E-07  0.3526E+00
      9.622  0.3379E-02  0.3532E+00
      9.740  0.1050E-01  0.3573E+00
      9.857  0.2099E-01  0.3602E+00
      9.975  0.4816E-05  0.3607E+00
     10.093  0.1266E-01  0.3632E+00
     10.210  0.1679E-01  0.3662E+00
     10.328  0.2099E-02  0.3664E+00
     10.446  0.4110E-01  0.3727E+00
     10.563  0.4198E-02  0.3733E+00
     10.681  0.0000E+00  0.3733E+00
     10.798  0.0000E+00  0.3733E+00
     10.916  0.0000E+00  0.3733E+00
     11.034  0.0000E+00  0.3733E+00
     11.151  0.0000E+00  0.3733E+00
     11.269  0.0000E+00  0.3733E+00
     11.387  0.0000E+00  0.3733E+00
     11.504  0.0000E+00  0.3733E+00
     11.622  0.0000E+00  0.3733E+00
     11.739  0.0000E+00  0.3733E+00
     11.857  0.0000E+00  0.3733E+00
     11.975  0.0000E+00  0.3733E+00
     12.092  0.0000E+00  0.3733E+00
