 vasp.6.4.1 05Apr23 (build Jun  6 2023 14:36:51) complex                         
 executed on        HPECrayEX_GCC date 2024.10.11  09:10:20
 running  256 mpi-ranks, with    1 threads/rank, on    2 nodes
 distrk:  each k-point on  256 cores,    1 groups
 distr:  one band on NCORE=  64 cores,    4 groups


--------------------------------------------------------------------------------------------------------


 INCAR:
   NPAR = 4
   ISMEAR = 0
   SIGMA = 0.01
   PREC = Accurate
   EDIFF = 1E-7
   ENCUT = 1000
   ISIF = 2
   IBRION = 2
   NSW = 300
   EDIFFG = 1E-6
   GGA = ML
   LUSE_VDW = .TRUE.
   ZAB_VDW = -1.8867
   AGGAC = 0.0000
   LASPH = .TRUE.
   SYMPREC = 1E-7
   ALGO = Conjugate
   LWAVE = .FALSE.
   LCHARG = .FALSE.

 POTCAR:    PAW_PBE C_h 06Feb2004                 
 POTCAR:    PAW_PBE H_h 06Feb2004                 
 POTCAR:    PAW_PBE O_h 06Feb2004                 
 -----------------------------------------------------------------------------
|                                                                             |
|               ----> ADVICE to this user running VASP <----                  |
|                                                                             |
|     You have switched on vdW-DFT.                                           |
|     This routine was written and supplied by Jiri Klimes. We recommend      |
|     that you carefully read and cite the following publications:            |
|       J. Klimes, D.R. Bowler, A. Michelides                                 |
|          J. Phys.: Cond Matt. 22 022201 (2010)                              |
|       J. Klimes, D.R. Bowler, A. Michelides                                 |
|          Phys. Rev. B. 83, 195131 (2011)                                    |
|     and references therein.                                                 |
|                                                                             |
 -----------------------------------------------------------------------------

 POTCAR:    PAW_PBE C_h 06Feb2004                 
   VRHFIN =C: s2p2                                                                                  
   LEXCH  = PE                                                                                      
   EATOM  =   147.1560 eV,   10.8157 Ry                                                             
                                                                                                    
   TITEL  = PAW_PBE C_h 06Feb2004                                                                   
   LULTRA =        F    use ultrasoft PP ?                                                          
   IUNSCR =        1    unscreen: 0-lin 1-nonlin 2-no                                               
   RPACOR =    0.800    partial core radius                                                         
   POMASS =   12.011; ZVAL   =    4.000    mass and valenz                                          
   RCORE  =    1.100    outmost cutoff radius                                                       
   RWIGS  =    1.630; RWIGS  =    0.863    wigner-seitz radius (au A)                               
   ENMAX  =  700.000; ENMIN  =  500.000 eV                                                          
   ICORE  =        2    local potential                                                             
   LCOR   =        T    correct aug charges                                                         
   LPAW   =        T    paw PP                                                                      
   EAUG   =  946.768                                                                                
   DEXC   =    0.000                                                                                
   RMAX   =    1.128    core radius for proj-oper                                                   
   RAUG   =    1.300    factor for augmentation sphere                                              
   RDEP   =    1.162    radius for radial grids                                                     
   RDEPT  =    1.088    core radius for aug-charge                                                  
                                                                                                    
   Atomic configuration                                                                             
    4 entries                                                                                       
     n  l   j            E        occ.                                                              
     1  0  0.50      -273.3789   2.0000                                                             
     2  0  0.50       -13.7508   2.0000                                                             
     2  1  0.50        -5.2854   2.0000                                                             
     3  2  1.50        -5.4423   0.0000                                                             
   Description                                                                                      
     l       E           TYP  RCUT    TYP  RCUT                                                     
     0    -13.7508458     23  1.100                                                                 
     0     -8.2022199     23  1.100                                                                 
     1     -5.2854383     23  1.100                                                                 
     1      1.1560700     23  1.100                                                                 
     2     -5.4423304      7  1.100                                                                 
  local pseudopotential read in
  partial core-charges read in
  partial kinetic energy density read in
  atomic valenz-charges read in
  non local Contribution for L=           0  read in
    real space projection operators read in
  non local Contribution for L=           0  read in
    real space projection operators read in
  non local Contribution for L=           1  read in
    real space projection operators read in
  non local Contribution for L=           1  read in
    real space projection operators read in
    PAW grid and wavefunctions read in

   number of l-projection  operators is LMAX  =           4
   number of lm-projection operators is LMMAX =           8

 POTCAR:    PAW_PBE H_h 06Feb2004                 
   VRHFIN =H: ultrasoft test                                                                        
   LEXCH  = PE                                                                                      
   EATOM  =    12.4884 eV,    0.9179 Ry                                                             
                                                                                                    
   TITEL  = PAW_PBE H_h 06Feb2004                                                                   
   LULTRA =        F    use ultrasoft PP ?                                                          
   IUNSCR =        0    unscreen: 0-lin 1-nonlin 2-no                                               
   RPACOR =    0.000    partial core radius                                                         
   POMASS =    1.000; ZVAL   =    1.000    mass and valenz                                          
   RCORE  =    0.800    outmost cutoff radius                                                       
   RWIGS  =    0.700; RWIGS  =    0.370    wigner-seitz radius (au A)                               
   ENMAX  =  700.000; ENMIN  =  350.000 eV                                                          
   RCLOC  =    0.701    cutoff for local pot                                                        
   LCOR   =        T    correct aug charges                                                         
   LPAW   =        T    paw PP                                                                      
   EAUG   = 1000.000                                                                                
   RMAX   =    0.819    core radius for proj-oper                                                   
   RAUG   =    1.000    factor for augmentation sphere                                              
   RDEP   =    0.817    radius for radial grids                                                     
   RDEPT  =    0.817    core radius for aug-charge                                                  
                                                                                                    
   Atomic configuration                                                                             
    2 entries                                                                                       
     n  l   j            E        occ.                                                              
     1  0  0.50        -6.4927   1.0000                                                             
     2  1  0.50        -3.4015   0.0000                                                             
   Description                                                                                      
     l       E           TYP  RCUT    TYP  RCUT                                                     
     0     -6.4927493     23  0.800                                                                 
     0      6.8029130     23  0.800                                                                 
     1     -6.8029130     23  0.800                                                                 
  local pseudopotential read in
  atomic valenz-charges read in
  non local Contribution for L=           0  read in
    real space projection operators read in
  non local Contribution for L=           0  read in
    real space projection operators read in
  non local Contribution for L=           1  read in
    real space projection operators read in
    PAW grid and wavefunctions read in

   number of l-projection  operators is LMAX  =           3
   number of lm-projection operators is LMMAX =           5

 POTCAR:    PAW_PBE O_h 06Feb2004                 
   VRHFIN =O: s2p4                                                                                  
   LEXCH  = PE                                                                                      
   EATOM  =   432.3788 eV,   31.7789 Ry                                                             
                                                                                                    
   TITEL  = PAW_PBE O_h 06Feb2004                                                                   
   LULTRA =        F    use ultrasoft PP ?                                                          
   IUNSCR =        1    unscreen: 0-lin 1-nonlin 2-no                                               
   RPACOR =    0.800    partial core radius                                                         
   POMASS =   16.000; ZVAL   =    6.000    mass and valenz                                          
   RCORE  =    1.100    outmost cutoff radius                                                       
   RWIGS  =    1.400; RWIGS  =    0.741    wigner-seitz radius (au A)                               
   ENMAX  =  700.000; ENMIN  =  500.000 eV                                                          
   ICORE  =        2    local potential                                                             
   LCOR   =        T    correct aug charges                                                         
   LPAW   =        T    paw PP                                                                      
   EAUG   =  888.804                                                                                
   DEXC   =    0.000                                                                                
   RMAX   =    1.128    core radius for proj-oper                                                   
   RAUG   =    1.300    factor for augmentation sphere                                              
   RDEP   =    1.125    radius for radial grids                                                     
   RDEPT  =    1.088    core radius for aug-charge                                                  
                                                                                                    
   Atomic configuration                                                                             
    4 entries                                                                                       
     n  l   j            E        occ.                                                              
     1  0  0.50      -514.6923   2.0000                                                             
     2  0  0.50       -23.9615   2.0000                                                             
     2  1  0.50        -9.0305   4.0000                                                             
     3  2  1.50        -9.5241   0.0000                                                             
   Description                                                                                      
     l       E           TYP  RCUT    TYP  RCUT                                                     
     0    -23.9615319     23  1.100                                                                 
     0    -25.3221145     23  1.100                                                                 
     1     -9.0304911     23  1.100                                                                 
     1     -5.4802209     23  1.100                                                                 
     2     -9.5240782      7  1.100                                                                 
  local pseudopotential read in
  partial core-charges read in
  partial kinetic energy density read in
  atomic valenz-charges read in
  non local Contribution for L=           0  read in
    real space projection operators read in
  non local Contribution for L=           0  read in
    real space projection operators read in
  non local Contribution for L=           1  read in
    real space projection operators read in
  non local Contribution for L=           1  read in
    real space projection operators read in
    PAW grid and wavefunctions read in

   number of l-projection  operators is LMAX  =           4
   number of lm-projection operators is LMMAX =           8

 -----------------------------------------------------------------------------
|                                                                             |
|               ----> ADVICE to this user running VASP <----                  |
|                                                                             |
|     You have a (more or less) 'large supercell' and for larger cells it     |
|     might be more efficient to use real-space projection operators.         |
|     Therefore, try LREAL= Auto in the INCAR file.                           |
|     Mind: For very accurate calculation, you might also keep the            |
|     reciprocal projection scheme (i.e. LREAL=.FALSE.).                      |
|                                                                             |
 -----------------------------------------------------------------------------

 -----------------------------------------------------------------------------
|                                                                             |
|               ----> ADVICE to this user running VASP <----                  |
|                                                                             |
|     You enforced a specific xc type in the INCAR file but a different       |
|     type was found in the POTCAR file.                                      |
|     I HOPE YOU KNOW WHAT YOU ARE DOING!                                     |
|                                                                             |
 -----------------------------------------------------------------------------

  PAW_PBE C_h 06Feb2004                 :
 energy of atom  1       EATOM= -147.1560
 kinetic energy error for atom=    0.0031 (will be added to EATOM!!)
  PAW_PBE H_h 06Feb2004                 :
 energy of atom  2       EATOM=  -12.4884
 kinetic energy error for atom=    0.0006 (will be added to EATOM!!)
  PAW_PBE O_h 06Feb2004                 :
 energy of atom  3       EATOM= -432.3788
 kinetic energy error for atom=    0.0171 (will be added to EATOM!!)


 POSCAR:  C  H  O
  positions in direct lattice
  velocities in cartesian coordinates
 exchange correlation table for  LEXCH =       44
   RHO(1)=    0.500       N(1)  =     2000
   RHO(2)=  100.500       N(2)  =     4000

 VTST: version 4.1, (05/19/21)

 CHAIN: initializing optimizer
 
 OPT: Using VASP Conjugate-Gradient optimizer
 CHAIN: Read ICHAIN            0

 POSCAR:  C  H  O
  positions in direct lattice
  velocities in cartesian coordinates



--------------------------------------------------------------------------------------------------------


 ion  position               nearest neighbor table
   1  0.185  0.077  0.250-  13 1.24   3 1.47   7 1.52
   2  0.815  0.923  0.750-  14 1.24   4 1.47   8 1.52
   3  0.099  0.299  0.250-  15 1.31   5 1.42   1 1.47
   4  0.901  0.701  0.750-  16 1.31   6 1.42   2 1.47
   5  0.308  0.389  0.250-  17 1.31   3 1.42   7 1.47
   6  0.692  0.611  0.750-  18 1.31   4 1.42   8 1.47
   7  0.409  0.175  0.250-  19 1.24   5 1.47   1 1.52
   8  0.591  0.825  0.750-  20 1.24   6 1.47   2 1.52
   9  0.280  0.702  0.250-  17 1.02
  10  0.720  0.298  0.750-  18 1.02
  11  0.788  0.274  0.250-  15 1.02
  12  0.212  0.726  0.750-  16 1.02
  13  0.107  0.893  0.250-   1 1.24
  14  0.893  0.107  0.750-   2 1.24
  15  0.907  0.388  0.250-  11 1.02   3 1.31
  16  0.093  0.612  0.750-  12 1.02   4 1.31
  17  0.393  0.582  0.250-   9 1.02   5 1.31
  18  0.607  0.418  0.750-  10 1.02   6 1.31
  19  0.595  0.103  0.250-   7 1.24
  20  0.405  0.897  0.750-   8 1.24

  Warning from LATTYP: Monoclinic adjustment (A1->A3, A2->A1, A3->A2)!
  LATTYP: Found a simple monoclinic cell.
 ALAT       =     6.1919639457
 B/A-ratio  =     0.8754192942
 C/A-ratio  =     1.0026073619
 COS(beta)  =    -0.0002310392
  
  Lattice vectors:
  
 A1 = (  -0.0034340192,   6.1919629935,   0.0000000000)
 A2 = (   0.0000000000,   0.0000000000,   5.4205647070)
 A3 = (   6.2081083115,   0.0020086568,   0.0000000000)


Analysis of symmetry for initial positions (statically):
=====================================================================
 Subroutine PRICEL returns:
 Original cell was already a primitive cell.
 

 Routine SETGRP: Setting up the symmetry group for a 
 simple monoclinic supercell.


 Subroutine GETGRP returns: Found  4 space group operations
 (whereof  2 operations were pure point group operations)
 out of a pool of  4 trial point group operations.


The static configuration has the point symmetry S_2 .
 The point group associated with its full space group is C_2h.


Analysis of symmetry for dynamics (positions and initial velocities):
=====================================================================
 Subroutine PRICEL returns:
 Original cell was already a primitive cell.
 

 Routine SETGRP: Setting up the symmetry group for a 
 simple monoclinic supercell.


 Subroutine GETGRP returns: Found  4 space group operations
 (whereof  2 operations were pure point group operations)
 out of a pool of  4 trial point group operations.


The dynamic configuration has the point symmetry S_2 .
 The point group associated with its full space group is C_2h.


 Subroutine INISYM returns: Found  4 space group operations
 (whereof  2 operations are pure point group operations),
 and found     1 'primitive' translations


----------------------------------------------------------------------------------------

                                     Primitive cell                                     

  volume of cell :     208.3686

  direct lattice vectors                    reciprocal lattice vectors
     6.208108312  0.002008657  0.000000000     0.161079635  0.000089334 -0.000000000
    -0.003434019  6.191962993  0.000000000    -0.000052254  0.161499644 -0.000000000
     0.000000000  0.000000000  5.420564707    -0.000000000 -0.000000000  0.184482624

  length of vectors
     6.208108636  6.191963946  5.420564707     0.161079660  0.161499653  0.184482624

  position of ions in fractional coordinates (direct lattice)
     0.185122191  0.077239752  0.250000000
     0.814877809  0.922760250  0.750000000
     0.098641596  0.298698779  0.250000000
     0.901358403  0.701301222  0.750000000
     0.308190159  0.388781626  0.250000000
     0.691809840  0.611218376  0.750000000
     0.409088054  0.174669892  0.250000000
     0.590911945  0.825330109  0.750000000
     0.279584882  0.701662649  0.250000000
     0.720415122  0.298337354  0.750000000
     0.788024214  0.273559715  0.250000000
     0.211975785  0.726440279  0.750000000
     0.107006599  0.893196834  0.250000000
     0.892993402  0.106803167  0.750000000
     0.907485061  0.387531730  0.250000000
     0.092514936  0.612468267  0.750000000
     0.393404582  0.582098000  0.250000000
     0.606595420  0.417902001  0.750000000
     0.595298198  0.102683385  0.250000000
     0.404701800  0.897316615  0.750000000

  ion indices of the primitive-cell ions
   primitive index   ion index
                 1           1
                 2           2
                 3           3
                 4           4
                 5           5
                 6           6
                 7           7
                 8           8
                 9           9
                10          10
                11          11
                12          12
                13          13
                14          14
                15          15
                16          16
                17          17
                18          18
                19          19
                20          20

----------------------------------------------------------------------------------------



 KPOINTS: auto                                    

Automatic generation of k-mesh.
 Grid dimensions read from file:
 generate k-points for:    3    3    3

 Generating k-lattice:

  Cartesian coordinates                     Fractional coordinates (reciprocal lattice)
     0.053693212  0.000029778 -0.000000000     0.333333333 -0.000000000  0.000000000
    -0.000017418  0.053833215 -0.000000000     0.000000000  0.333333333  0.000000000
    -0.000000000 -0.000000000  0.061494208     0.000000000  0.000000000  0.333333333

  Length of vectors
     0.053693220  0.053833218  0.061494208

  Shift w.r.t. Gamma in fractional coordinates (k-lattice)
     0.000000000  0.000000000  0.000000000

 
 Subroutine IBZKPT returns following result:
 ===========================================
 
 Found     10 irreducible k-points:
 
 Following reciprocal coordinates:
            Coordinates               Weight
  0.000000  0.000000  0.000000      1.000000
  0.333333  0.000000  0.000000      2.000000
  0.000000  0.333333  0.000000      2.000000
  0.333333  0.333333  0.000000      2.000000
 -0.333333  0.333333  0.000000      2.000000
  0.000000  0.000000  0.333333      2.000000
  0.333333  0.000000  0.333333      4.000000
  0.000000  0.333333  0.333333      4.000000
  0.333333  0.333333  0.333333      4.000000
 -0.333333  0.333333  0.333333      4.000000
 
 Following cartesian coordinates:
            Coordinates               Weight
  0.000000  0.000000  0.000000      1.000000
  0.053693  0.000030 -0.000000      2.000000
 -0.000017  0.053833 -0.000000      2.000000
  0.053676  0.053863 -0.000000      2.000000
 -0.053711  0.053803 -0.000000      2.000000
 -0.000000 -0.000000  0.061494      2.000000
  0.053693  0.000030  0.061494      4.000000
 -0.000017  0.053833  0.061494      4.000000
  0.053676  0.053863  0.061494      4.000000
 -0.053711  0.053803  0.061494      4.000000
 


--------------------------------------------------------------------------------------------------------




 Dimension of arrays:
   k-points           NKPTS =     10   k-points in BZ     NKDIM =     10   number of bands    NBANDS=     56
   number of dos      NEDOS =    301   number of ions     NIONS =     20
   non local maximal  LDIM  =      4   non local SUM 2l+1 LMDIM =      8
   total plane-waves  NPLWV = 229376
   max r-space proj   IRMAX =      1   max aug-charges    IRDMAX=   8227
   dimension x,y,z NGX =    64 NGY =   64 NGZ =   56
   dimension x,y,z NGXF=   128 NGYF=  128 NGZF=  112
   support grid    NGXF=   128 NGYF=  128 NGZF=  112
   ions per type =               8   4   8
   NGX,Y,Z   is equivalent  to a cutoff of  17.14, 17.18, 17.17 a.u.
   NGXF,Y,Z  is equivalent  to a cutoff of  34.28, 34.37, 34.35 a.u.

 SYSTEM =  unknown system                          
 POSCAR =   C  H  O                                

 Startparameter for this run:
   NWRITE =      2    write-flag & timer
   PREC   = accura    normal or accurate (medium, high low for compatibility)
   ISTART =      0    job   : 0-new  1-cont  2-samecut
   ICHARG =      2    charge: 1-file 2-atom 10-const
   ISPIN  =      1    spin polarized calculation?
   LNONCOLLINEAR =      F non collinear calculations
   LSORBIT =      F    spin-orbit coupling
   INIWAV =      1    electr: 0-lowe 1-rand  2-diag
   LASPH  =      T    aspherical Exc in radial PAW
 Electronic Relaxation 1
   ENCUT  = 1000.0 eV  73.50 Ry    8.57 a.u.  16.01 15.97 13.98*2*pi/ulx,y,z
   ENINI  = 1000.0     initial cutoff
   ENAUG  = 1000.0 eV  augmentation charge cutoff
   NELM   =     60;   NELMIN=  2; NELMDL=  0     # of ELM steps 
   EDIFF  = 0.1E-06   stopping-criterion for ELM
   LREAL  =      F    real-space projection
   NLSPLINE    = F    spline interpolate recip. space projectors
   LCOMPAT=      F    compatible to vasp.4.4
   GGA_COMPAT  = T    GGA compatible to vasp.4.4-vasp.4.6
   LMAXPAW     = -100 max onsite density
   LMAXMIX     =    2 max onsite mixed and CHGCAR
   VOSKOWN=      0    Vosko Wilk Nusair interpolation
   ROPT   =    0.00000   0.00000   0.00000
 Ionic relaxation
   EDIFFG = 0.1E-05   stopping-criterion for IOM
   NSW    =    300    number of steps for IOM
   NBLOCK =      1;   KBLOCK =    300    inner block; outer block 
   IBRION =      2    ionic relax: 0-MD 1-quasi-New 2-CG
   NFREE  =      1    steps in history (QN), initial steepest desc. (CG)
   ISIF   =      2    stress and relaxation
   IWAVPR =     11    prediction:  0-non 1-charg 2-wave 3-comb
   ISYM   =      2    0-nonsym 1-usesym 2-fastsym
   LCORR  =      T    Harris-Foulkes like correction to forces

   POTIM  = 0.5000    time-step for ionic-motion
   TEIN   =    0.0    initial temperature
   TEBEG  =    0.0;   TEEND  =   0.0 temperature during run
   SMASS  =  -3.00    Nose mass-parameter (am)
   estimated Nose-frequenzy (Omega)   =  0.10E-29 period in steps = 0.13E+47 mass=  -0.881E-27a.u.
   SCALEE = 1.0000    scale energy and forces
   NPACO  =    256;   APACO  = 10.0  distance and # of slots for P.C.
   PSTRESS=    0.0 pullay stress

  Mass of Ions in am
   POMASS =  12.01  1.00 16.00
  Ionic Valenz
   ZVAL   =   4.00  1.00  6.00
  Atomic Wigner-Seitz radii
   RWIGS  =  -1.00 -1.00 -1.00
  virtual crystal weights 
   VCA    =   1.00  1.00  1.00
   NELECT =      84.0000    total number of electrons
   NUPDOWN=      -1.0000    fix difference up-down

 DOS related values:
   EMIN   =  10.00;   EMAX   =-10.00  energy-range for DOS
   EFERMI =   0.00;   METHOD = LEGACY      
   ISMEAR =     0;   SIGMA  =   0.01  broadening in eV -4-tet -1-fermi 0-gaus

 Electronic relaxation 2 (details)
   IALGO  =     58    algorithm
   LDIAG  =      T    sub-space diagonalisation (order eigenvalues)
   LSUBROT=      F    optimize rotation matrix (better conditioning)
   TURBO    =      0    0=normal 1=particle mesh
   IRESTART =      0    0=no restart 2=restart with 2 vectors
   NREBOOT  =      0    no. of reboots
   NMIN     =      0    reboot dimension
   EREF     =   0.00    reference energy to select bands
   IMIX   =      4    mixing-type and parameters
     AMIX     =   0.40;   BMIX     =  1.00
     AMIX_MAG =   1.60;   BMIX_MAG =  1.00
     AMIN     =   0.10
     WC   =   100.;   INIMIX=   1;  MIXPRE=   1;  MAXMIX= -45

 Intra band minimization:
   WEIMIN = 0.0010     energy-eigenvalue tresh-hold
   EBREAK =  0.45E-09  absolut break condition
   DEPER  =   0.30     relativ break condition  

   TIME   =   0.40     timestep for ELM

  volume/ion in A,a.u.               =      10.42        70.31
  Fermi-wavevector in a.u.,A,eV,Ry     =   1.209364  2.285367 19.899367  1.462562
  Thomas-Fermi vector in A             =   2.344944

 Write flags
   LWAVE        =      F    write WAVECAR
   LDOWNSAMPLE  =      F    k-point downsampling of WAVECAR
   LCHARG       =      F    write CHGCAR
   LVTOT        =      F    write LOCPOT, total local potential
   LVHAR        =      F    write LOCPOT, Hartree potential only
   LELF         =      F    write electronic localiz. function (ELF)
   LORBIT       =      0    0 simple, 1 ext, 2 COOP (PROOUT), +10 PAW based schemes


 Dipole corrections
   LMONO  =      F    monopole corrections only (constant potential shift)
   LDIPOL =      F    correct potential (dipole corrections)
   IDIPOL =      0    1-x, 2-y, 3-z, 4-all directions 
   EPSILON=  1.0000000 bulk dielectric constant

 Exchange correlation treatment:
   GGA     =    ML    GGA type
   LEXCH   =    44    internal setting for exchange type
   LIBXC   =     F    Libxc                    
   VOSKOWN =     0    Vosko Wilk Nusair interpolation
   LHFCALC =     F    Hartree Fock is set to
   LHFONE  =     F    Hartree Fock one center treatment
   AEXX    =    0.0000 exact exchange contribution

 vdW DFT:
   LUSE_VDW   =     T    switch on vdW DFT
   IVDW_NL    =     1    kernel type
   LSPIN_VDW  =     F    use spin-polarized vdW DFT
   Zab_VDW    =******    correlation parameter
   PARAM1     =0.1234
   PARAM2     =1.0000
   PARAM3     =0.0000
   -- rVV10 --
   BPARAM     = 6.3000
   CPARAM     = 0.0093

 Linear response parameters
   LEPSILON=     F    determine dielectric tensor
   LRPA    =     F    only Hartree local field effects (RPA)
   LNABLA  =     F    use nabla operator in PAW spheres
   LVEL    =     F    velocity operator in full k-point grid
   CSHIFT  =0.1000    complex shift for real part using Kramers Kronig
   OMEGAMAX=  -1.0    maximum frequency
   DEG_THRESHOLD= 0.2000000E-02 threshold for treating states as degnerate
   RTIME   =   -0.100 relaxation time in fs
  (WPLASMAI=    0.000 imaginary part of plasma frequency in eV, 0.658/RTIME)
   DFIELD  = 0.0000000 0.0000000 0.0000000 field for delta impulse in time

  Optional k-point grid parameters
   LKPOINTS_OPT  =     F    use optional k-point grid
   KPOINTS_OPT_MODE=     1    mode for optional k-point grid

 Orbital magnetization related:
   ORBITALMAG=     F  switch on orbital magnetization
   LCHIMAG   =     F  perturbation theory with respect to B field
   DQ        =  0.001000  dq finite difference perturbation B field
   LLRAUG    =     F  two centre corrections for induced B field
   LBONE     =     F  B-component reconstruction in AE one-centre
   LVGVCALC  =     T  calculate vGv susceptibility
   LVGVAPPL  =     F  apply vGv susceptibility instead of pGv for G=0

 Random number generation:
   RANDOM_GENERATOR = DEFAULT
   PCG_SEED         = not used


--------------------------------------------------------------------------------------------------------


 conjugate gradient relaxation of ions
 charge density and potential will be updated during run
 non-spin polarized calculation
 Conjugate gradient for all bands (Freysoldt, et al. PRB 79, 241103 (2009))
 preconditioned conjugated gradient                                        
 perform sub-space diagonalisation
    before iterative eigenvector-optimisation
 modified Broyden-mixing scheme, WC =      100.0
 initial mixing is a Kerker type mixing with AMIX =  0.4000 and BMIX =      1.0000
 Hartree-type preconditioning will be used
 using additional bands           14
 reciprocal scheme for non local part
 use partial core corrections
 no Harris-corrections to forces 
 use gradient corrections 
 use of overlap-Matrix (Vanderbilt PP)
 Gauss-broadening in eV      SIGMA  =   0.01


--------------------------------------------------------------------------------------------------------


  energy-cutoff  :     1000.00
  volume of cell :      208.37
      direct lattice vectors                 reciprocal lattice vectors
     6.208108312  0.002008657  0.000000000     0.161079635  0.000089334 -0.000000000
    -0.003434019  6.191962993  0.000000000    -0.000052254  0.161499644 -0.000000000
     0.000000000  0.000000000  5.420564707    -0.000000000 -0.000000000  0.184482624

  length of vectors
     6.208108636  6.191963946  5.420564707     0.161079660  0.161499653  0.184482624



 k-points in units of 2pi/SCALE and weight: auto                                    
   0.00000000  0.00000000  0.00000000       0.037
   0.05369321  0.00002978 -0.00000000       0.074
  -0.00001742  0.05383321 -0.00000000       0.074
   0.05367579  0.05386299 -0.00000000       0.074
  -0.05371063  0.05380344 -0.00000000       0.074
  -0.00000000 -0.00000000  0.06149421       0.074
   0.05369321  0.00002978  0.06149421       0.148
  -0.00001742  0.05383321  0.06149421       0.148
   0.05367579  0.05386299  0.06149421       0.148
  -0.05371063  0.05380344  0.06149421       0.148

 k-points in reciprocal lattice and weights: auto                                    
   0.00000000  0.00000000  0.00000000       0.037
   0.33333333  0.00000000  0.00000000       0.074
   0.00000000  0.33333333  0.00000000       0.074
   0.33333333  0.33333333  0.00000000       0.074
  -0.33333333  0.33333333  0.00000000       0.074
   0.00000000  0.00000000  0.33333333       0.074
   0.33333333  0.00000000  0.33333333       0.148
   0.00000000  0.33333333  0.33333333       0.148
   0.33333333  0.33333333  0.33333333       0.148
  -0.33333333  0.33333333  0.33333333       0.148

 position of ions in fractional coordinates (direct lattice) 
   0.18512219  0.07723975  0.25000000
   0.81487781  0.92276025  0.75000000
   0.09864160  0.29869878  0.25000000
   0.90135840  0.70130122  0.75000000
   0.30819016  0.38878163  0.25000000
   0.69180984  0.61121838  0.75000000
   0.40908805  0.17466989  0.25000000
   0.59091194  0.82533011  0.75000000
   0.27958488  0.70166265  0.25000000
   0.72041512  0.29833735  0.75000000
   0.78802421  0.27355972  0.25000000
   0.21197579  0.72644028  0.75000000
   0.10700660  0.89319683  0.25000000
   0.89299340  0.10680317  0.75000000
   0.90748506  0.38753173  0.25000000
   0.09251494  0.61246827  0.75000000
   0.39340458  0.58209800  0.25000000
   0.60659542  0.41790200  0.75000000
   0.59529820  0.10268338  0.25000000
   0.40470180  0.89731661  0.75000000

 position of ions in cartesian coordinates  (Angst):
   1.14899337  0.47863753  1.35514118
   5.05568092  5.71533413  4.06542353
   0.61135198  1.84972992  1.35514118
   5.59332231  4.34424173  4.06542353
   1.91194280  2.40794049  1.35514118
   4.29273148  3.78603117  4.06542353
   2.53906313  1.08237123  1.35514118
   3.66561116  5.11160043  4.06542353
   1.73328371  4.34523074  1.35514118
   4.47139061  1.84874092  4.06542353
   4.89120027  1.69545450  1.35514118
   1.31347402  4.49851711  4.06542353
   0.66124130  5.53085668  1.35514118
   5.54343300  0.66311497  4.06542353
   5.63243476  2.40140496  1.35514118
   0.57223952  3.79256667  4.06542353
   2.44029932  3.60511949  1.35514118
   3.76437498  2.58885217  4.06542353
   3.69532308  0.63700747  1.35514118
   2.50935120  5.55696418  4.06542353



--------------------------------------------------------------------------------------------------------


 k-point   1 :   0.0000 0.0000 0.0000  plane waves:   14965
 k-point   2 :   0.3333 0.0000 0.0000  plane waves:   14914
 k-point   3 :   0.0000 0.3333 0.0000  plane waves:   14910
 k-point   4 :   0.3333 0.3333 0.0000  plane waves:   14957
 k-point   5 :  -0.3333 0.3333 0.0000  plane waves:   14955
 k-point   6 :   0.0000 0.0000 0.3333  plane waves:   14952
 k-point   7 :   0.3333 0.0000 0.3333  plane waves:   14966
 k-point   8 :   0.0000 0.3333 0.3333  plane waves:   14966
 k-point   9 :   0.3333 0.3333 0.3333  plane waves:   14975
 k-point  10 :  -0.3333 0.3333 0.3333  plane waves:   14974

 maximum and minimum number of plane-waves per node :       246      221

 maximum number of plane-waves:     14975
 maximum index in each direction: 
   IXMAX=   16   IYMAX=   15   IZMAX=   13
   IXMIN=  -16   IYMIN=  -16   IZMIN=  -14


 parallel 3D FFT for wavefunctions:
    minimum data exchange during FFTs selected (reduces bandwidth)
 parallel 3D FFT for charge:
    minimum data exchange during FFTs selected (reduces bandwidth)


 total amount of memory used by VASP MPI-rank0    33942. kBytes
=======================================================================

   base      :      30000. kBytes
   nonl-proj :        546. kBytes
   fftplans  :        627. kBytes
   grid      :       1074. kBytes
   one-center:          3. kBytes
   wavefun   :       1692. kBytes

     INWAV:  cpu time      0.0000: real time      0.0000
 Broyden mixing: mesh for mixing (old mesh)
   NGX = 33   NGY = 31   NGZ = 27
  (NGX  =128   NGY  =128   NGZ  =112)
  gives a total of  27621 points

 initial charge density was supplied:
 charge density of overlapping atoms calculated
 number of electron      84.0000000 magnetization 
 charge density for first step will be calculated from the start-wavefunctions


--------------------------------------------------------------------------------------------------------


 Maximum index for augmentation-charges           32 (set IRDMAX)


--------------------------------------------------------------------------------------------------------


 First call to EWALD:  gamma=   0.299
 Maximum number of real-space cells 3x 3x 3
 Maximum number of reciprocal cells 3x 3x 3

    FEWALD:  cpu time      0.0040: real time      0.0040


--------------------------------------- Ionic step        1  -------------------------------------------




--------------------------------------- Iteration      1(   1)  ---------------------------------------


vdW kernel read from vdw_kernel.bindat
  0.0000  0.2424  0.5071  0.7962  1.1119  1.4567  1.8333  2.2446  2.6937  3.1842
  3.7199  4.3049  4.9438  5.6415  6.4036  7.2358  8.1446  9.1372 10.2212 11.4050
 12.6979 14.1099 15.6519 17.3360 19.1751 21.1837 23.3773 25.7729 28.3892 31.2465
 34.3669 37.7748 41.4965 45.5611 50.0000

    POTLOK:  cpu time      1.0646: real time      1.1028
    SETDIJ:  cpu time      0.0732: real time      0.0736
    TRIAL :  cpu time      0.6860: real time      0.6939
    CORREC:  cpu time      0.0035: real time      0.0035
    --------------------------------------------
      LOOP:  cpu time      1.8296: real time      1.9158

 eigenvalue-minimisations  :  1120
 total energy-change (2. order) : 0.8814555E+03  (-0.6629529E+04)
 number of electron      84.0000000 magnetization 
 augmentation part       84.0000000 magnetization 

 Free energy of the ion-electron system (eV)
  ---------------------------------------------------
  alpha Z        PSCENC =        98.27732586
  Ewald energy   TEWEN  =     -2681.25841671
  -Hartree energ DENC   =     -1699.43680813
  -exchange      EXHF   =         0.00000000
  -V(xc)+E(xc)   XCENC  =       258.02425071
  PAW double counting   =      3712.39422283    -3680.94482746
  entropy T*S    EENTRO =        -0.00000965
  eigenvalues    EBANDS =       108.83393685
  atomic energy  EATOM  =      4765.56581041
  ---------------------------------------------------
  free energy    TOTEN  =       881.45548472 eV

  energy without entropy =      881.45549437  energy(sigma->0) =      881.45548954


--------------------------------------------------------------------------------------------------------




--------------------------------------- Iteration      1(   2)  ---------------------------------------


    TRIAL :  cpu time      0.5996: real time      0.5999
    CORREC:  cpu time      0.0003: real time      0.0003
    --------------------------------------------
      LOOP:  cpu time      0.6136: real time      0.6296

 eigenvalue-minimisations  :  1560
 total energy-change (2. order) :-0.8776732E+03  (-0.8473115E+03)
 number of electron      84.0000000 magnetization 
 augmentation part       84.0000000 magnetization 

 Free energy of the ion-electron system (eV)
  ---------------------------------------------------
  alpha Z        PSCENC =        98.27732586
  Ewald energy   TEWEN  =     -2681.25841671
  -Hartree energ DENC   =     -1699.43680813
  -exchange      EXHF   =         0.00000000
  -V(xc)+E(xc)   XCENC  =       258.02425071
  PAW double counting   =      3712.39422283    -3680.94482746
  entropy T*S    EENTRO =        -0.00000000
  eigenvalues    EBANDS =      -768.83925978
  atomic energy  EATOM  =      4765.56581041
  ---------------------------------------------------
  free energy    TOTEN  =         3.78229774 eV

  energy without entropy =        3.78229774  energy(sigma->0) =        3.78229774


--------------------------------------------------------------------------------------------------------




--------------------------------------- Iteration      1(   3)  ---------------------------------------


    TRIAL :  cpu time      0.5279: real time      0.5281
    CORREC:  cpu time      0.0002: real time      0.0002
    --------------------------------------------
      LOOP:  cpu time      0.5422: real time      0.5591

 eigenvalue-minimisations  :  1320
 total energy-change (2. order) :-0.1222614E+03  (-0.1206967E+03)
 number of electron      84.0000000 magnetization 
 augmentation part       84.0000000 magnetization 

 Free energy of the ion-electron system (eV)
  ---------------------------------------------------
  alpha Z        PSCENC =        98.27732586
  Ewald energy   TEWEN  =     -2681.25841671
  -Hartree energ DENC   =     -1699.43680813
  -exchange      EXHF   =         0.00000000
  -V(xc)+E(xc)   XCENC  =       258.02425071
  PAW double counting   =      3712.39422283    -3680.94482746
  entropy T*S    EENTRO =        -0.00000000
  eigenvalues    EBANDS =      -891.10065936
  atomic energy  EATOM  =      4765.56581041
  ---------------------------------------------------
  free energy    TOTEN  =      -118.47910184 eV

  energy without entropy =     -118.47910184  energy(sigma->0) =     -118.47910184


--------------------------------------------------------------------------------------------------------




--------------------------------------- Iteration      1(   4)  ---------------------------------------


    TRIAL :  cpu time      0.5856: real time      0.5856
    CORREC:  cpu time      0.0003: real time      0.0003
    --------------------------------------------
      LOOP:  cpu time      0.6155: real time      0.6161

 eigenvalue-minimisations  :  1536
 total energy-change (2. order) :-0.4398487E+01  (-0.4380374E+01)
 number of electron      84.0000000 magnetization 
 augmentation part       84.0000000 magnetization 

 Free energy of the ion-electron system (eV)
  ---------------------------------------------------
  alpha Z        PSCENC =        98.27732586
  Ewald energy   TEWEN  =     -2681.25841671
  -Hartree energ DENC   =     -1699.43680813
  -exchange      EXHF   =         0.00000000
  -V(xc)+E(xc)   XCENC  =       258.02425071
  PAW double counting   =      3712.39422283    -3680.94482746
  entropy T*S    EENTRO =        -0.00000000
  eigenvalues    EBANDS =      -895.49914683
  atomic energy  EATOM  =      4765.56581041
  ---------------------------------------------------
  free energy    TOTEN  =      -122.87758931 eV

  energy without entropy =     -122.87758931  energy(sigma->0) =     -122.87758931


--------------------------------------------------------------------------------------------------------




--------------------------------------- Iteration      1(   5)  ---------------------------------------


    TRIAL :  cpu time      0.5477: real time      0.5480
    CORREC:  cpu time      0.0004: real time      0.0004
    CHARGE:  cpu time      0.0736: real time      0.0741
    --------------------------------------------
      LOOP:  cpu time      0.6363: real time      0.6526

 eigenvalue-minimisations  :  1400
 total energy-change (2. order) :-0.1102596E+00  (-0.1101605E+00)
 number of electron      84.0000001 magnetization 
 augmentation part        0.6476144 magnetization 

 Free energy of the ion-electron system (eV)
  ---------------------------------------------------
  alpha Z        PSCENC =        98.27732586
  Ewald energy   TEWEN  =     -2681.25841671
  -Hartree energ DENC   =     -1699.43680813
  -exchange      EXHF   =         0.00000000
  -V(xc)+E(xc)   XCENC  =       258.02425071
  PAW double counting   =      3712.39422283    -3680.94482746
  entropy T*S    EENTRO =        -0.00000000
  eigenvalues    EBANDS =      -895.60940646
  atomic energy  EATOM  =      4765.56581041
  ---------------------------------------------------
  free energy    TOTEN  =      -122.98784894 eV

  energy without entropy =     -122.98784894  energy(sigma->0) =     -122.98784894


--------------------------------------------------------------------------------------------------------




--------------------------------------- Iteration      1(   6)  ---------------------------------------


    POTLOK:  cpu time      0.4230: real time      0.4230
    SETDIJ:  cpu time      0.0693: real time      0.0693
    TRIAL :  cpu time      0.3311: real time      0.3318
    CORREC:  cpu time      0.7316: real time      0.7325
    CHARGE:  cpu time      0.0563: real time      0.0563
    --------------------------------------------
      LOOP:  cpu time      1.6270: real time      1.6423

 eigenvalue-minimisations  :     0
 total energy-change (2. order) : 0.2416957E+02  (-0.1209305E+02)
 number of electron      84.0000001 magnetization 
 augmentation part        0.4263786 magnetization 

 Free energy of the ion-electron system (eV)
  ---------------------------------------------------
  alpha Z        PSCENC =        98.27732586
  Ewald energy   TEWEN  =     -2681.25841671
  -Hartree energ DENC   =     -2104.04966829
  -exchange      EXHF   =         0.00000000
  -V(xc)+E(xc)   XCENC  =       284.59770230
  PAW double counting   =     27281.24103574   -27259.33532138
  entropy T*S    EENTRO =        -0.00000000
  eigenvalues    EBANDS =      -483.85674291
  atomic energy  EATOM  =      4765.56581041
  ---------------------------------------------------
  free energy    TOTEN  =       -98.81827497 eV

  energy without entropy =      -98.81827497  energy(sigma->0) =      -98.81827497


--------------------------------------------------------------------------------------------------------




--------------------------------------- Iteration      1(   7)  ---------------------------------------


    POTLOK:  cpu time      0.4500: real time      0.4500
    SETDIJ:  cpu time      0.0664: real time      0.0664
    TRIAL :  cpu time      0.2986: real time      0.2987
    CORREC:  cpu time      0.7197: real time      0.7200
    CHARGE:  cpu time      0.0550: real time      0.0550
    --------------------------------------------
      LOOP:  cpu time      1.6192: real time      1.6205

 eigenvalue-minimisations  :     0
 total energy-change (2. order) :-0.1218450E+02  (-0.1117854E+01)
 number of electron      84.0000001 magnetization 
 augmentation part        0.3481465 magnetization 

 Free energy of the ion-electron system (eV)
  ---------------------------------------------------
  alpha Z        PSCENC =        98.27732586
  Ewald energy   TEWEN  =     -2681.25841671
  -Hartree energ DENC   =     -1898.34792206
  -exchange      EXHF   =         0.00000000
  -V(xc)+E(xc)   XCENC  =       271.28854114
  PAW double counting   =     33470.15362717   -33444.23485952
  entropy T*S    EENTRO =        -0.00000000
  eigenvalues    EBANDS =      -692.44687935
  atomic energy  EATOM  =      4765.56581041
  ---------------------------------------------------
  free energy    TOTEN  =      -111.00277306 eV

  energy without entropy =     -111.00277306  energy(sigma->0) =     -111.00277306


--------------------------------------------------------------------------------------------------------




--------------------------------------- Iteration      1(   8)  ---------------------------------------


    POTLOK:  cpu time      0.4215: real time      0.4217
    SETDIJ:  cpu time      0.0664: real time      0.0664
    TRIAL :  cpu time      0.2971: real time      0.2971
    CORREC:  cpu time      0.7167: real time      0.7169
    CHARGE:  cpu time      0.0548: real time      0.0548
    --------------------------------------------
      LOOP:  cpu time      1.5868: real time      1.5877

 eigenvalue-minimisations  :     0
 total energy-change (2. order) :-0.1117377E+01  (-0.3388615E+00)
 number of electron      84.0000000 magnetization 
 augmentation part        0.3517687 magnetization 

 Free energy of the ion-electron system (eV)
  ---------------------------------------------------
  alpha Z        PSCENC =        98.27732586
  Ewald energy   TEWEN  =     -2681.25841671
  -Hartree energ DENC   =     -1888.35866502
  -exchange      EXHF   =         0.00000000
  -V(xc)+E(xc)   XCENC  =       270.70419220
  PAW double counting   =     35231.82643877   -35205.15837732
  entropy T*S    EENTRO =        -0.00000000
  eigenvalues    EBANDS =      -703.71845858
  atomic energy  EATOM  =      4765.56581041
  ---------------------------------------------------
  free energy    TOTEN  =      -112.12015038 eV

  energy without entropy =     -112.12015038  energy(sigma->0) =     -112.12015038


--------------------------------------------------------------------------------------------------------




--------------------------------------- Iteration      1(   9)  ---------------------------------------


    POTLOK:  cpu time      0.4214: real time      0.4214
    SETDIJ:  cpu time      0.0664: real time      0.0664
    TRIAL :  cpu time      0.2968: real time      0.2970
    CORREC:  cpu time      0.7449: real time      0.7449
    CHARGE:  cpu time      0.0546: real time      0.0546
    --------------------------------------------
      LOOP:  cpu time      1.5989: real time      1.6145

 eigenvalue-minimisations  :     0
 total energy-change (2. order) :-0.3381644E+00  (-0.1125861E+00)
 number of electron      84.0000000 magnetization 
 augmentation part        0.3612092 magnetization 

 Free energy of the ion-electron system (eV)
  ---------------------------------------------------
  alpha Z        PSCENC =        98.27732586
  Ewald energy   TEWEN  =     -2681.25841671
  -Hartree energ DENC   =     -1888.83371805
  -exchange      EXHF   =         0.00000000
  -V(xc)+E(xc)   XCENC  =       270.77115102
  PAW double counting   =     36589.69320107   -36562.99018630
  entropy T*S    EENTRO =        -0.00000000
  eigenvalues    EBANDS =      -703.68348211
  atomic energy  EATOM  =      4765.56581041
  ---------------------------------------------------
  free energy    TOTEN  =      -112.45831481 eV

  energy without entropy =     -112.45831481  energy(sigma->0) =     -112.45831481


--------------------------------------------------------------------------------------------------------




--------------------------------------- Iteration      1(  10)  ---------------------------------------


    POTLOK:  cpu time      0.4210: real time      0.4213
    SETDIJ:  cpu time      0.0664: real time      0.0664
    TRIAL :  cpu time      0.2979: real time      0.2979
    CORREC:  cpu time      0.7160: real time      0.7163
    CHARGE:  cpu time      0.0547: real time      0.0547
    --------------------------------------------
      LOOP:  cpu time      1.5739: real time      1.5883

 eigenvalue-minimisations  :     0
 total energy-change (2. order) :-0.1122775E+00  (-0.3273642E-01)
 number of electron      84.0000000 magnetization 
 augmentation part        0.3655154 magnetization 

 Free energy of the ion-electron system (eV)
  ---------------------------------------------------
  alpha Z        PSCENC =        98.27732586
  Ewald energy   TEWEN  =     -2681.25841671
  -Hartree energ DENC   =     -1885.85765327
  -exchange      EXHF   =         0.00000000
  -V(xc)+E(xc)   XCENC  =       270.58153464
  PAW double counting   =     36436.52887269   -36409.88880864
  entropy T*S    EENTRO =        -0.00000000
  eigenvalues    EBANDS =      -706.51925734
  atomic energy  EATOM  =      4765.56581041
  ---------------------------------------------------
  free energy    TOTEN  =      -112.57059236 eV

  energy without entropy =     -112.57059236  energy(sigma->0) =     -112.57059236


--------------------------------------------------------------------------------------------------------




--------------------------------------- Iteration      1(  11)  ---------------------------------------


    POTLOK:  cpu time      0.4657: real time      0.4657
    SETDIJ:  cpu time      0.0665: real time      0.0665
    TRIAL :  cpu time      0.2964: real time      0.2967
    CORREC:  cpu time      0.7979: real time      0.7981
    CHARGE:  cpu time      0.0547: real time      0.0547
    --------------------------------------------
      LOOP:  cpu time      1.6947: real time      1.7130

 eigenvalue-minimisations  :     0
 total energy-change (2. order) :-0.3271704E-01  (-0.8355892E-02)
 number of electron      84.0000000 magnetization 
 augmentation part        0.3650118 magnetization 

 Free energy of the ion-electron system (eV)
  ---------------------------------------------------
  alpha Z        PSCENC =        98.27732586
  Ewald energy   TEWEN  =     -2681.25841671
  -Hartree energ DENC   =     -1885.59213523
  -exchange      EXHF   =         0.00000000
  -V(xc)+E(xc)   XCENC  =       270.55444024
  PAW double counting   =     36056.29133851   -36029.70282038
  entropy T*S    EENTRO =        -0.00000000
  eigenvalues    EBANDS =      -706.73885210
  atomic energy  EATOM  =      4765.56581041
  ---------------------------------------------------
  free energy    TOTEN  =      -112.60330939 eV

  energy without entropy =     -112.60330939  energy(sigma->0) =     -112.60330939


--------------------------------------------------------------------------------------------------------




--------------------------------------- Iteration      1(  12)  ---------------------------------------


    POTLOK:  cpu time      0.4226: real time      0.4226
    SETDIJ:  cpu time      0.0664: real time      0.0664
    TRIAL :  cpu time      0.2959: real time      0.2960
    CORREC:  cpu time      0.7228: real time      0.7230
    CHARGE:  cpu time      0.0543: real time      0.0543
    --------------------------------------------
      LOOP:  cpu time      1.5923: real time      1.5930

 eigenvalue-minimisations  :     0
 total energy-change (2. order) :-0.8346584E-02  (-0.1963375E-02)
 number of electron      84.0000000 magnetization 
 augmentation part        0.3647427 magnetization 

 Free energy of the ion-electron system (eV)
  ---------------------------------------------------
  alpha Z        PSCENC =        98.27732586
  Ewald energy   TEWEN  =     -2681.25841671
  -Hartree energ DENC   =     -1884.29820775
  -exchange      EXHF   =         0.00000000
  -V(xc)+E(xc)   XCENC  =       270.46060711
  PAW double counting   =     36128.64271394   -36102.04077750
  entropy T*S    EENTRO =        -0.00000000
  eigenvalues    EBANDS =      -707.96071133
  atomic energy  EATOM  =      4765.56581041
  ---------------------------------------------------
  free energy    TOTEN  =      -112.61165598 eV

  energy without entropy =     -112.61165598  energy(sigma->0) =     -112.61165598


--------------------------------------------------------------------------------------------------------




--------------------------------------- Iteration      1(  13)  ---------------------------------------


    POTLOK:  cpu time      0.4213: real time      0.4215
    SETDIJ:  cpu time      0.0664: real time      0.0664
    TRIAL :  cpu time      0.2947: real time      0.2947
    CORREC:  cpu time      0.7152: real time      0.7154
    CHARGE:  cpu time      0.0547: real time      0.0547
    --------------------------------------------
      LOOP:  cpu time      1.5694: real time      1.5847

 eigenvalue-minimisations  :     0
 total energy-change (2. order) :-0.1959950E-02  (-0.4435270E-03)
 number of electron      84.0000000 magnetization 
 augmentation part        0.3641377 magnetization 

 Free energy of the ion-electron system (eV)
  ---------------------------------------------------
  alpha Z        PSCENC =        98.27732586
  Ewald energy   TEWEN  =     -2681.25841671
  -Hartree energ DENC   =     -1884.77270592
  -exchange      EXHF   =         0.00000000
  -V(xc)+E(xc)   XCENC  =       270.49070527
  PAW double counting   =     36149.67663790   -36123.07869558
  entropy T*S    EENTRO =        -0.00000000
  eigenvalues    EBANDS =      -707.51427716
  atomic energy  EATOM  =      4765.56581041
  ---------------------------------------------------
  free energy    TOTEN  =      -112.61361593 eV

  energy without entropy =     -112.61361593  energy(sigma->0) =     -112.61361593


--------------------------------------------------------------------------------------------------------




--------------------------------------- Iteration      1(  14)  ---------------------------------------


    POTLOK:  cpu time      0.4212: real time      0.4212
    SETDIJ:  cpu time      0.0664: real time      0.0664
    TRIAL :  cpu time      0.2954: real time      0.2956
    CORREC:  cpu time      0.7162: real time      0.7162
    CHARGE:  cpu time      0.0548: real time      0.0548
    --------------------------------------------
      LOOP:  cpu time      1.5657: real time      1.5852

 eigenvalue-minimisations  :     0
 total energy-change (2. order) :-0.4427368E-03  (-0.1296192E-03)
 number of electron      84.0000000 magnetization 
 augmentation part        0.3643029 magnetization 

 Free energy of the ion-electron system (eV)
  ---------------------------------------------------
  alpha Z        PSCENC =        98.27732586
  Ewald energy   TEWEN  =     -2681.25841671
  -Hartree energ DENC   =     -1884.38716098
  -exchange      EXHF   =         0.00000000
  -V(xc)+E(xc)   XCENC  =       270.46508424
  PAW double counting   =     36141.88583224   -36115.28080579
  entropy T*S    EENTRO =        -0.00000000
  eigenvalues    EBANDS =      -707.88172794
  atomic energy  EATOM  =      4765.56581041
  ---------------------------------------------------
  free energy    TOTEN  =      -112.61405866 eV

  energy without entropy =     -112.61405866  energy(sigma->0) =     -112.61405866


--------------------------------------------------------------------------------------------------------




--------------------------------------- Iteration      1(  15)  ---------------------------------------


    POTLOK:  cpu time      0.4215: real time      0.4217
    SETDIJ:  cpu time      0.0693: real time      0.0693
    TRIAL :  cpu time      0.2954: real time      0.2954
    CORREC:  cpu time      0.7153: real time      0.7155
    CHARGE:  cpu time      0.0546: real time      0.0547
    --------------------------------------------
      LOOP:  cpu time      1.5872: real time      1.5880

 eigenvalue-minimisations  :     0
 total energy-change (2. order) :-0.1302199E-03  (-0.4407773E-04)
 number of electron      84.0000000 magnetization 
 augmentation part        0.3642160 magnetization 

 Free energy of the ion-electron system (eV)
  ---------------------------------------------------
  alpha Z        PSCENC =        98.27732586
  Ewald energy   TEWEN  =     -2681.25841671
  -Hartree energ DENC   =     -1884.56595542
  -exchange      EXHF   =         0.00000000
  -V(xc)+E(xc)   XCENC  =       270.47566614
  PAW double counting   =     36108.75787070   -36082.15706245
  entropy T*S    EENTRO =        -0.00000000
  eigenvalues    EBANDS =      -707.70942742
  atomic energy  EATOM  =      4765.56581041
  ---------------------------------------------------
  free energy    TOTEN  =      -112.61418888 eV

  energy without entropy =     -112.61418888  energy(sigma->0) =     -112.61418888


--------------------------------------------------------------------------------------------------------




--------------------------------------- Iteration      1(  16)  ---------------------------------------


    POTLOK:  cpu time      0.4214: real time      0.4214
    SETDIJ:  cpu time      0.0662: real time      0.0664
    TRIAL :  cpu time      0.2953: real time      0.2953
    CORREC:  cpu time      0.7159: real time      0.7161
    CHARGE:  cpu time      0.0546: real time      0.0546
    --------------------------------------------
      LOOP:  cpu time      1.5657: real time      1.5850

 eigenvalue-minimisations  :     0
 total energy-change (2. order) :-0.4404134E-04  (-0.1733196E-04)
 number of electron      84.0000000 magnetization 
 augmentation part        0.3641718 magnetization 

 Free energy of the ion-electron system (eV)
  ---------------------------------------------------
  alpha Z        PSCENC =        98.27732586
  Ewald energy   TEWEN  =     -2681.25841671
  -Hartree energ DENC   =     -1884.55082518
  -exchange      EXHF   =         0.00000000
  -V(xc)+E(xc)   XCENC  =       270.47438107
  PAW double counting   =     36096.65337705   -36070.05236070
  entropy T*S    EENTRO =        -0.00000000
  eigenvalues    EBANDS =      -707.72352474
  atomic energy  EATOM  =      4765.56581041
  ---------------------------------------------------
  free energy    TOTEN  =      -112.61423292 eV

  energy without entropy =     -112.61423292  energy(sigma->0) =     -112.61423292


--------------------------------------------------------------------------------------------------------




--------------------------------------- Iteration      1(  17)  ---------------------------------------


    POTLOK:  cpu time      0.4221: real time      0.4221
    SETDIJ:  cpu time      0.0665: real time      0.0665
    TRIAL :  cpu time      0.2953: real time      0.2953
    CORREC:  cpu time      0.7214: real time      0.7217
    CHARGE:  cpu time      0.0562: real time      0.0562
    --------------------------------------------
      LOOP:  cpu time      1.5741: real time      1.5931

 eigenvalue-minimisations  :     0
 total energy-change (2. order) :-0.1726924E-04  (-0.6889665E-05)
 number of electron      84.0000000 magnetization 
 augmentation part        0.3641631 magnetization 

 Free energy of the ion-electron system (eV)
  ---------------------------------------------------
  alpha Z        PSCENC =        98.27732586
  Ewald energy   TEWEN  =     -2681.25841671
  -Hartree energ DENC   =     -1884.55073714
  -exchange      EXHF   =         0.00000000
  -V(xc)+E(xc)   XCENC  =       270.47458825
  PAW double counting   =     36098.04152608   -36071.44008491
  entropy T*S    EENTRO =        -0.00000000
  eigenvalues    EBANDS =      -707.72426203
  atomic energy  EATOM  =      4765.56581041
  ---------------------------------------------------
  free energy    TOTEN  =      -112.61425019 eV

  energy without entropy =     -112.61425019  energy(sigma->0) =     -112.61425019


--------------------------------------------------------------------------------------------------------




--------------------------------------- Iteration      1(  18)  ---------------------------------------


    POTLOK:  cpu time      0.4228: real time      0.4231
    SETDIJ:  cpu time      0.0665: real time      0.0665
    TRIAL :  cpu time      0.2949: real time      0.2949
    CORREC:  cpu time      0.7180: real time      0.7183
    CHARGE:  cpu time      0.0547: real time      0.0547
    --------------------------------------------
      LOOP:  cpu time      1.5873: real time      1.5882

 eigenvalue-minimisations  :     0
 total energy-change (2. order) :-0.6807368E-05  (-0.2701097E-05)
 number of electron      84.0000000 magnetization 
 augmentation part        0.3641100 magnetization 

 Free energy of the ion-electron system (eV)
  ---------------------------------------------------
  alpha Z        PSCENC =        98.27732586
  Ewald energy   TEWEN  =     -2681.25841671
  -Hartree energ DENC   =     -1884.57952644
  -exchange      EXHF   =         0.00000000
  -V(xc)+E(xc)   XCENC  =       270.47662922
  PAW double counting   =     36104.29634985   -36077.69492429
  entropy T*S    EENTRO =        -0.00000000
  eigenvalues    EBANDS =      -707.69750491
  atomic energy  EATOM  =      4765.56581041
  ---------------------------------------------------
  free energy    TOTEN  =      -112.61425700 eV

  energy without entropy =     -112.61425700  energy(sigma->0) =     -112.61425700


--------------------------------------------------------------------------------------------------------




--------------------------------------- Iteration      1(  19)  ---------------------------------------


    POTLOK:  cpu time      0.4219: real time      0.4219
    SETDIJ:  cpu time      0.0665: real time      0.0665
    TRIAL :  cpu time      0.2957: real time      0.2959
    CORREC:  cpu time      0.7156: real time      0.7156
    CHARGE:  cpu time      0.0546: real time      0.0546
    --------------------------------------------
      LOOP:  cpu time      1.5675: real time      1.5850

 eigenvalue-minimisations  :     0
 total energy-change (2. order) :-0.2493143E-05  (-0.6325348E-06)
 number of electron      84.0000000 magnetization 
 augmentation part        0.3641252 magnetization 

 Free energy of the ion-electron system (eV)
  ---------------------------------------------------
  alpha Z        PSCENC =        98.27732586
  Ewald energy   TEWEN  =     -2681.25841671
  -Hartree energ DENC   =     -1884.56626831
  -exchange      EXHF   =         0.00000000
  -V(xc)+E(xc)   XCENC  =       270.47572935
  PAW double counting   =     36110.75231458   -36084.15030520
  entropy T*S    EENTRO =        -0.00000000
  eigenvalues    EBANDS =      -707.71044948
  atomic energy  EATOM  =      4765.56581041
  ---------------------------------------------------
  free energy    TOTEN  =      -112.61425949 eV

  energy without entropy =     -112.61425949  energy(sigma->0) =     -112.61425949


--------------------------------------------------------------------------------------------------------




--------------------------------------- Iteration      1(  20)  ---------------------------------------


    POTLOK:  cpu time      0.4212: real time      0.4214
    SETDIJ:  cpu time      0.0664: real time      0.0664
    TRIAL :  cpu time      0.2946: real time      0.2946
    CORREC:  cpu time      0.7153: real time      0.7156
    CHARGE:  cpu time      0.0544: real time      0.0544
    --------------------------------------------
      LOOP:  cpu time      1.5660: real time      1.5839

 eigenvalue-minimisations  :     0
 total energy-change (2. order) :-0.6462469E-06  (-0.2130990E-06)
 number of electron      84.0000000 magnetization 
 augmentation part        0.3641298 magnetization 

 Free energy of the ion-electron system (eV)
  ---------------------------------------------------
  alpha Z        PSCENC =        98.27732586
  Ewald energy   TEWEN  =     -2681.25841671
  -Hartree energ DENC   =     -1884.57491344
  -exchange      EXHF   =         0.00000000
  -V(xc)+E(xc)   XCENC  =       270.47631768
  PAW double counting   =     36111.69578052   -36085.09394077
  entropy T*S    EENTRO =        -0.00000000
  eigenvalues    EBANDS =      -707.70222369
  atomic energy  EATOM  =      4765.56581041
  ---------------------------------------------------
  free energy    TOTEN  =      -112.61426014 eV

  energy without entropy =     -112.61426014  energy(sigma->0) =     -112.61426014


--------------------------------------------------------------------------------------------------------




--------------------------------------- Iteration      1(  21)  ---------------------------------------


    POTLOK:  cpu time      0.4214: real time      0.4215
    SETDIJ:  cpu time      0.0665: real time      0.0665
    TRIAL :  cpu time      0.2959: real time      0.2961
    CORREC:  cpu time      0.7151: real time      0.7151
    CHARGE:  cpu time      0.0546: real time      0.0546
    --------------------------------------------
      LOOP:  cpu time      1.5653: real time      1.5855

 eigenvalue-minimisations  :     0
 total energy-change (2. order) :-0.2192392E-06  (-0.8003319E-07)
 number of electron      84.0000000 magnetization 
 augmentation part        0.3641294 magnetization 

 Free energy of the ion-electron system (eV)
  ---------------------------------------------------
  alpha Z        PSCENC =        98.27732586
  Ewald energy   TEWEN  =     -2681.25841671
  -Hartree energ DENC   =     -1884.57201018
  -exchange      EXHF   =         0.00000000
  -V(xc)+E(xc)   XCENC  =       270.47612958
  PAW double counting   =     36111.02800596   -36084.42618050
  entropy T*S    EENTRO =        -0.00000000
  eigenvalues    EBANDS =      -707.70492478
  atomic energy  EATOM  =      4765.56581041
  ---------------------------------------------------
  free energy    TOTEN  =      -112.61426036 eV

  energy without entropy =     -112.61426036  energy(sigma->0) =     -112.61426036


--------------------------------------------------------------------------------------------------------




--------------------------------------- Iteration      1(  22)  ---------------------------------------


    POTLOK:  cpu time      0.4314: real time      0.4315
    SETDIJ:  cpu time      0.0664: real time      0.0664
    TRIAL :  cpu time      0.2948: real time      0.2948
    CORREC:  cpu time      0.8132: real time      0.8135
    EDDIAG:  cpu time      0.1856: real time      0.1865
    CHARGE:  cpu time      0.0547: real time      0.0547
    --------------------------------------------
      LOOP:  cpu time      1.8702: real time      1.8778

 eigenvalue-minimisations  :     0
 total energy-change (2. order) :-0.8309144E-07  (-0.2315257E-07)
 number of electron      84.0000000 magnetization 
 augmentation part        0.3641318 magnetization 

 Free energy of the ion-electron system (eV)
  ---------------------------------------------------
  alpha Z        PSCENC =        98.27732586
  Ewald energy   TEWEN  =     -2681.25841671
  -Hartree energ DENC   =     -1884.56850660
  -exchange      EXHF   =         0.00000000
  -V(xc)+E(xc)   XCENC  =       270.47588833
  PAW double counting   =     36110.08761682   -36083.48577510
  entropy T*S    EENTRO =        -0.00000000
  eigenvalues    EBANDS =      -707.70820345
  atomic energy  EATOM  =      4765.56581041
  ---------------------------------------------------
  free energy    TOTEN  =      -112.61426044 eV

  energy without entropy =     -112.61426044  energy(sigma->0) =     -112.61426044


--------------------------------------------------------------------------------------------------------


  average scaling for gradient   0.6833


 average (electrostatic) potential at core
  the test charge radii are     0.5770  0.4325  0.5955
  (the norm of the test charge is              1.0000)
       1 -83.7371       2 -83.7371       3 -83.7930       4 -83.7930       5 -83.7590
       6 -83.7590       7 -83.6979       8 -83.6979       9 -43.2493      10 -43.2493
      11 -43.2378      12 -43.2378      13-113.9276      14-113.9276      15-115.0893
      16-115.0893      17-115.0869      18-115.0869      19-113.9047      20-113.9047



 E-fermi :   0.2472     XC(G=0):  -9.1394     alpha+bet : -7.7202

 Fermi energy:         0.2472222639

 k-point     1 :       0.0000    0.0000    0.0000
  band No.  band energies     occupation 
      1     -21.5907      2.00000
      2     -21.3497      2.00000
      3     -21.0001      2.00000
      4     -20.9874      2.00000
      5     -20.3249      2.00000
      6     -20.1793      2.00000
      7     -20.0494      2.00000
      8     -20.0016      2.00000
      9     -16.0520      2.00000
     10     -15.9973      2.00000
     11     -10.1419      2.00000
     12      -9.9977      2.00000
     13      -9.8555      2.00000
     14      -9.8221      2.00000
     15      -8.4798      2.00000
     16      -8.3252      2.00000
     17      -8.0715      2.00000
     18      -8.0273      2.00000
     19      -6.4028      2.00000
     20      -6.3497      2.00000
     21      -6.0707      2.00000
     22      -5.1342      2.00000
     23      -5.0473      2.00000
     24      -5.0358      2.00000
     25      -4.8727      2.00000
     26      -4.8377      2.00000
     27      -4.2593      2.00000
     28      -4.2544      2.00000
     29      -4.0861      2.00000
     30      -4.0434      2.00000
     31      -3.6138      2.00000
     32      -3.2342      2.00000
     33      -3.0865      2.00000
     34      -2.9596      2.00000
     35      -2.8855      2.00000
     36      -2.8550      2.00000
     37      -1.7124      2.00000
     38      -1.6366      2.00000
     39      -0.5815      2.00000
     40      -0.3701      2.00000
     41      -0.2809      2.00000
     42      -0.2497      2.00000
     43       3.4496      0.00000
     44       3.4620      0.00000
     45       4.0648      0.00000
     46       4.1082      0.00000
     47       4.7109      0.00000
     48       7.5469      0.00000
     49       8.2732      0.00000
     50       8.3135      0.00000
     51       8.5364      0.00000
     52       8.8804      0.00000
     53       9.6562      0.00000
     54       9.6823      0.00000
     55       9.9525      0.00000
     56      10.3436      0.00000

 k-point     2 :       0.3333    0.0000    0.0000
  band No.  band energies     occupation 
      1     -21.5055      2.00000
      2     -21.3432      2.00000
      3     -21.1005      2.00000
      4     -20.9855      2.00000
      5     -20.3299      2.00000
      6     -20.2599      2.00000
      7     -20.0126      2.00000
      8     -19.9771      2.00000
      9     -15.9913      2.00000
     10     -15.9636      2.00000
     11     -10.3037      2.00000
     12     -10.2722      2.00000
     13      -9.9227      2.00000
     14      -9.8691      2.00000
     15      -8.3569      2.00000
     16      -8.2988      2.00000
     17      -7.5367      2.00000
     18      -7.3983      2.00000
     19      -6.4420      2.00000
     20      -6.2855      2.00000
     21      -6.1204      2.00000
     22      -5.6075      2.00000
     23      -5.5379      2.00000
     24      -5.4979      2.00000
     25      -4.8922      2.00000
     26      -4.8230      2.00000
     27      -4.0163      2.00000
     28      -3.9790      2.00000
     29      -3.9422      2.00000
     30      -3.9190      2.00000
     31      -3.5501      2.00000
     32      -3.5371      2.00000
     33      -3.3096      2.00000
     34      -3.2482      2.00000
     35      -3.0733      2.00000
     36      -2.8243      2.00000
     37      -1.6378      2.00000
     38      -1.5634      2.00000
     39      -0.2346      2.00000
     40      -0.2045      2.00000
     41      -0.1220      2.00000
     42      -0.1075      2.00000
     43       3.4878      0.00000
     44       3.5891      0.00000
     45       3.8887      0.00000
     46       3.9322      0.00000
     47       5.4114      0.00000
     48       7.0667      0.00000
     49       8.1822      0.00000
     50       8.3054      0.00000
     51       8.3953      0.00000
     52       9.0325      0.00000
     53       9.1878      0.00000
     54       9.6925      0.00000
     55       9.8622      0.00000
     56      10.6171      0.00000

 k-point     3 :       0.0000    0.3333    0.0000
  band No.  band energies     occupation 
      1     -21.5274      2.00000
      2     -21.3249      2.00000
      3     -21.0557      2.00000
      4     -21.0109      2.00000
      5     -20.3765      2.00000
      6     -20.2466      2.00000
      7     -20.0152      2.00000
      8     -19.9574      2.00000
      9     -15.9919      2.00000
     10     -15.9635      2.00000
     11     -10.3231      2.00000
     12     -10.2248      2.00000
     13      -9.9430      2.00000
     14      -9.9205      2.00000
     15      -8.2538      2.00000
     16      -8.1216      2.00000
     17      -7.6791      2.00000
     18      -7.5054      2.00000
     19      -6.4830      2.00000
     20      -6.3292      2.00000
     21      -6.1201      2.00000
     22      -5.5455      2.00000
     23      -5.5350      2.00000
     24      -5.3967      2.00000
     25      -4.9182      2.00000
     26      -4.8280      2.00000
     27      -4.1157      2.00000
     28      -4.0774      2.00000
     29      -3.9926      2.00000
     30      -3.9318      2.00000
     31      -3.6163      2.00000
     32      -3.5101      2.00000
     33      -3.1270      2.00000
     34      -3.0534      2.00000
     35      -3.0404      2.00000
     36      -2.8181      2.00000
     37      -1.7465      2.00000
     38      -1.6787      2.00000
     39      -0.2052      2.00000
     40      -0.1866      2.00000
     41      -0.1449      2.00000
     42      -0.0742      2.00000
     43       3.5098      0.00000
     44       3.5907      0.00000
     45       3.8417      0.00000
     46       3.9654      0.00000
     47       5.4101      0.00000
     48       7.1102      0.00000
     49       8.1823      0.00000
     50       8.3127      0.00000
     51       8.3828      0.00000
     52       9.0262      0.00000
     53       9.2363      0.00000
     54       9.6797      0.00000
     55       9.8645      0.00000
     56      10.4430      0.00000

 k-point     4 :       0.3333    0.3333    0.0000
  band No.  band energies     occupation 
      1     -21.4501      2.00000
      2     -21.3034      2.00000
      3     -21.1331      2.00000
      4     -21.0028      2.00000
      5     -20.4243      2.00000
      6     -20.3398      2.00000
      7     -19.9591      2.00000
      8     -19.9331      2.00000
      9     -15.9363      2.00000
     10     -15.9228      2.00000
     11     -10.3715      2.00000
     12     -10.2595      2.00000
     13     -10.2097      2.00000
     14     -10.1278      2.00000
     15      -7.7094      2.00000
     16      -7.6510      2.00000
     17      -7.4687      2.00000
     18      -7.3804      2.00000
     19      -6.5771      2.00000
     20      -6.5097      2.00000
     21      -5.9234      2.00000
     22      -5.5833      2.00000
     23      -5.5789      2.00000
     24      -5.5442      2.00000
     25      -5.4492      2.00000
     26      -5.3384      2.00000
     27      -4.4911      2.00000
     28      -4.2181      2.00000
     29      -3.8203      2.00000
     30      -3.7195      2.00000
     31      -3.4207      2.00000
     32      -3.2894      2.00000
     33      -3.2109      2.00000
     34      -3.1965      2.00000
     35      -2.9364      2.00000
     36      -2.8102      2.00000
     37      -1.8336      2.00000
     38      -1.7312      2.00000
     39      -0.0877      2.00000
     40      -0.0649      2.00000
     41       0.0694      2.00000
     42       0.1556      2.00000
     43       3.2956      0.00000
     44       3.4514      0.00000
     45       3.9002      0.00000
     46       4.0791      0.00000
     47       6.0332      0.00000
     48       7.2241      0.00000
     49       7.9523      0.00000
     50       8.3244      0.00000
     51       8.3966      0.00000
     52       8.6510      0.00000
[...]
     13      -9.8502      2.00000
     14      -9.8334      2.00000
     15      -8.4515      2.00000
     16      -8.3739      2.00000
     17      -8.0762      2.00000
     18      -8.0564      2.00000
     19      -6.3294      2.00000
     20      -6.1773      2.00000
     21      -6.0859      2.00000
     22      -5.5600      2.00000
     23      -5.0299      2.00000
     24      -4.9607      2.00000
     25      -4.9492      2.00000
     26      -4.8932      2.00000
     27      -4.2559      2.00000
     28      -4.1876      2.00000
     29      -3.8797      2.00000
     30      -3.7937      2.00000
     31      -3.5891      2.00000
     32      -3.4178      2.00000
     33      -3.1898      2.00000
     34      -3.0239      2.00000
     35      -2.8279      2.00000
     36      -2.7737      2.00000
     37      -1.6656      2.00000
     38      -1.6394      2.00000
     39      -0.5146      2.00000
     40      -0.4101      2.00000
     41      -0.3228      2.00000
     42      -0.3158      2.00000
     43       3.5556      0.00000
     44       3.5752      0.00000
     45       3.8664      0.00000
     46       3.9021      0.00000
     47       5.5242      0.00000
     48       7.0702      0.00000
     49       8.2070      0.00000
     50       8.2182      0.00000
     51       9.1140      0.00000
     52       9.1946      0.00000
     53       9.8939      0.00000
     54      10.0432      0.00000
     55      10.3989      0.00000
     56      10.4883      0.00000

 k-point     7 :       0.3333    0.0000    0.3333
  band No.  band energies     occupation 
      1     -21.4601      2.00000
      2     -21.3768      2.00000
      3     -21.0788      2.00000
      4     -21.0195      2.00000
      5     -20.3085      2.00000
      6     -20.2726      2.00000
      7     -20.0105      2.00000
      8     -19.9919      2.00000
      9     -15.9829      2.00000
     10     -15.9690      2.00000
     11     -10.2935      2.00000
     12     -10.2774      2.00000
     13      -9.9181      2.00000
     14      -9.8913      2.00000
     15      -8.3554      2.00000
     16      -8.3263      2.00000
     17      -7.5212      2.00000
     18      -7.4542      2.00000
     19      -6.4232      2.00000
     20      -6.3464      2.00000
     21      -5.9803      2.00000
     22      -5.7761      2.00000
     23      -5.4975      2.00000
     24      -5.4050      2.00000
     25      -4.9137      2.00000
     26      -4.8687      2.00000
     27      -4.0574      2.00000
     28      -3.9260      2.00000
     29      -3.8352      2.00000
     30      -3.7760      2.00000
     31      -3.7083      2.00000
     32      -3.5178      2.00000
     33      -3.2954      2.00000
     34      -3.2109      2.00000
     35      -3.0110      2.00000
     36      -2.9440      2.00000
     37      -1.6112      2.00000
     38      -1.5734      2.00000
     39      -0.2882      2.00000
     40      -0.2279      2.00000
     41      -0.1314      2.00000
     42      -0.0862      2.00000
     43       3.5741      0.00000
     44       3.6224      0.00000
     45       3.7709      0.00000
     46       3.7949      0.00000
     47       6.1685      0.00000
     48       7.4178      0.00000
     49       8.0592      0.00000
     50       8.2679      0.00000
     51       8.4018      0.00000
     52       9.2088      0.00000
     53       9.4200      0.00000
     54       9.7831      0.00000
     55       9.9980      0.00000
     56      10.4070      0.00000

 k-point     8 :       0.0000    0.3333    0.3333
  band No.  band energies     occupation 
      1     -21.4761      2.00000
      2     -21.3741      2.00000
      3     -21.0436      2.00000
      4     -21.0207      2.00000
      5     -20.3474      2.00000
      6     -20.2821      2.00000
      7     -20.0019      2.00000
      8     -19.9730      2.00000
      9     -15.9834      2.00000
     10     -15.9691      2.00000
     11     -10.2998      2.00000
     12     -10.2496      2.00000
     13      -9.9437      2.00000
     14      -9.9314      2.00000
     15      -8.2335      2.00000
     16      -8.1673      2.00000
     17      -7.6517      2.00000
     18      -7.5665      2.00000
     19      -6.4672      2.00000
     20      -6.3910      2.00000
     21      -5.9935      2.00000
     22      -5.7659      2.00000
     23      -5.4363      2.00000
     24      -5.3286      2.00000
     25      -4.9102      2.00000
     26      -4.8639      2.00000
     27      -4.1444      2.00000
     28      -4.0355      2.00000
     29      -3.8781      2.00000
     30      -3.7717      2.00000
     31      -3.6997      2.00000
     32      -3.5718      2.00000
     33      -3.1330      2.00000
     34      -3.0818      2.00000
     35      -2.9701      2.00000
     36      -2.8953      2.00000
     37      -1.7185      2.00000
     38      -1.6883      2.00000
     39      -0.2583      2.00000
     40      -0.2139      2.00000
     41      -0.1211      2.00000
     42      -0.0783      2.00000
     43       3.5756      0.00000
     44       3.6352      0.00000
     45       3.7338      0.00000
     46       3.8265      0.00000
     47       6.1642      0.00000
     48       7.4380      0.00000
     49       8.0627      0.00000
     50       8.2745      0.00000
     51       8.4123      0.00000
     52       9.2972      0.00000
     53       9.3424      0.00000
     54       9.8017      0.00000
     55      10.1097      0.00000
     56      10.3904      0.00000

 k-point     9 :       0.3333    0.3333    0.3333
  band No.  band energies     occupation 
      1     -21.4101      2.00000
      2     -21.3357      2.00000
      3     -21.1031      2.00000
      4     -21.0378      2.00000
      5     -20.4007      2.00000
      6     -20.3578      2.00000
      7     -19.9595      2.00000
      8     -19.9457      2.00000
      9     -15.9318      2.00000
     10     -15.9250      2.00000
     11     -10.3346      2.00000
     12     -10.2588      2.00000
     13     -10.2213      2.00000
     14     -10.1603      2.00000
     15      -7.6924      2.00000
     16      -7.6572      2.00000
     17      -7.4844      2.00000
     18      -7.4381      2.00000
     19      -6.6438      2.00000
     20      -6.6189      2.00000
     21      -5.8069      2.00000
     22      -5.7162      2.00000
     23      -5.5469      2.00000
     24      -5.4847      2.00000
     25      -5.3751      2.00000
     26      -5.2889      2.00000
     27      -4.1574      2.00000
     28      -4.0362      2.00000
     29      -3.9045      2.00000
     30      -3.6718      2.00000
     31      -3.5953      2.00000
     32      -3.4496      2.00000
     33      -3.2327      2.00000
     34      -3.1701      2.00000
     35      -2.9754      2.00000
     36      -2.9268      2.00000
     37      -1.8008      2.00000
     38      -1.7488      2.00000
     39      -0.1551      2.00000
     40      -0.1364      2.00000
     41       0.1687      2.00000
     42       0.1980      2.00000
     43       3.4806      0.00000
     44       3.5482      0.00000
     45       3.7732      0.00000
     46       3.8720      0.00000
     47       6.7111      0.00000
     48       7.6187      0.00000
     49       8.2482      0.00000
     50       8.3554      0.00000
     51       8.4996      0.00000
     52       8.6839      0.00000
     53       9.2325      0.00000
     54       9.6570      0.00000
     55      10.1347      0.00000
     56      10.3564      0.00000

 k-point    10 :      -0.3333    0.3333    0.3333
  band No.  band energies     occupation 
      1     -21.4094      2.00000
      2     -21.3363      2.00000
      3     -21.1050      2.00000
      4     -21.0359      2.00000
      5     -20.4038      2.00000
      6     -20.3542      2.00000
      7     -19.9601      2.00000
      8     -19.9457      2.00000
      9     -15.9322      2.00000
     10     -15.9245      2.00000
     11     -10.3347      2.00000
     12     -10.2653      2.00000
     13     -10.2207      2.00000
     14     -10.1545      2.00000
     15      -7.6720      2.00000
     16      -7.6418      2.00000
     17      -7.5220      2.00000
     18      -7.4351      2.00000
     19      -6.6567      2.00000
     20      -6.6264      2.00000
     21      -5.7626      2.00000
     22      -5.7281      2.00000
     23      -5.5221      2.00000
     24      -5.4335      2.00000
     25      -5.3893      2.00000
     26      -5.3734      2.00000
     27      -4.1704      2.00000
     28      -3.9878      2.00000
     29      -3.8422      2.00000
     30      -3.7177      2.00000
     31      -3.6128      2.00000
     32      -3.5085      2.00000
     33      -3.2268      2.00000
     34      -3.1926      2.00000
     35      -2.9294      2.00000
     36      -2.9131      2.00000
     37      -1.8083      2.00000
     38      -1.7584      2.00000
     39      -0.1452      2.00000
     40      -0.1221      2.00000
     41       0.1572      2.00000
     42       0.1951      2.00000
     43       3.4699      0.00000
     44       3.5516      0.00000
     45       3.8009      0.00000
     46       3.8517      0.00000
     47       6.7092      0.00000
     48       7.6322      0.00000
     49       8.2579      0.00000
     50       8.3057      0.00000
     51       8.5335      0.00000
     52       8.6632      0.00000
     53       9.2380      0.00000
     54       9.6519      0.00000
     55      10.0657      0.00000
     56      10.3740      0.00000


--------------------------------------------------------------------------------------------------------


 soft charge-density along one line, spin component           1
         0         1         2         3         4         5         6         7         8         9
 total charge-density along one line

 pseudopotential strength for first ion, spin component:           1
 12.491  21.019  -0.004  -0.000  -0.002  -0.006  -0.000  -0.004
 21.019  35.369  -0.006  -0.000  -0.004  -0.011  -0.000  -0.007
 -0.004  -0.006  -3.288   0.000   0.003  -5.889   0.000   0.005
 -0.000  -0.000   0.000  -3.338   0.000   0.000  -5.978   0.000
 -0.002  -0.004   0.003   0.000  -3.292   0.005   0.000  -5.895
 -0.006  -0.011  -5.889   0.000   0.005 -10.527   0.000   0.008
 -0.000  -0.000   0.000  -5.978   0.000   0.000 -10.683   0.000
 -0.004  -0.007   0.005   0.000  -5.895   0.008   0.000 -10.537
 total augmentation occupancy for first ion, spin component:           1
  6.257  -2.173  -1.394  -0.000  -0.772   0.646   0.000   0.335
 -2.173   0.902   0.717   0.000   0.386  -0.314  -0.000  -0.150
 -1.394   0.717   7.621   0.000   1.397  -2.690  -0.000  -0.627
 -0.000   0.000   0.000   1.979   0.000  -0.000  -0.408  -0.000
 -0.772   0.386   1.397   0.000   4.547  -0.627  -0.000  -1.325
  0.646  -0.314  -2.690  -0.000  -0.627   1.000   0.000   0.273
  0.000  -0.000  -0.000  -0.408  -0.000   0.000   0.090   0.000
  0.335  -0.150  -0.627  -0.000  -1.325   0.273   0.000   0.422


------------------------ aborting loop because EDIFF is reached ----------------------------------------


    FORLOC:  cpu time      0.0011: real time      0.0011
    FORNL :  cpu time      0.0806: real time      0.0806
    STRESS:  cpu time      0.1663: real time      0.1663
    FORCOR:  cpu time      0.4360: real time      0.4364
    OFIELD:  cpu time      0.0001: real time      0.0001

  FORCE on cell =-STRESS in cart. coord.  units (eV):
  Direction    XX          YY          ZZ          XY          YZ          ZX
  --------------------------------------------------------------------------------------
  Alpha Z    98.27733    98.27733    98.27733
  Ewald    -122.86745  -137.15376 -2421.53192     6.74535     0.00000    -0.00000
  Hartree   930.81023   927.87524    25.60195     1.45411     0.00000     0.00000
  E(xc)    -394.08004  -394.23111  -411.78687     0.07017     0.00000    -0.00000
  Local   -2415.79320 -2400.91140   645.35856    -7.08595    -0.00000     0.00000
  n-local  -103.52522  -103.84589  -110.78644     0.14248    -0.01038    -0.00584
  augment     5.78507     5.81364     6.44294    -0.01370    -0.00000     0.00000
  Kinetic  2001.87940  2004.60471  2168.14907    -1.35555     0.09482     0.00914
  Fock        0.00000     0.00000     0.00000     0.00000     0.00000     0.00000
  -------------------------------------------------------------------------------------
  Total       0.48612     0.42875    -0.27538    -0.04308     0.00000     0.00000
  in kB       3.73783     3.29673    -2.11743    -0.33123     0.00000     0.00000
  external pressure =        1.64 kB  Pullay stress =        0.00 kB


 VOLUME and BASIS-vectors are now :
 -----------------------------------------------------------------------------
  energy-cutoff  :     1000.00
  volume of cell :      208.37
      direct lattice vectors                 reciprocal lattice vectors
     6.208108312  0.002008657  0.000000000     0.161079635  0.000089334 -0.000000000
    -0.003434019  6.191962993  0.000000000    -0.000052254  0.161499644 -0.000000000
     0.000000000  0.000000000  5.420564707    -0.000000000 -0.000000000  0.184482624

  length of vectors
     6.208108636  6.191963946  5.420564707     0.161079660  0.161499653  0.184482624


 FORCES acting on ions:
    Electron-Ion                     Ewald-Force                    Non-Local-Force
 -----------------------------------------------------------------------------------------------
   -.132E+02 -.264E+02 0.638E-06   0.162E+02 0.297E+02 -.336E-06   -.310E+01 -.341E+01 -.181E-10
   0.132E+02 0.264E+02 -.865E-07   -.162E+02 -.297E+02 0.898E-07   0.310E+01 0.341E+01 0.181E-10
   0.453E+01 0.409E+01 -.395E-06   0.304E+01 -.902E+01 0.235E-06   -.777E+01 0.507E+01 0.358E-11
   -.453E+01 -.409E+01 0.617E-06   -.304E+01 0.902E+01 -.349E-06   0.777E+01 -.507E+01 -.358E-11
   -.503E+01 -.281E+01 0.390E-06   0.212E+01 -.572E+01 -.230E-06   0.298E+01 0.876E+01 0.371E-10
   0.503E+01 0.281E+01 -.131E-05   -.212E+01 0.572E+01 0.667E-06   -.298E+01 -.876E+01 -.371E-10
   0.281E+02 -.406E+01 -.621E-06   -.323E+02 0.472E+01 0.332E-06   0.440E+01 -.672E+00 0.587E-11
   -.281E+02 0.406E+01 0.781E-06   0.323E+02 -.472E+01 -.434E-06   -.440E+01 0.672E+00 -.587E-11
   0.289E+02 -.376E+02 0.425E-10   -.333E+02 0.425E+02 -.583E-08   0.438E+01 -.496E+01 -.956E-11
   -.289E+02 0.376E+02 -.262E-08   0.333E+02 -.425E+02 0.346E-07   -.438E+01 0.496E+01 0.956E-11
   0.383E+02 0.290E+02 -.441E-09   -.433E+02 -.334E+02 0.681E-08   0.496E+01 0.440E+01 0.251E-10
   -.383E+02 -.290E+02 -.943E-09   0.433E+02 0.334E+02 -.778E-08   -.496E+01 -.440E+01 -.251E-10
   0.106E+03 0.145E+03 -.356E-06   -.131E+03 -.186E+03 0.150E-06   0.254E+02 0.421E+02 0.199E-09
   -.106E+03 -.145E+03 -.501E-06   0.131E+03 0.186E+03 0.529E-08   -.254E+02 -.421E+02 -.199E-09
   0.107E+03 -.120E+03 0.266E-06   -.127E+03 0.164E+03 -.670E-07   0.199E+02 -.444E+02 -.122E-09
   -.107E+03 0.120E+03 -.358E-06   0.127E+03 -.164E+03 0.114E-06   -.199E+02 0.444E+02 0.122E-09
   -.117E+03 -.107E+03 -.478E-06   0.160E+03 0.127E+03 0.730E-07   -.442E+02 -.203E+02 -.156E-09
   0.117E+03 0.107E+03 0.164E-05   -.160E+03 -.127E+03 -.301E-06   0.442E+02 0.203E+02 0.156E-09
   -.146E+03 0.100E+03 0.269E-06   0.188E+03 -.124E+03 -.161E-06   -.427E+02 0.242E+02 0.634E-11
   0.146E+03 -.100E+03 -.425E-06   -.188E+03 0.124E+03 0.185E-06   0.427E+02 -.242E+02 -.634E-11
 -----------------------------------------------------------------------------------------------
   0.109E-04 0.264E-04 0.689E-07   -.284E-13 -.426E-13 -.196E-14   -.142E-13 -.142E-13 -.326E-17


 POSITION                                       TOTAL-FORCE (eV/Angst)
 -----------------------------------------------------------------------------------
      1.14876      0.47859      1.35514         0.000164      0.000516      0.000000
      5.05592      5.71538      4.06542        -0.000164     -0.000516     -0.000000
      0.61176      1.85000      1.35514        -0.000061      0.000199      0.000000
      5.59291      4.34397      4.06542         0.000061     -0.000199     -0.000000
      1.91248      2.40771      1.35514        -0.000438      0.000650      0.000000
      4.29220      3.78626      4.06542         0.000438     -0.000650     -0.000000
      2.53929      1.08202      1.35514        -0.000128     -0.001277     -0.000000
      3.66539      5.11196      4.06542         0.000128      0.001277      0.000000
      1.73308      4.34443      1.35514         0.000164      0.001699      0.000000
      4.47159      1.84954      4.06542        -0.000164     -0.001699     -0.000000
      4.89204      1.69628      1.35514        -0.000644      0.001268      0.000000
      1.31263      4.49769      4.06542         0.000644     -0.001268     -0.000000
      0.66052      5.53101      1.35514         0.001199     -0.000898     -0.000000
      5.54415      0.66296      4.06542        -0.001199      0.000898      0.000000
      5.63292      2.40224      1.35514         0.001240     -0.000935     -0.000000
      0.57175      3.79173      4.06542        -0.001240      0.000935      0.000000
      2.44059      3.60511      1.35514         0.000394     -0.000661     -0.000000
      3.76408      2.58886      4.06542        -0.000394      0.000661      0.000000
      3.69556      0.63687      1.35514         0.002116     -0.000467      0.000000
      2.50912      5.55710      4.06542        -0.002116      0.000467     -0.000000
 -----------------------------------------------------------------------------------
    total drift:                                0.000011      0.000026      0.000000


--------------------------------------------------------------------------------------------------------



  FREE ENERGIE OF THE ION-ELECTRON SYSTEM (eV)
  ---------------------------------------------------
  free  energy   TOTEN  =      -112.61427318 eV

  energy  without entropy=     -112.61427318  energy(sigma->0) =     -112.61427318

 d Force = 0.8303920E-08[ 0.708E-08, 0.953E-08]  d Energy = 0.2763772E-07-0.193E-07
 d Force = 0.2436343E-02[ 0.244E-02, 0.244E-02]  d Ewald  = 0.2436343E-02-0.366E-10


--------------------------------------------------------------------------------------------------------


    POTLOK:  cpu time      0.4943: real time      0.4943


--------------------------------------------------------------------------------------------------------


 stress matrix after NEB project (eV)
      0.48612     -0.04308      0.00000
     -0.04308      0.42875      0.00000
      0.00000      0.00000     -0.27538
  FORCES: max atom, RMS     0.002167    0.001322
  FORCE total and by dimension    0.005912    0.002116
  Stress total and by dimension    0.706883    0.486117


--------------------------------------------------------------------------------------------------------


  
 reached required accuracy - stopping structural energy minimisation
     LOOP+:  cpu time      6.1272: real time      6.1901
    4ORBIT:  cpu time      0.0000: real time      0.0000

 total amount of memory used by VASP MPI-rank0    33942. kBytes
=======================================================================

   base      :      30000. kBytes
   nonl-proj :        546. kBytes
   fftplans  :        627. kBytes
   grid      :       1074. kBytes
   one-center:          3. kBytes
   wavefun   :       1692. kBytes

  
  
 General timing and accounting informations for this job:
 ========================================================
  
                  Total CPU time used (sec):      195.068
                            User time (sec):      191.049
                          System time (sec):        4.019
                         Elapsed time (sec):      200.139
  
                   Maximum memory used (kb):      279800.
                   Average memory used (kb):          N/A
  
                          Minor page faults:       190951
                          Major page faults:          326
                 Voluntary context switches:        12162
