unknown system                          
           1
     6.208108    0.002009    0.000000
    -0.003434    6.191963    0.000000
     0.000000    0.000000    5.420565
   C    H    O 
     8     4     8
Direct configuration=     1
   0.18512219  0.07723975  0.25000000
   0.81487781  0.92276025  0.75000000
   0.09864160  0.29869878  0.25000000
   0.90135840  0.70130122  0.75000000
   0.30819016  0.38878163  0.25000000
   0.69180984  0.61121838  0.75000000
   0.40908805  0.17466989  0.25000000
   0.59091194  0.82533011  0.75000000
   0.27958488  0.70166265  0.25000000
   0.72041512  0.29833735  0.75000000
   0.78802421  0.27355972  0.25000000
   0.21197579  0.72644028  0.75000000
   0.10700660  0.89319683  0.25000000
   0.89299340  0.10680317  0.75000000
   0.90748506  0.38753173  0.25000000
   0.09251494  0.61246827  0.75000000
   0.39340458  0.58209800  0.25000000
   0.60659542  0.41790200  0.75000000
   0.59529820  0.10268338  0.25000000
   0.40470180  0.89731661  0.75000000
Direct configuration=     2
   0.18511214  0.07725331  0.25000000
   0.81488786  0.92274669  0.75000000
   0.09864672  0.29870479  0.25000000
   0.90135328  0.70129521  0.75000000
   0.30823167  0.38878071  0.25000000
   0.69176833  0.61121930  0.75000000
   0.40908812  0.17464298  0.25000000
   0.59091188  0.82535702  0.75000000
   0.27958568  0.70163755  0.25000000
   0.72041432  0.29836245  0.75000000
   0.78804833  0.27357557  0.25000000
   0.21195167  0.72642443  0.75000000
   0.10699005  0.89317049  0.25000000
   0.89300995  0.10682951  0.75000000
   0.90746118  0.38754989  0.25000000
   0.09253882  0.61245011  0.75000000
   0.39340190  0.58212277  0.25000000
   0.60659810  0.41787723  0.75000000
   0.59530932  0.10269360  0.25000000
   0.40469068  0.89730640  0.75000000
Direct configuration=     3
   0.18511777  0.07724571  0.25000000
   0.81488223  0.92275429  0.75000000
   0.09864385  0.29870142  0.25000000
   0.90135615  0.70129858  0.75000000
   0.30820841  0.38878122  0.25000000
   0.69179159  0.61121878  0.75000000
   0.40908808  0.17465806  0.25000000
   0.59091191  0.82534194  0.75000000
   0.27958523  0.70165161  0.25000000
   0.72041477  0.29834839  0.75000000
   0.78803482  0.27356668  0.25000000
   0.21196518  0.72643331  0.75000000
   0.10699932  0.89318525  0.25000000
   0.89300068  0.10681475  0.75000000
   0.90747456  0.38753971  0.25000000
   0.09252543  0.61246028  0.75000000
   0.39340340  0.58210889  0.25000000
   0.60659660  0.41789111  0.75000000
   0.59530309  0.10268788  0.25000000
   0.40469691  0.89731212  0.75000000
Direct configuration=     4
   0.18509376  0.07722616  0.25000000
   0.81490624  0.92277384  0.75000000
   0.09864860  0.29871958  0.25000000
   0.90135140  0.70128042  0.75000000
   0.30823331  0.38878057  0.25000000
   0.69176669  0.61121943  0.75000000
   0.40909414  0.17463751  0.25000000
   0.59090586  0.82536250  0.75000000
   0.27957368  0.70163313  0.25000000
   0.72042632  0.29836687  0.75000000
   0.78805610  0.27357983  0.25000000
   0.21194390  0.72642016  0.75000000
   0.10699034  0.89318840  0.25000000
   0.89300966  0.10681160  0.75000000
   0.90747650  0.38756160  0.25000000
   0.09252350  0.61243839  0.75000000
   0.39341673  0.58211645  0.25000000
   0.60658327  0.41788355  0.75000000
   0.59531331  0.10269187  0.25000000
   0.40468669  0.89730813  0.75000000
Direct configuration=     5
   0.18510192  0.07723281  0.25000000
   0.81489808  0.92276720  0.75000000
   0.09864698  0.29871341  0.25000000
   0.90135301  0.70128659  0.75000000
   0.30822485  0.38878079  0.25000000
   0.69177515  0.61121921  0.75000000
   0.40909208  0.17464449  0.25000000
   0.59090792  0.82535551  0.75000000
   0.27957761  0.70163941  0.25000000
   0.72042240  0.29836059  0.75000000
   0.78804887  0.27357537  0.25000000
   0.21195113  0.72642463  0.75000000
   0.10699339  0.89318733  0.25000000
   0.89300661  0.10681267  0.75000000
   0.90747584  0.38755417  0.25000000
   0.09252416  0.61244583  0.75000000
   0.39341221  0.58211388  0.25000000
   0.60658780  0.41788612  0.75000000
   0.59530983  0.10269051  0.25000000
   0.40469016  0.89730949  0.75000000
Direct configuration=     6
   0.18509216  0.07723318  0.25000000
   0.81490784  0.92276682  0.75000000
   0.09865808  0.29872773  0.25000000
   0.90134192  0.70127227  0.75000000
   0.30822997  0.38877209  0.25000000
   0.69177003  0.61122791  0.75000000
   0.40909483  0.17463700  0.25000000
   0.59090517  0.82536300  0.75000000
   0.27956611  0.70162476  0.25000000
   0.72043390  0.29837524  0.75000000
   0.78806406  0.27358628  0.25000000
   0.21193594  0.72641371  0.75000000
   0.10697718  0.89318238  0.25000000
   0.89302282  0.10681762  0.75000000
   0.90748867  0.38757648  0.25000000
   0.09251133  0.61242352  0.75000000
   0.39342854  0.58211447  0.25000000
   0.60657146  0.41788553  0.75000000
   0.59531997  0.10268701  0.25000000
   0.40468003  0.89731299  0.75000000
Direct configuration=     7
   0.18508888  0.07723331  0.25000000
   0.81491112  0.92276669  0.75000000
   0.09866181  0.29873255  0.25000000
   0.90133818  0.70126745  0.75000000
   0.30823169  0.38876916  0.25000000
   0.69176831  0.61123084  0.75000000
   0.40909576  0.17463448  0.25000000
   0.59090424  0.82536552  0.75000000
   0.27956224  0.70161983  0.25000000
   0.72043777  0.29838017  0.75000000
   0.78806917  0.27358996  0.25000000
   0.21193083  0.72641004  0.75000000
   0.10697173  0.89318072  0.25000000
   0.89302827  0.10681928  0.75000000
   0.90749298  0.38758398  0.25000000
   0.09250702  0.61241601  0.75000000
   0.39343404  0.58211467  0.25000000
   0.60656596  0.41788533  0.75000000
   0.59532338  0.10268584  0.25000000
   0.40467662  0.89731416  0.75000000
Direct configuration=     8
   0.18508615  0.07723346  0.25000000
   0.81491385  0.92276655  0.75000000
   0.09866712  0.29873764  0.25000000
   0.90133288  0.70126236  0.75000000
   0.30824275  0.38877005  0.25000000
   0.69175725  0.61122995  0.75000000
   0.40910277  0.17462896  0.25000000
   0.59089723  0.82537104  0.75000000
   0.27955648  0.70160236  0.25000000
   0.72044352  0.29839765  0.75000000
   0.78808611  0.27360615  0.25000000
   0.21191389  0.72639384  0.75000000
   0.10695321  0.89318461  0.25000000
   0.89304679  0.10681539  0.75000000
   0.90751018  0.38760455  0.25000000
   0.09248982  0.61239544  0.75000000
   0.39344059  0.58210655  0.25000000
   0.60655941  0.41789345  0.75000000
   0.59532562  0.10268179  0.25000000
   0.40467438  0.89731821  0.75000000
Direct configuration=     9
   0.18508448  0.07723355  0.25000000
   0.81491552  0.92276645  0.75000000
   0.09867038  0.29874076  0.25000000
   0.90132962  0.70125924  0.75000000
   0.30824955  0.38877060  0.25000000
   0.69175045  0.61122940  0.75000000
   0.40910708  0.17462556  0.25000000
   0.59089292  0.82537444  0.75000000
   0.27955294  0.70159162  0.25000000
   0.72044706  0.29840838  0.75000000
   0.78809652  0.27361611  0.25000000
   0.21190348  0.72638389  0.75000000
   0.10694183  0.89318701  0.25000000
   0.89305817  0.10681300  0.75000000
   0.90752074  0.38761719  0.25000000
   0.09247925  0.61238281  0.75000000
   0.39344462  0.58210156  0.25000000
   0.60655538  0.41789844  0.75000000
   0.59532699  0.10267931  0.25000000
   0.40467301  0.89732069  0.75000000
Direct configuration=    10
   0.18508442  0.07723276  0.25000000
   0.81491558  0.92276724  0.75000000
   0.09867963  0.29874042  0.25000000
   0.90132037  0.70125958  0.75000000
   0.30825645  0.38876518  0.25000000
   0.69174355  0.61123482  0.75000000
   0.40910890  0.17462403  0.25000000
   0.59089109  0.82537597  0.75000000
   0.27955253  0.70157769  0.25000000
   0.72044747  0.29842231  0.75000000
   0.78811111  0.27363302  0.25000000
   0.21188889  0.72636697  0.75000000
   0.10692953  0.89319492  0.25000000
   0.89307047  0.10680508  0.75000000
   0.90752926  0.38762950  0.25000000
   0.09247073  0.61237050  0.75000000
   0.39344620  0.58209998  0.25000000
   0.60655380  0.41790003  0.75000000
   0.59532967  0.10267478  0.25000000
   0.40467033  0.89732522  0.75000000
Direct configuration=    11
   0.18508428  0.07723092  0.25000000
   0.81491572  0.92276909  0.75000000
   0.09870131  0.29873962  0.25000000
   0.90129869  0.70126038  0.75000000
   0.30827262  0.38875249  0.25000000
   0.69172738  0.61124751  0.75000000
   0.40911318  0.17462045  0.25000000
   0.59088682  0.82537955  0.75000000
   0.27955157  0.70154505  0.25000000
   0.72044843  0.29845495  0.75000000
   0.78814527  0.27367263  0.25000000
   0.21185473  0.72632736  0.75000000
   0.10690072  0.89321345  0.25000000
   0.89309928  0.10678655  0.75000000
   0.90754922  0.38765833  0.25000000
   0.09245078  0.61234167  0.75000000
   0.39344991  0.58209627  0.25000000
   0.60655010  0.41790373  0.75000000
   0.59533594  0.10266418  0.25000000
   0.40466405  0.89733582  0.75000000
Direct configuration=    12
   0.18508439  0.07723185  0.25000000
   0.81491561  0.92276815  0.75000000
   0.09870815  0.29874244  0.25000000
   0.90129185  0.70125756  0.75000000
   0.30827629  0.38874426  0.25000000
   0.69172371  0.61125574  0.75000000
   0.40912475  0.17461172  0.25000000
   0.59087525  0.82538828  0.75000000
   0.27955276  0.70153192  0.25000000
   0.72044725  0.29846809  0.75000000
   0.78816069  0.27369552  0.25000000
   0.21183931  0.72630448  0.75000000
   0.10688998  0.89322200  0.25000000
   0.89311002  0.10677800  0.75000000
   0.90756514  0.38766724  0.25000000
   0.09243486  0.61233276  0.75000000
   0.39345144  0.58209636  0.25000000
   0.60654856  0.41790364  0.75000000
   0.59533575  0.10266107  0.25000000
   0.40466425  0.89733893  0.75000000
Direct configuration=    13
   0.18508439  0.07723178  0.25000000
   0.81491561  0.92276822  0.75000000
   0.09870761  0.29874222  0.25000000
   0.90129239  0.70125778  0.75000000
   0.30827600  0.38874491  0.25000000
   0.69172400  0.61125509  0.75000000
   0.40912383  0.17461241  0.25000000
   0.59087616  0.82538759  0.75000000
   0.27955266  0.70153295  0.25000000
   0.72044734  0.29846705  0.75000000
   0.78815948  0.27369372  0.25000000
   0.21184052  0.72630628  0.75000000
   0.10689083  0.89322132  0.25000000
   0.89310917  0.10677868  0.75000000
   0.90756389  0.38766654  0.25000000
   0.09243611  0.61233346  0.75000000
   0.39345132  0.58209635  0.25000000
   0.60654868  0.41790365  0.75000000
   0.59533576  0.10266131  0.25000000
   0.40466424  0.89733869  0.75000000
