 vasp.6.4.1 05Apr23 (build Jun  6 2023 14:36:51) complex                         
 executed on        HPECrayEX_GCC date 2024.08.20  14:31:13
 running  256 mpi-ranks, with    1 threads/rank, on    2 nodes
 distrk:  each k-point on  256 cores,    1 groups
 distr:  one band on NCORE=  64 cores,    4 groups


--------------------------------------------------------------------------------------------------------


 INCAR:
   ALGO = Conjugate
   NPAR = 4
   ISMEAR = 0
   SIGMA = 0.01
   PREC = Accurate
   EDIFF = 1E-7
   ENCUT = 1000
   ISIF = 0
   GGA = RE
   LWAVE = .FALSE.
   SYMPREC = 1E-7
   LCHARGE = .FALSE.
   LWAVE = .FALSE.
   LCHARGE = .FALSE.

 POTCAR:    PAW_PBE C_h 06Feb2004                 
 POTCAR:    PAW_PBE H_h 06Feb2004                 
 POTCAR:    PAW_PBE C_h 06Feb2004                 
   VRHFIN =C: s2p2                                                                                  
   LEXCH  = PE                                                                                      
   EATOM  =   147.1560 eV,   10.8157 Ry                                                             
                                                                                                    
   TITEL  = PAW_PBE C_h 06Feb2004                                                                   
   LULTRA =        F    use ultrasoft PP ?                                                          
   IUNSCR =        1    unscreen: 0-lin 1-nonlin 2-no                                               
   RPACOR =    0.800    partial core radius                                                         
   POMASS =   12.011; ZVAL   =    4.000    mass and valenz                                          
   RCORE  =    1.100    outmost cutoff radius                                                       
   RWIGS  =    1.630; RWIGS  =    0.863    wigner-seitz radius (au A)                               
   ENMAX  =  700.000; ENMIN  =  500.000 eV                                                          
   ICORE  =        2    local potential                                                             
   LCOR   =        T    correct aug charges                                                         
   LPAW   =        T    paw PP                                                                      
   EAUG   =  946.768                                                                                
   DEXC   =    0.000                                                                                
   RMAX   =    1.128    core radius for proj-oper                                                   
   RAUG   =    1.300    factor for augmentation sphere                                              
   RDEP   =    1.162    radius for radial grids                                                     
   RDEPT  =    1.088    core radius for aug-charge                                                  
                                                                                                    
   Atomic configuration                                                                             
    4 entries                                                                                       
     n  l   j            E        occ.                                                              
     1  0  0.50      -273.3789   2.0000                                                             
     2  0  0.50       -13.7508   2.0000                                                             
     2  1  0.50        -5.2854   2.0000                                                             
     3  2  1.50        -5.4423   0.0000                                                             
   Description                                                                                      
     l       E           TYP  RCUT    TYP  RCUT                                                     
     0    -13.7508458     23  1.100                                                                 
     0     -8.2022199     23  1.100                                                                 
     1     -5.2854383     23  1.100                                                                 
     1      1.1560700     23  1.100                                                                 
     2     -5.4423304      7  1.100                                                                 
  local pseudopotential read in
  partial core-charges read in
  partial kinetic energy density read in
  atomic valenz-charges read in
  non local Contribution for L=           0  read in
    real space projection operators read in
  non local Contribution for L=           0  read in
    real space projection operators read in
  non local Contribution for L=           1  read in
    real space projection operators read in
  non local Contribution for L=           1  read in
    real space projection operators read in
    PAW grid and wavefunctions read in

   number of l-projection  operators is LMAX  =           4
   number of lm-projection operators is LMMAX =           8

 POTCAR:    PAW_PBE H_h 06Feb2004                 
   VRHFIN =H: ultrasoft test                                                                        
   LEXCH  = PE                                                                                      
   EATOM  =    12.4884 eV,    0.9179 Ry                                                             
                                                                                                    
   TITEL  = PAW_PBE H_h 06Feb2004                                                                   
   LULTRA =        F    use ultrasoft PP ?                                                          
   IUNSCR =        0    unscreen: 0-lin 1-nonlin 2-no                                               
   RPACOR =    0.000    partial core radius                                                         
   POMASS =    1.000; ZVAL   =    1.000    mass and valenz                                          
   RCORE  =    0.800    outmost cutoff radius                                                       
   RWIGS  =    0.700; RWIGS  =    0.370    wigner-seitz radius (au A)                               
   ENMAX  =  700.000; ENMIN  =  350.000 eV                                                          
   RCLOC  =    0.701    cutoff for local pot                                                        
   LCOR   =        T    correct aug charges                                                         
   LPAW   =        T    paw PP                                                                      
   EAUG   = 1000.000                                                                                
   RMAX   =    0.819    core radius for proj-oper                                                   
   RAUG   =    1.000    factor for augmentation sphere                                              
   RDEP   =    0.817    radius for radial grids                                                     
   RDEPT  =    0.817    core radius for aug-charge                                                  
                                                                                                    
   Atomic configuration                                                                             
    2 entries                                                                                       
     n  l   j            E        occ.                                                              
     1  0  0.50        -6.4927   1.0000                                                             
     2  1  0.50        -3.4015   0.0000                                                             
   Description                                                                                      
     l       E           TYP  RCUT    TYP  RCUT                                                     
     0     -6.4927493     23  0.800                                                                 
     0      6.8029130     23  0.800                                                                 
     1     -6.8029130     23  0.800                                                                 
  local pseudopotential read in
  atomic valenz-charges read in
  non local Contribution for L=           0  read in
    real space projection operators read in
  non local Contribution for L=           0  read in
    real space projection operators read in
  non local Contribution for L=           1  read in
    real space projection operators read in
    PAW grid and wavefunctions read in

   number of l-projection  operators is LMAX  =           3
   number of lm-projection operators is LMMAX =           5

 -----------------------------------------------------------------------------
|                                                                             |
|               ----> ADVICE to this user running VASP <----                  |
|                                                                             |
|     You have a (more or less) 'large supercell' and for larger cells it     |
|     might be more efficient to use real-space projection operators.         |
|     Therefore, try LREAL= Auto in the INCAR file.                           |
|     Mind: For very accurate calculation, you might also keep the            |
|     reciprocal projection scheme (i.e. LREAL=.FALSE.).                      |
|                                                                             |
 -----------------------------------------------------------------------------

 -----------------------------------------------------------------------------
|                                                                             |
|               ----> ADVICE to this user running VASP <----                  |
|                                                                             |
|     You enforced a specific xc type in the INCAR file but a different       |
|     type was found in the POTCAR file.                                      |
|     I HOPE YOU KNOW WHAT YOU ARE DOING!                                     |
|                                                                             |
 -----------------------------------------------------------------------------

  PAW_PBE C_h 06Feb2004                 :
 energy of atom  1       EATOM= -147.1560
 kinetic energy error for atom=    0.0031 (will be added to EATOM!!)
  PAW_PBE H_h 06Feb2004                 :
 energy of atom  2       EATOM=  -12.4884
 kinetic energy error for atom=    0.0006 (will be added to EATOM!!)


 POSCAR:  C  H
  positions in cartesian coordinates
  No initial velocities read in
 exchange correlation table for  LEXCH =       40
   RHO(1)=    0.500       N(1)  =     2000
   RHO(2)=  100.500       N(2)  =     4000

 VTST: version 4.1, (05/19/21)

 CHAIN: initializing optimizer
 
 OPT: Using VASP Dynamics algorithm
 CHAIN: Read ICHAIN            0

 POSCAR:  C  H
  positions in cartesian coordinates
  No initial velocities read in



--------------------------------------------------------------------------------------------------------


 ion  position               nearest neighbor table
   1  0.086  0.026  0.369-  29 1.09   2 1.37   7 1.42
   2  0.117  0.156  0.283-  30 1.09   1 1.37   3 1.43
   3  0.059  0.082  0.140-   4 1.40   2 1.43   5 1.45
   4  0.087  0.212  0.049-  31 1.09   3 1.40   8 1.40
   5  0.969  0.865  0.090-   9 1.40   6 1.43   3 1.45
   6  0.940  0.734  0.183-  32 1.09   7 1.37   5 1.43
   7  0.996  0.813  0.318-  33 1.09   6 1.37   1 1.42
   8  0.031  0.135  0.910-   4 1.40  11 1.43  10 1.45
   9  0.913  0.788  0.951-  34 1.09  10 1.40   5 1.40
  10  0.941  0.918  0.860-   9 1.40  12 1.43   8 1.45
  11  0.060  0.266  0.817-  35 1.09  13 1.37   8 1.43
  12  0.883  0.844  0.717-  36 1.09  14 1.37  10 1.43
  13  0.004  0.187  0.682-  37 1.09  11 1.37  14 1.42
  14  0.914  0.974  0.631-  38 1.09  12 1.37  13 1.42
  15  0.414  0.526  0.631-  39 1.09  17 1.37  27 1.42
  16  0.586  0.474  0.369-  40 1.09  18 1.37  28 1.42
  17  0.383  0.656  0.717-  41 1.09  15 1.37  19 1.43
  18  0.617  0.344  0.283-  42 1.09  16 1.37  20 1.43
  19  0.441  0.582  0.860-  21 1.40  17 1.43  23 1.45
  20  0.559  0.418  0.140-  22 1.40  18 1.43  24 1.45
  21  0.413  0.712  0.951-  43 1.09  19 1.40  24 1.40
  22  0.587  0.288  0.049-  44 1.09  20 1.40  23 1.40
  23  0.531  0.365  0.910-  22 1.40  25 1.43  19 1.45
  24  0.469  0.635  0.090-  21 1.40  26 1.43  20 1.45
  25  0.560  0.234  0.817-  45 1.09  27 1.37  23 1.43
  26  0.440  0.766  0.183-  46 1.09  28 1.37  24 1.43
  27  0.504  0.313  0.682-  47 1.09  25 1.37  15 1.42
  28  0.496  0.687  0.318-  48 1.09  26 1.37  16 1.42
  29  0.131  0.086  0.477-   1 1.09
  30  0.186  0.320  0.321-   2 1.09
  31  0.155  0.376  0.087-   4 1.09
  32  0.872  0.571  0.144-   6 1.09
  33  0.971  0.711  0.388-   7 1.09
  34  0.845  0.624  0.913-   9 1.09
  35  0.128  0.429  0.856-  11 1.09
  36  0.814  0.680  0.679-  12 1.09
  37  0.029  0.289  0.612-  13 1.09
  38  0.869  0.914  0.523-  14 1.09
  39  0.369  0.586  0.523-  15 1.09
  40  0.631  0.414  0.477-  16 1.09
  41  0.314  0.820  0.679-  17 1.09
  42  0.686  0.180  0.321-  18 1.09
  43  0.345  0.876  0.913-  21 1.09
  44  0.655  0.124  0.087-  22 1.09
  45  0.628  0.071  0.856-  25 1.09
  46  0.372  0.929  0.144-  26 1.09
  47  0.529  0.211  0.612-  27 1.09
  48  0.471  0.789  0.388-  28 1.09

  LATTYP: Found a simple monoclinic cell.
 ALAT       =     8.4144000000
 B/A-ratio  =     0.7119105343
 C/A-ratio  =     1.1022949544
 COS(beta)  =    -0.2160611803
  
  Lattice vectors:
  
 A1 = (   8.4144000000,   0.0000000000,   0.0000000000)
 A2 = (   0.0000000000,  -5.9903000000,   0.0000000000)
 A3 = (  -2.0040000000,   0.0000000000,  -9.0560700000)


Analysis of symmetry for initial positions (statically):
=====================================================================
 Subroutine PRICEL returns:
 Original cell was already a primitive cell.
 

 Routine SETGRP: Setting up the symmetry group for a 
 simple monoclinic supercell.


 Subroutine GETGRP returns: Found  2 space group operations
 (whereof  2 operations were pure point group operations)
 out of a pool of  4 trial point group operations.


The static configuration has the point symmetry S_2 .


Analysis of symmetry for dynamics (positions and initial velocities):
=====================================================================
 Subroutine PRICEL returns:
 Original cell was already a primitive cell.
 

 Routine SETGRP: Setting up the symmetry group for a 
 simple monoclinic supercell.


 Subroutine GETGRP returns: Found  2 space group operations
 (whereof  2 operations were pure point group operations)
 out of a pool of  4 trial point group operations.


The dynamic configuration has the point symmetry S_2 .


 Subroutine INISYM returns: Found  2 space group operations
 (whereof  2 operations are pure point group operations),
 and found     1 'primitive' translations


----------------------------------------------------------------------------------------

                                     Primitive cell                                     

  volume of cell :     456.4692

  direct lattice vectors                    reciprocal lattice vectors
     8.414400000  0.000000000  0.000000000     0.118843887 -0.000000000  0.084124444
     0.000000000  5.990300000  0.000000000     0.000000000  0.166936547 -0.000000000
    -6.410400000  0.000000000  9.056070000     0.000000000  0.000000000  0.110423175

  length of vectors
     8.414400000  5.990300000 11.095297743     0.145604916  0.166936547  0.110423175

  position of ions in fractional coordinates (direct lattice)
     0.085985825  0.025831008  0.369135377
     0.116983673  0.156213237  0.282680610
     0.058740714  0.082116548  0.140334910
     0.086817321  0.212252419  0.049117938
     0.969324431  0.864520228  0.089710104
     0.940083220  0.734384005  0.182949592
     0.995568798  0.812833494  0.318370592
     0.030675569  0.135479773  0.910289893
     0.913182679  0.787747581  0.950882060
     0.941259285  0.917883452  0.859665087
     0.059916780  0.265615996  0.817050406
     0.883016326  0.843786763  0.717319388
     0.004431202  0.187166506  0.681629406
     0.914014175  0.974168992  0.630864622
     0.414014116  0.525831123  0.630864594
     0.585985884  0.474168881  0.369135405
     0.383016340  0.656213351  0.717319404
     0.616983660  0.343786655  0.282680596
     0.441259308  0.582116642  0.859665128
     0.558740693  0.417883364  0.140334872
     0.413182742  0.712252453  0.950882127
     0.586817259  0.287747553  0.049117873
     0.530675547  0.364520288  0.910289874
     0.469324455  0.635479718  0.089710126
     0.559916680  0.234384050  0.817050346
     0.440083320  0.765615955  0.182949653
     0.504431080  0.312833593  0.681629338
     0.495568920  0.687166411  0.318370662
     0.131346097  0.085819810  0.477419552
     0.185689727  0.319615595  0.320859639
     0.155208983  0.376076425  0.087406183
     0.872329652  0.570829256  0.144414156
     0.970945402  0.710820674  0.387625168
     0.844791016  0.623923576  0.912593814
     0.127670348  0.429170745  0.855585842
     0.814310272  0.680384405  0.679140359
     0.029054599  0.289179325  0.612374830
     0.868653904  0.914180190  0.522580447
     0.368653816  0.585819962  0.522580425
     0.631346184  0.414180041  0.477419574
     0.314310287  0.819615716  0.679140415
     0.685689715  0.180384289  0.320859584
     0.344791067  0.876076468  0.912593904
     0.655208934  0.123923537  0.087406096
     0.627670264  0.070829297  0.855585791
     0.372329736  0.929170708  0.144414209
     0.529054471  0.210820752  0.612374761
     0.470945528  0.789179252  0.387625238

  ion indices of the primitive-cell ions
   primitive index   ion index
                 1           1
                 2           2
                 3           3
                 4           4
                 5           5
                 6           6
                 7           7
                 8           8
                 9           9
                10          10
                11          11
                12          12
                13          13
                14          14
                15          15
                16          16
                17          17
                18          18
                19          19
                20          20
                21          21
                22          22
                23          23
                24          24
                25          25
                26          26
                27          27
                28          28
                29          29
                30          30
                31          31
                32          32
                33          33
                34          34
                35          35
                36          36
                37          37
                38          38
                39          39
                40          40
                41          41
                42          42
                43          43
                44          44
                45          45
                46          46
                47          47
                48          48

----------------------------------------------------------------------------------------



 KPOINTS: auto                                    

Automatic generation of k-mesh.
 Grid dimensions read from file:
 generate k-points for:    4    4    3

 Generating k-lattice:

  Cartesian coordinates                     Fractional coordinates (reciprocal lattice)
     0.029710972 -0.000000000  0.021031111     0.250000000  0.000000000 -0.000000000
     0.000000000  0.041734137 -0.000000000     0.000000000  0.250000000  0.000000000
     0.000000000  0.000000000  0.036807725     0.000000000  0.000000000  0.333333333

  Length of vectors
     0.036401229  0.041734137  0.036807725

  Shift w.r.t. Gamma in fractional coordinates (k-lattice)
     0.000000000  0.000000000  0.000000000

 
 Subroutine IBZKPT returns following result:
 ===========================================
 
 Found     26 irreducible k-points:
 
 Following reciprocal coordinates:
            Coordinates               Weight
  0.000000  0.000000  0.000000      1.000000
  0.250000  0.000000  0.000000      2.000000
  0.500000  0.000000  0.000000      1.000000
  0.000000  0.250000  0.000000      2.000000
  0.250000  0.250000  0.000000      2.000000
 -0.250000  0.250000  0.000000      2.000000
  0.500000  0.250000  0.000000      2.000000
  0.000000  0.500000  0.000000      1.000000
  0.250000  0.500000  0.000000      2.000000
  0.500000  0.500000  0.000000      1.000000
  0.000000  0.000000  0.333333      2.000000
  0.250000  0.000000  0.333333      2.000000
  0.500000  0.000000  0.333333      2.000000
 -0.250000  0.000000  0.333333      2.000000
  0.000000  0.250000  0.333333      2.000000
  0.000000  0.250000 -0.333333      2.000000
  0.250000  0.250000  0.333333      2.000000
 -0.250000  0.250000 -0.333333      2.000000
  0.500000  0.250000  0.333333      2.000000
  0.500000  0.250000 -0.333333      2.000000
 -0.250000  0.250000  0.333333      2.000000
  0.250000  0.250000 -0.333333      2.000000
  0.000000  0.500000  0.333333      2.000000
  0.250000  0.500000  0.333333      2.000000
  0.500000  0.500000  0.333333      2.000000
 -0.250000  0.500000  0.333333      2.000000
 
 Following cartesian coordinates:
            Coordinates               Weight
  0.000000  0.000000  0.000000      1.000000
  0.029711  0.000000  0.021031      2.000000
  0.059422  0.000000  0.042062      1.000000
  0.000000  0.041734  0.000000      2.000000
  0.029711  0.041734  0.021031      2.000000
 -0.029711  0.041734 -0.021031      2.000000
  0.059422  0.041734  0.042062      2.000000
  0.000000  0.083468  0.000000      1.000000
  0.029711  0.083468  0.021031      2.000000
  0.059422  0.083468  0.042062      1.000000
  0.000000  0.000000  0.036808      2.000000
  0.029711  0.000000  0.057839      2.000000
  0.059422  0.000000  0.078870      2.000000
 -0.029711  0.000000  0.015777      2.000000
  0.000000  0.041734  0.036808      2.000000
  0.000000  0.041734 -0.036808      2.000000
  0.029711  0.041734  0.057839      2.000000
 -0.029711  0.041734 -0.057839      2.000000
  0.059422  0.041734  0.078870      2.000000
  0.059422  0.041734  0.005254      2.000000
 -0.029711  0.041734  0.015777      2.000000
  0.029711  0.041734 -0.015777      2.000000
  0.000000  0.083468  0.036808      2.000000
  0.029711  0.083468  0.057839      2.000000
  0.059422  0.083468  0.078870      2.000000
 -0.029711  0.083468  0.015777      2.000000
 


--------------------------------------------------------------------------------------------------------




 Dimension of arrays:
   k-points           NKPTS =     26   k-points in BZ     NKDIM =     26   number of bands    NBANDS=     92
   number of dos      NEDOS =    301   number of ions     NIONS =     48
   non local maximal  LDIM  =      4   non local SUM 2l+1 LMDIM =      8
   total plane-waves  NPLWV = 691200
   max r-space proj   IRMAX =      1   max aug-charges    IRDMAX=  10243
   dimension x,y,z NGX =    90 NGY =   64 NGZ =  120
   dimension x,y,z NGXF=   180 NGYF=  128 NGZF=  240
   support grid    NGXF=   180 NGYF=  128 NGZF=  240
   ions per type =              28  20
   NGX,Y,Z   is equivalent  to a cutoff of  17.78, 17.76, 17.98 a.u.
   NGXF,Y,Z  is equivalent  to a cutoff of  35.56, 35.52, 35.96 a.u.

 SYSTEM =  unknown system                          
 POSCAR =   C  H                                   

 Startparameter for this run:
   NWRITE =      2    write-flag & timer
   PREC   = accura    normal or accurate (medium, high low for compatibility)
   ISTART =      0    job   : 0-new  1-cont  2-samecut
   ICHARG =      2    charge: 1-file 2-atom 10-const
   ISPIN  =      1    spin polarized calculation?
   LNONCOLLINEAR =      F non collinear calculations
   LSORBIT =      F    spin-orbit coupling
   INIWAV =      1    electr: 0-lowe 1-rand  2-diag
   LASPH  =      F    aspherical Exc in radial PAW
 Electronic Relaxation 1
   ENCUT  = 1000.0 eV  73.50 Ry    8.57 a.u.  21.70 15.45 28.61*2*pi/ulx,y,z
   ENINI  = 1000.0     initial cutoff
   ENAUG  = 1000.0 eV  augmentation charge cutoff
   NELM   =     60;   NELMIN=  2; NELMDL= -5     # of ELM steps 
   EDIFF  = 0.1E-06   stopping-criterion for ELM
   LREAL  =      F    real-space projection
   NLSPLINE    = F    spline interpolate recip. space projectors
   LCOMPAT=      F    compatible to vasp.4.4
   GGA_COMPAT  = T    GGA compatible to vasp.4.4-vasp.4.6
   LMAXPAW     = -100 max onsite density
   LMAXMIX     =    2 max onsite mixed and CHGCAR
   VOSKOWN=      0    Vosko Wilk Nusair interpolation
   ROPT   =    0.00000   0.00000
 Ionic relaxation
   EDIFFG = 0.1E-05   stopping-criterion for IOM
   NSW    =      0    number of steps for IOM
   NBLOCK =      1;   KBLOCK =      1    inner block; outer block 
   IBRION =     -1    ionic relax: 0-MD 1-quasi-New 2-CG
   NFREE  =      0    steps in history (QN), initial steepest desc. (CG)
   ISIF   =      0    stress and relaxation
   IWAVPR =     10    prediction:  0-non 1-charg 2-wave 3-comb
   ISYM   =      2    0-nonsym 1-usesym 2-fastsym
   LCORR  =      T    Harris-Foulkes like correction to forces

   POTIM  = 0.5000    time-step for ionic-motion
   TEIN   =    0.0    initial temperature
   TEBEG  =    0.0;   TEEND  =   0.0 temperature during run
   SMASS  =  -3.00    Nose mass-parameter (am)
   estimated Nose-frequenzy (Omega)   =  0.10E-29 period in steps = 0.13E+47 mass=  -0.162E-26a.u.
   SCALEE = 1.0000    scale energy and forces
   NPACO  =    256;   APACO  = 10.0  distance and # of slots for P.C.
   PSTRESS=    0.0 pullay stress

  Mass of Ions in am
   POMASS =  12.01  1.00
  Ionic Valenz
   ZVAL   =   4.00  1.00
  Atomic Wigner-Seitz radii
   RWIGS  =  -1.00 -1.00
  virtual crystal weights 
   VCA    =   1.00  1.00
   NELECT =     132.0000    total number of electrons
   NUPDOWN=      -1.0000    fix difference up-down

 DOS related values:
   EMIN   =  10.00;   EMAX   =-10.00  energy-range for DOS
   EFERMI =   0.00;   METHOD = LEGACY      
   ISMEAR =     0;   SIGMA  =   0.01  broadening in eV -4-tet -1-fermi 0-gaus

 Electronic relaxation 2 (details)
   IALGO  =     58    algorithm
   LDIAG  =      T    sub-space diagonalisation (order eigenvalues)
   LSUBROT=      F    optimize rotation matrix (better conditioning)
   TURBO    =      0    0=normal 1=particle mesh
   IRESTART =      0    0=no restart 2=restart with 2 vectors
   NREBOOT  =      0    no. of reboots
   NMIN     =      0    reboot dimension
   EREF     =   0.00    reference energy to select bands
   IMIX   =      4    mixing-type and parameters
     AMIX     =   0.40;   BMIX     =  1.00
     AMIX_MAG =   1.60;   BMIX_MAG =  1.00
     AMIN     =   0.10
     WC   =   100.;   INIMIX=   1;  MIXPRE=   1;  MAXMIX= -45

 Intra band minimization:
   WEIMIN = 0.0000     energy-eigenvalue tresh-hold
   EBREAK =  0.27E-09  absolut break condition
   DEPER  =   0.30     relativ break condition  

   TIME   =   0.40     timestep for ELM

  volume/ion in A,a.u.               =       9.51        64.18
  Fermi-wavevector in a.u.,A,eV,Ry     =   1.082586  2.045790 15.945918  1.171992
  Thomas-Fermi vector in A             =   2.218631

 Write flags
   LWAVE        =      F    write WAVECAR
   LDOWNSAMPLE  =      F    k-point downsampling of WAVECAR
   LCHARG       =      T    write CHGCAR
   LVTOT        =      F    write LOCPOT, total local potential
   LVHAR        =      F    write LOCPOT, Hartree potential only
   LELF         =      F    write electronic localiz. function (ELF)
   LORBIT       =      0    0 simple, 1 ext, 2 COOP (PROOUT), +10 PAW based schemes


 Dipole corrections
   LMONO  =      F    monopole corrections only (constant potential shift)
   LDIPOL =      F    correct potential (dipole corrections)
   IDIPOL =      0    1-x, 2-y, 3-z, 4-all directions 
   EPSILON=  1.0000000 bulk dielectric constant

 Exchange correlation treatment:
   GGA     =    RE    GGA type
   LEXCH   =    40    internal setting for exchange type
   LIBXC   =     F    Libxc                    
   VOSKOWN =     0    Vosko Wilk Nusair interpolation
   LHFCALC =     F    Hartree Fock is set to
   LHFONE  =     F    Hartree Fock one center treatment
   AEXX    =    0.0000 exact exchange contribution

 Linear response parameters
   LEPSILON=     F    determine dielectric tensor
   LRPA    =     F    only Hartree local field effects (RPA)
   LNABLA  =     F    use nabla operator in PAW spheres
   LVEL    =     F    velocity operator in full k-point grid
   CSHIFT  =0.1000    complex shift for real part using Kramers Kronig
   OMEGAMAX=  -1.0    maximum frequency
   DEG_THRESHOLD= 0.2000000E-02 threshold for treating states as degnerate
   RTIME   =   -0.100 relaxation time in fs
  (WPLASMAI=    0.000 imaginary part of plasma frequency in eV, 0.658/RTIME)
   DFIELD  = 0.0000000 0.0000000 0.0000000 field for delta impulse in time

  Optional k-point grid parameters
   LKPOINTS_OPT  =     F    use optional k-point grid
   KPOINTS_OPT_MODE=     1    mode for optional k-point grid

 Orbital magnetization related:
   ORBITALMAG=     F  switch on orbital magnetization
   LCHIMAG   =     F  perturbation theory with respect to B field
   DQ        =  0.001000  dq finite difference perturbation B field
   LLRAUG    =     F  two centre corrections for induced B field
   LBONE     =     F  B-component reconstruction in AE one-centre
   LVGVCALC  =     T  calculate vGv susceptibility
   LVGVAPPL  =     F  apply vGv susceptibility instead of pGv for G=0

 Random number generation:
   RANDOM_GENERATOR = DEFAULT
   PCG_SEED         = not used


--------------------------------------------------------------------------------------------------------


 Static calculation
 charge density and potential will be updated during run
 non-spin polarized calculation
 Conjugate gradient for all bands (Freysoldt, et al. PRB 79, 241103 (2009))
 preconditioned conjugated gradient                                        
 perform sub-space diagonalisation
    before iterative eigenvector-optimisation
 modified Broyden-mixing scheme, WC =      100.0
 initial mixing is a Kerker type mixing with AMIX =  0.4000 and BMIX =      1.0000
 Hartree-type preconditioning will be used
 using additional bands           26
 reciprocal scheme for non local part
 use partial core corrections
 no Harris-corrections to forces 
 use gradient corrections 
 use of overlap-Matrix (Vanderbilt PP)
 Gauss-broadening in eV      SIGMA  =   0.01


--------------------------------------------------------------------------------------------------------


  energy-cutoff  :     1000.00
  volume of cell :      456.47
      direct lattice vectors                 reciprocal lattice vectors
     8.414400000  0.000000000  0.000000000     0.118843887 -0.000000000  0.084124444
     0.000000000  5.990300000  0.000000000     0.000000000  0.166936547 -0.000000000
    -6.410400000  0.000000000  9.056070000     0.000000000  0.000000000  0.110423175

  length of vectors
     8.414400000  5.990300000 11.095297743     0.145604916  0.166936547  0.110423175



 k-points in units of 2pi/SCALE and weight: auto                                    
   0.00000000  0.00000000  0.00000000       0.021
   0.02971097  0.00000000  0.02103111       0.042
   0.05942194  0.00000000  0.04206222       0.021
   0.00000000  0.04173414  0.00000000       0.042
   0.02971097  0.04173414  0.02103111       0.042
  -0.02971097  0.04173414 -0.02103111       0.042
   0.05942194  0.04173414  0.04206222       0.042
   0.00000000  0.08346827  0.00000000       0.021
   0.02971097  0.08346827  0.02103111       0.042
   0.05942194  0.08346827  0.04206222       0.021
   0.00000000  0.00000000  0.03680772       0.042
   0.02971097  0.00000000  0.05783884       0.042
   0.05942194  0.00000000  0.07886995       0.042
  -0.02971097  0.00000000  0.01577661       0.042
   0.00000000  0.04173414  0.03680772       0.042
   0.00000000  0.04173414 -0.03680772       0.042
   0.02971097  0.04173414  0.05783884       0.042
  -0.02971097  0.04173414 -0.05783884       0.042
   0.05942194  0.04173414  0.07886995       0.042
   0.05942194  0.04173414  0.00525450       0.042
  -0.02971097  0.04173414  0.01577661       0.042
   0.02971097  0.04173414 -0.01577661       0.042
   0.00000000  0.08346827  0.03680772       0.042
   0.02971097  0.08346827  0.05783884       0.042
   0.05942194  0.08346827  0.07886995       0.042
  -0.02971097  0.08346827  0.01577661       0.042

 k-points in reciprocal lattice and weights: auto                                    
   0.00000000  0.00000000  0.00000000       0.021
   0.25000000  0.00000000  0.00000000       0.042
   0.50000000  0.00000000  0.00000000       0.021
   0.00000000  0.25000000  0.00000000       0.042
   0.25000000  0.25000000  0.00000000       0.042
  -0.25000000  0.25000000  0.00000000       0.042
   0.50000000  0.25000000  0.00000000       0.042
   0.00000000  0.50000000  0.00000000       0.021
   0.25000000  0.50000000  0.00000000       0.042
   0.50000000  0.50000000  0.00000000       0.021
   0.00000000  0.00000000  0.33333333       0.042
   0.25000000  0.00000000  0.33333333       0.042
   0.50000000  0.00000000  0.33333333       0.042
  -0.25000000  0.00000000  0.33333333       0.042
   0.00000000  0.25000000  0.33333333       0.042
   0.00000000  0.25000000 -0.33333333       0.042
   0.25000000  0.25000000  0.33333333       0.042
  -0.25000000  0.25000000 -0.33333333       0.042
   0.50000000  0.25000000  0.33333333       0.042
   0.50000000  0.25000000 -0.33333333       0.042
  -0.25000000  0.25000000  0.33333333       0.042
   0.25000000  0.25000000 -0.33333333       0.042
   0.00000000  0.50000000  0.33333333       0.042
   0.25000000  0.50000000  0.33333333       0.042
   0.50000000  0.50000000  0.33333333       0.042
  -0.25000000  0.50000000  0.33333333       0.042

 position of ions in fractional coordinates (direct lattice) 
   0.08598583  0.02583101  0.36913538
   0.11698367  0.15621324  0.28268061
   0.05874071  0.08211655  0.14033491
   0.08681732  0.21225242  0.04911794
   0.96932443  0.86452023  0.08971010
   0.94008322  0.73438401  0.18294959
   0.99556880  0.81283349  0.31837059
   0.03067557  0.13547977  0.91028989
   0.91318268  0.78774758  0.95088206
   0.94125929  0.91788345  0.85966509
   0.05991678  0.26561600  0.81705041
   0.88301633  0.84378676  0.71731939
   0.00443120  0.18716651  0.68162941
   0.91401417  0.97416899  0.63086462
   0.41401412  0.52583112  0.63086459
   0.58598588  0.47416888  0.36913540
   0.38301634  0.65621335  0.71731940
   0.61698366  0.34378665  0.28268060
   0.44125931  0.58211664  0.85966513
   0.55874069  0.41788336  0.14033487
   0.41318274  0.71225245  0.95088213
   0.58681726  0.28774755  0.04911787
   0.53067555  0.36452029  0.91028987
   0.46932445  0.63547972  0.08971013
   0.55991668  0.23438405  0.81705035
   0.44008332  0.76561596  0.18294965
   0.50443108  0.31283359  0.68162934
   0.49556892  0.68716641  0.31837066
   0.13134610  0.08581981  0.47741955
   0.18568973  0.31961560  0.32085964
   0.15520898  0.37607642  0.08740618
   0.87232965  0.57082926  0.14441416
   0.97094540  0.71082067  0.38762517
   0.84479102  0.62392358  0.91259381
   0.12767035  0.42917074  0.85558584
   0.81431027  0.68038441  0.67914036
   0.02905460  0.28917933  0.61237483
   0.86865390  0.91418019  0.52258045
   0.36865382  0.58581996  0.52258043
   0.63134618  0.41418004  0.47741957
   0.31431029  0.81961572  0.67914042
   0.68568971  0.18038429  0.32085958
   0.34479107  0.87607647  0.91259390
   0.65520893  0.12392354  0.08740610
   0.62767026  0.07082930  0.85558579
   0.37232974  0.92917071  0.14441421
   0.52905447  0.21082075  0.61237476
   0.47094553  0.78917925  0.38762524

 position of ions in cartesian coordinates  (Angst):
  -1.64278629  0.15473549  3.34291581
  -0.82774836  0.93576416  2.55997539
  -0.40533504  0.49190276  1.27088277
   0.41565004  1.27145567  0.44481548
   7.58120584  5.17873552  0.81242098
   6.73745618  4.39918051  1.65680431
   6.33623125  4.86911648  2.88318636
  -5.57720583  0.81156448  8.24364899
   1.58834997  4.71884433  8.61125450
   2.40933505  5.49839724  7.78518721
  -4.73345617  1.59111950  7.39926567
   2.83174837  5.05453585  6.49609459
  -4.33223124  1.12118352  6.17288362
   3.64678630  5.83556451  5.71315417
  -0.56041402  3.14988618  5.71315393
   2.56441402  2.84041385  3.34291606
  -1.37545161  3.93091483  6.49609473
   3.37945162  2.05938520  2.55997526
  -1.79786502  3.48705332  7.78518757
   3.80186503  2.50324672  1.27088242
  -2.61884992  4.26660587  8.61125510
   4.62284993  1.72369417  0.44481490
  -1.37000589  2.18358588  8.24364882
   3.37400590  3.80671415  0.81242118
  -0.52625663  1.40403077  7.39926513
   2.53025663  4.58626926  1.65680486
  -0.12503183  1.87396707  6.17288300
   2.12903183  4.11633295  2.88318700
  -1.95525169  0.51408641  4.32354488
  -0.49437099  1.91459330  2.90572735
   0.74568187  2.25281061  0.79155651
   6.41437812  3.41943849  1.30782470
   5.68509061  4.25802909  3.51036065
   1.25831814  3.73748940  8.26451346
  -4.41037811  2.57086151  7.74824528
   2.49837100  4.07570670  6.15034263
  -3.68109059  1.73227091  5.54570933
   3.95925171  5.47621359  4.73252511
  -0.24794889  3.50923732  4.73252491
   2.25194889  2.48106270  4.32354508
  -1.70882924  4.90974402  6.15034314
   3.71282925  1.08055601  2.90572686
  -2.94888200  5.24796087  8.26451427
   4.95288201  0.74233917  0.79155573
  -0.20317849  0.42428874  7.74824482
   2.20717849  5.56601129  1.30782518
   0.52610877  1.26287955  5.54570871
   1.47789123  4.72742047  3.51036129



--------------------------------------------------------------------------------------------------------


 k-point   1 :   0.0000 0.0000 0.0000  plane waves:   32823
 k-point   2 :   0.2500 0.0000 0.0000  plane waves:   32793
 k-point   3 :   0.5000 0.0000 0.0000  plane waves:   32784
 k-point   4 :   0.0000 0.2500 0.0000  plane waves:   32811
 k-point   5 :   0.2500 0.2500 0.0000  plane waves:   32791
 k-point   6 :  -0.2500 0.2500 0.0000  plane waves:   32791
 k-point   7 :   0.5000 0.2500 0.0000  plane waves:   32816
 k-point   8 :   0.0000 0.5000 0.0000  plane waves:   32698
 k-point   9 :   0.2500 0.5000 0.0000  plane waves:   32730
 k-point  10 :   0.5000 0.5000 0.0000  plane waves:   32776
 k-point  11 :   0.0000 0.0000 0.3333  plane waves:   32812
 k-point  12 :   0.2500 0.0000 0.3333  plane waves:   32792
 k-point  13 :   0.5000 0.0000 0.3333  plane waves:   32781
 k-point  14 :  -0.2500 0.0000 0.3333  plane waves:   32791
 k-point  15 :   0.0000 0.2500 0.3333  plane waves:   32794
 k-point  16 :   0.0000 0.2500-0.3333  plane waves:   32794
 k-point  17 :   0.2500 0.2500 0.3333  plane waves:   32791
 k-point  18 :  -0.2500 0.2500-0.3333  plane waves:   32791
 k-point  19 :   0.5000 0.2500 0.3333  plane waves:   32765
 k-point  20 :   0.5000 0.2500-0.3333  plane waves:   32765
 k-point  21 :  -0.2500 0.2500 0.3333  plane waves:   32781
 k-point  22 :   0.2500 0.2500-0.3333  plane waves:   32781
 k-point  23 :   0.0000 0.5000 0.3333  plane waves:   32782
 k-point  24 :   0.2500 0.5000 0.3333  plane waves:   32776
 k-point  25 :   0.5000 0.5000 0.3333  plane waves:   32758
 k-point  26 :  -0.2500 0.5000 0.3333  plane waves:   32732

 maximum and minimum number of plane-waves per node :       531      495

 maximum number of plane-waves:     32823
 maximum index in each direction: 
   IXMAX=   21   IYMAX=   15   IZMAX=   28
   IXMIN=  -22   IYMIN=  -15   IZMIN=  -28


 parallel 3D FFT for wavefunctions:
    minimum data exchange during FFTs selected (reduces bandwidth)
 parallel 3D FFT for charge:
    minimum data exchange during FFTs selected (reduces bandwidth)


 total amount of memory used by VASP MPI-rank0    51294. kBytes
=======================================================================

   base      :      30000. kBytes
   nonl-proj :       2146. kBytes
   fftplans  :       1528. kBytes
   grid      :       2347. kBytes
   one-center:          3. kBytes
   wavefun   :      15270. kBytes

     INWAV:  cpu time      0.0001: real time      0.0004
 Broyden mixing: mesh for mixing (old mesh)
   NGX = 43   NGY = 31   NGZ = 57
  (NGX  =180   NGY  =128   NGZ  =240)
  gives a total of  75981 points

 initial charge density was supplied:
 charge density of overlapping atoms calculated
 number of electron     132.0000000 magnetization 
 keeping initial charge density in first step


--------------------------------------------------------------------------------------------------------


 Maximum index for augmentation-charges          485 (set IRDMAX)


--------------------------------------------------------------------------------------------------------


 First call to EWALD:  gamma=   0.230
 Maximum number of real-space cells 3x 3x 2
 Maximum number of reciprocal cells 3x 2x 4

    FEWALD:  cpu time      0.0030: real time      0.0031


--------------------------------------- Ionic step        1  -------------------------------------------




--------------------------------------- Iteration      1(   1)  ---------------------------------------


    POTLOK:  cpu time      0.0729: real time      0.0738
    SETDIJ:  cpu time      0.0091: real time      0.0091
    TRIAL :  cpu time      3.2119: real time      3.2144
    CORREC:  cpu time      0.0042: real time      0.0044
    --------------------------------------------
      LOOP:  cpu time      3.3062: real time      3.3099

 eigenvalue-minimisations  :  4784
 total energy-change (2. order) : 0.9304722E+03  (-0.9550332E+04)
 number of electron     132.0000000 magnetization 
 augmentation part      132.0000000 magnetization 

 Free energy of the ion-electron system (eV)
  ---------------------------------------------------
  alpha Z        PSCENC =       124.96893152
  Ewald energy   TEWEN  =     -1948.25569466
  -Hartree energ DENC   =     -2028.46933119
  -exchange      EXHF   =         0.00000000
  -V(xc)+E(xc)   XCENC  =       244.60855256
  PAW double counting   =      3222.53722595    -3068.21907396
  entropy T*S    EENTRO =        -0.00015780
  eigenvalues    EBANDS =        15.43300373
  atomic energy  EATOM  =      4367.86871015
  ---------------------------------------------------
  free energy    TOTEN  =       930.47216630 eV

  energy without entropy =      930.47232410  energy(sigma->0) =      930.47224520


--------------------------------------------------------------------------------------------------------




--------------------------------------- Iteration      1(   2)  ---------------------------------------


    TRIAL :  cpu time      3.8098: real time      3.8112
    CORREC:  cpu time      0.0004: real time      0.0004
    --------------------------------------------
      LOOP:  cpu time      3.8244: real time      3.8413

 eigenvalue-minimisations  :  6208
 total energy-change (2. order) :-0.1124568E+04  (-0.1075014E+04)
 number of electron     132.0000000 magnetization 
 augmentation part      132.0000000 magnetization 

 Free energy of the ion-electron system (eV)
  ---------------------------------------------------
  alpha Z        PSCENC =       124.96893152
  Ewald energy   TEWEN  =     -1948.25569466
  -Hartree energ DENC   =     -2028.46933119
  -exchange      EXHF   =         0.00000000
  -V(xc)+E(xc)   XCENC  =       244.60855256
  PAW double counting   =      3222.53722595    -3068.21907396
  entropy T*S    EENTRO =        -0.00000000
  eigenvalues    EBANDS =     -1109.13494952
  atomic energy  EATOM  =      4367.86871015
  ---------------------------------------------------
  free energy    TOTEN  =      -194.09562916 eV

  energy without entropy =     -194.09562916  energy(sigma->0) =     -194.09562916


--------------------------------------------------------------------------------------------------------




--------------------------------------- Iteration      1(   3)  ---------------------------------------


    TRIAL :  cpu time      3.6924: real time      3.6941
    CORREC:  cpu time      0.0004: real time      0.0004
    --------------------------------------------
      LOOP:  cpu time      3.7053: real time      3.7251

 eigenvalue-minimisations  :  5952
 total energy-change (2. order) :-0.1455827E+03  (-0.1443290E+03)
 number of electron     132.0000000 magnetization 
 augmentation part      132.0000000 magnetization 

 Free energy of the ion-electron system (eV)
  ---------------------------------------------------
  alpha Z        PSCENC =       124.96893152
  Ewald energy   TEWEN  =     -1948.25569466
  -Hartree energ DENC   =     -2028.46933119
  -exchange      EXHF   =         0.00000000
  -V(xc)+E(xc)   XCENC  =       244.60855256
  PAW double counting   =      3222.53722595    -3068.21907396
  entropy T*S    EENTRO =        -0.00000000
  eigenvalues    EBANDS =     -1254.71766715
  atomic energy  EATOM  =      4367.86871015
  ---------------------------------------------------
  free energy    TOTEN  =      -339.67834679 eV

  energy without entropy =     -339.67834679  energy(sigma->0) =     -339.67834679


--------------------------------------------------------------------------------------------------------




--------------------------------------- Iteration      1(   4)  ---------------------------------------


    TRIAL :  cpu time      3.7031: real time      3.7045
    CORREC:  cpu time      0.0004: real time      0.0004
    --------------------------------------------
      LOOP:  cpu time      3.7162: real time      3.7358

 eigenvalue-minimisations  :  6080
 total energy-change (2. order) :-0.4928098E+01  (-0.4909653E+01)
 number of electron     132.0000000 magnetization 
 augmentation part      132.0000000 magnetization 

 Free energy of the ion-electron system (eV)
  ---------------------------------------------------
  alpha Z        PSCENC =       124.96893152
  Ewald energy   TEWEN  =     -1948.25569466
  -Hartree energ DENC   =     -2028.46933119
  -exchange      EXHF   =         0.00000000
  -V(xc)+E(xc)   XCENC  =       244.60855256
  PAW double counting   =      3222.53722595    -3068.21907396
  entropy T*S    EENTRO =        -0.00000000
  eigenvalues    EBANDS =     -1259.64576495
  atomic energy  EATOM  =      4367.86871015
  ---------------------------------------------------
  free energy    TOTEN  =      -344.60644459 eV

  energy without entropy =     -344.60644459  energy(sigma->0) =     -344.60644459


--------------------------------------------------------------------------------------------------------




--------------------------------------- Iteration      1(   5)  ---------------------------------------


    TRIAL :  cpu time      3.8344: real time      3.8364
    CORREC:  cpu time      0.0005: real time      0.0005
    CHARGE:  cpu time      0.2521: real time      0.2537
    --------------------------------------------
      LOOP:  cpu time      4.0995: real time      4.1219

 eigenvalue-minimisations  :  6368
 total energy-change (2. order) :-0.1708993E+00  (-0.1707463E+00)
 number of electron     132.0000001 magnetization 
 augmentation part       -0.1254392 magnetization 

 Free energy of the ion-electron system (eV)
  ---------------------------------------------------
  alpha Z        PSCENC =       124.96893152
  Ewald energy   TEWEN  =     -1948.25569466
  -Hartree energ DENC   =     -2028.46933119
  -exchange      EXHF   =         0.00000000
  -V(xc)+E(xc)   XCENC  =       244.60855256
  PAW double counting   =      3222.53722595    -3068.21907396
  entropy T*S    EENTRO =        -0.00000000
  eigenvalues    EBANDS =     -1259.81666429
  atomic energy  EATOM  =      4367.86871015
  ---------------------------------------------------
  free energy    TOTEN  =      -344.77734392 eV

  energy without entropy =     -344.77734392  energy(sigma->0) =     -344.77734392


--------------------------------------------------------------------------------------------------------




--------------------------------------- Iteration      1(   6)  ---------------------------------------


    POTLOK:  cpu time      0.0262: real time      0.0262
    SETDIJ:  cpu time      0.0023: real time      0.0023
    TRIAL :  cpu time      1.8549: real time      1.8573
    CORREC:  cpu time      1.0747: real time      1.0759
    CHARGE:  cpu time      0.2324: real time      0.2327
    --------------------------------------------
      LOOP:  cpu time      3.2024: real time      3.2238

 eigenvalue-minimisations  :     0
 total energy-change (2. order) : 0.4591075E+02  (-0.1667203E+02)
 number of electron     132.0000001 magnetization 
 augmentation part       -0.1613145 magnetization 

 Free energy of the ion-electron system (eV)
  ---------------------------------------------------
  alpha Z        PSCENC =       124.96893152
  Ewald energy   TEWEN  =     -1948.25569466
  -Hartree energ DENC   =     -2724.05254477
  -exchange      EXHF   =         0.00000000
  -V(xc)+E(xc)   XCENC  =       282.78853553
  PAW double counting   =     49479.97786610   -49328.83502004
  entropy T*S    EENTRO =        -0.00000000
  eigenvalues    EBANDS =      -553.32737996
  atomic energy  EATOM  =      4367.86871015
  ---------------------------------------------------
  free energy    TOTEN  =      -298.86659613 eV

  energy without entropy =     -298.86659613  energy(sigma->0) =     -298.86659613


--------------------------------------------------------------------------------------------------------




--------------------------------------- Iteration      1(   7)  ---------------------------------------


    POTLOK:  cpu time      0.0262: real time      0.0262
    SETDIJ:  cpu time      0.0023: real time      0.0023
    TRIAL :  cpu time      1.8077: real time      1.8084
    CORREC:  cpu time      1.0436: real time      1.0438
    CHARGE:  cpu time      0.2275: real time      0.2276
    --------------------------------------------
      LOOP:  cpu time      3.1364: real time      3.1379

 eigenvalue-minimisations  :     0
 total energy-change (2. order) :-0.1665042E+02  (-0.1822072E+01)
 number of electron     132.0000001 magnetization 
 augmentation part       -0.1926352 magnetization 

 Free energy of the ion-electron system (eV)
  ---------------------------------------------------
  alpha Z        PSCENC =       124.96893152
  Ewald energy   TEWEN  =     -1948.25569466
  -Hartree energ DENC   =     -2441.38163016
  -exchange      EXHF   =         0.00000000
  -V(xc)+E(xc)   XCENC  =       269.27286882
  PAW double counting   =     59960.33766799   -59807.71225537
  entropy T*S    EENTRO =        -0.00000000
  eigenvalues    EBANDS =      -840.61561249
  atomic energy  EATOM  =      4367.86871015
  ---------------------------------------------------
  free energy    TOTEN  =      -315.51701420 eV

  energy without entropy =     -315.51701420  energy(sigma->0) =     -315.51701420


--------------------------------------------------------------------------------------------------------




--------------------------------------- Iteration      1(   8)  ---------------------------------------


    POTLOK:  cpu time      0.0265: real time      0.0265
    SETDIJ:  cpu time      0.0023: real time      0.0023
    TRIAL :  cpu time      1.8070: real time      1.8077
    CORREC:  cpu time      1.0715: real time      1.0720
    CHARGE:  cpu time      0.2255: real time      0.2255
    --------------------------------------------
      LOOP:  cpu time      3.1454: real time      3.1651

 eigenvalue-minimisations  :     0
 total energy-change (2. order) :-0.1815310E+01  (-0.5383367E+00)
 number of electron     132.0000001 magnetization 
 augmentation part       -0.1939464 magnetization 

 Free energy of the ion-electron system (eV)
  ---------------------------------------------------
  alpha Z        PSCENC =       124.96893152
  Ewald energy   TEWEN  =     -1948.25569466
  -Hartree energ DENC   =     -2430.36673285
  -exchange      EXHF   =         0.00000000
  -V(xc)+E(xc)   XCENC  =       268.98355078
  PAW double counting   =     62855.03998349   -62702.24238447
  entropy T*S    EENTRO =        -0.00000000
  eigenvalues    EBANDS =      -853.32868787
  atomic energy  EATOM  =      4367.86871015
  ---------------------------------------------------
  free energy    TOTEN  =      -317.33232390 eV

  energy without entropy =     -317.33232390  energy(sigma->0) =     -317.33232390


--------------------------------------------------------------------------------------------------------




--------------------------------------- Iteration      1(   9)  ---------------------------------------


    POTLOK:  cpu time      0.0265: real time      0.0265
    SETDIJ:  cpu time      0.0023: real time      0.0023
    TRIAL :  cpu time      1.8229: real time      1.8236
    CORREC:  cpu time      1.0447: real time      1.0451
    CHARGE:  cpu time      0.2220: real time      0.2220
    --------------------------------------------
      LOOP:  cpu time      3.1310: real time      3.1493

 eigenvalue-minimisations  :     0
 total energy-change (2. order) :-0.5336629E+00  (-0.1599385E+00)
 number of electron     132.0000001 magnetization 
 augmentation part       -0.1951814 magnetization 

 Free energy of the ion-electron system (eV)
  ---------------------------------------------------
  alpha Z        PSCENC =       124.96893152
  Ewald energy   TEWEN  =     -1948.25569466
  -Hartree energ DENC   =     -2421.73231182
  -exchange      EXHF   =         0.00000000
  -V(xc)+E(xc)   XCENC  =       268.69516942
  PAW double counting   =     62590.32971219   -62437.47337175
  entropy T*S    EENTRO =        -0.00000000
  eigenvalues    EBANDS =      -862.26713182
  atomic energy  EATOM  =      4367.86871015
  ---------------------------------------------------
  free energy    TOTEN  =      -317.86598678 eV

  energy without entropy =     -317.86598678  energy(sigma->0) =     -317.86598678


--------------------------------------------------------------------------------------------------------




--------------------------------------- Iteration      1(  10)  ---------------------------------------


    POTLOK:  cpu time      0.0266: real time      0.0266
    SETDIJ:  cpu time      0.0023: real time      0.0023
    TRIAL :  cpu time      1.8259: real time      1.8266
    CORREC:  cpu time      1.0486: real time      1.0491
    CHARGE:  cpu time      0.2250: real time      0.2250
    --------------------------------------------
      LOOP:  cpu time      3.1646: real time      3.1660

 eigenvalue-minimisations  :     0
 total energy-change (2. order) :-0.1589836E+00  (-0.3932213E-01)
 number of electron     132.0000001 magnetization 
 augmentation part       -0.1964095 magnetization 

 Free energy of the ion-electron system (eV)
  ---------------------------------------------------
  alpha Z        PSCENC =       124.96893152
  Ewald energy   TEWEN  =     -1948.25569466
  -Hartree energ DENC   =     -2415.72777506
  -exchange      EXHF   =         0.00000000
  -V(xc)+E(xc)   XCENC  =       268.46338458
  PAW double counting   =     61529.43636490   -61376.59372024
  entropy T*S    EENTRO =        -0.00000000
  eigenvalues    EBANDS =      -868.18517154
  atomic energy  EATOM  =      4367.86871015
  ---------------------------------------------------
  free energy    TOTEN  =      -318.02497034 eV

  energy without entropy =     -318.02497034  energy(sigma->0) =     -318.02497034


--------------------------------------------------------------------------------------------------------




--------------------------------------- Iteration      1(  11)  ---------------------------------------


    POTLOK:  cpu time      0.0265: real time      0.0265
    SETDIJ:  cpu time      0.0023: real time      0.0023
    TRIAL :  cpu time      1.8875: real time      1.8882
    CORREC:  cpu time      1.0532: real time      1.0538
    CHARGE:  cpu time      0.2230: real time      0.2230
    --------------------------------------------
      LOOP:  cpu time      3.2080: real time      3.2235

 eigenvalue-minimisations  :     0
 total energy-change (2. order) :-0.3925071E-01  (-0.7732461E-02)
 number of electron     132.0000001 magnetization 
 augmentation part       -0.1966842 magnetization 

 Free energy of the ion-electron system (eV)
  ---------------------------------------------------
  alpha Z        PSCENC =       124.96893152
  Ewald energy   TEWEN  =     -1948.25569466
  -Hartree energ DENC   =     -2416.31529110
  -exchange      EXHF   =         0.00000000
  -V(xc)+E(xc)   XCENC  =       268.42031704
  PAW double counting   =     61139.47010850   -60986.65012459
  entropy T*S    EENTRO =        -0.00000000
  eigenvalues    EBANDS =      -867.57117791
  atomic energy  EATOM  =      4367.86871015
  ---------------------------------------------------
  free energy    TOTEN  =      -318.06422105 eV

  energy without entropy =     -318.06422105  energy(sigma->0) =     -318.06422105


--------------------------------------------------------------------------------------------------------




--------------------------------------- Iteration      1(  12)  ---------------------------------------


    POTLOK:  cpu time      0.0264: real time      0.0264
    SETDIJ:  cpu time      0.0023: real time      0.0023
    TRIAL :  cpu time      1.8744: real time      1.8748
    CORREC:  cpu time      1.0409: real time      1.0414
    CHARGE:  cpu time      0.2225: real time      0.2227
    --------------------------------------------
      LOOP:  cpu time      3.1926: real time      3.1969

 eigenvalue-minimisations  :     0
 total energy-change (2. order) :-0.7726705E-02  (-0.1652126E-02)
 number of electron     132.0000001 magnetization 
 augmentation part       -0.1966087 magnetization 

 Free energy of the ion-electron system (eV)
  ---------------------------------------------------
  alpha Z        PSCENC =       124.96893152
  Ewald energy   TEWEN  =     -1948.25569466
  -Hartree energ DENC   =     -2415.35533431
  -exchange      EXHF   =         0.00000000
  -V(xc)+E(xc)   XCENC  =       268.36223016
  PAW double counting   =     61213.19369618   -61060.37543585
  entropy T*S    EENTRO =        -0.00000000
  eigenvalues    EBANDS =      -868.47905094
  atomic energy  EATOM  =      4367.86871015
  ---------------------------------------------------
  free energy    TOTEN  =      -318.07194776 eV

  energy without entropy =     -318.07194776  energy(sigma->0) =     -318.07194776


--------------------------------------------------------------------------------------------------------




--------------------------------------- Iteration      1(  13)  ---------------------------------------


    POTLOK:  cpu time      0.0263: real time      0.0263
    SETDIJ:  cpu time      0.0023: real time      0.0023
    TRIAL :  cpu time      1.8083: real time      1.8091
    CORREC:  cpu time      1.0430: real time      1.0434
    CHARGE:  cpu time      0.2217: real time      0.2217
    --------------------------------------------
      LOOP:  cpu time      3.1147: real time      3.1324

 eigenvalue-minimisations  :     0
 total energy-change (2. order) :-0.1651665E-02  (-0.3451424E-03)
 number of electron     132.0000001 magnetization 
 augmentation part       -0.1963663 magnetization 

 Free energy of the ion-electron system (eV)
  ---------------------------------------------------
  alpha Z        PSCENC =       124.96893152
  Ewald energy   TEWEN  =     -1948.25569466
  -Hartree energ DENC   =     -2415.62913929
  -exchange      EXHF   =         0.00000000
  -V(xc)+E(xc)   XCENC  =       268.36476598
  PAW double counting   =     61290.03690078   -61137.22000673
  entropy T*S    EENTRO =        -0.00000000
  eigenvalues    EBANDS =      -868.20806717
  atomic energy  EATOM  =      4367.86871015
  ---------------------------------------------------
  free energy    TOTEN  =      -318.07359942 eV

  energy without entropy =     -318.07359942  energy(sigma->0) =     -318.07359942


--------------------------------------------------------------------------------------------------------




--------------------------------------- Iteration      1(  14)  ---------------------------------------


    POTLOK:  cpu time      0.0263: real time      0.0263
    SETDIJ:  cpu time      0.0023: real time      0.0023
    TRIAL :  cpu time      1.8613: real time      1.8621
    CORREC:  cpu time      1.0419: real time      1.0425
    CHARGE:  cpu time      0.2222: real time      0.2222
    --------------------------------------------
      LOOP:  cpu time      3.1838: real time      3.1855

 eigenvalue-minimisations  :     0
 total energy-change (2. order) :-0.3469171E-03  (-0.7257721E-04)
 number of electron     132.0000001 magnetization 
 augmentation part       -0.1961900 magnetization 

 Free energy of the ion-electron system (eV)
  ---------------------------------------------------
  alpha Z        PSCENC =       124.96893152
  Ewald energy   TEWEN  =     -1948.25569466
  -Hartree energ DENC   =     -2415.68242068
  -exchange      EXHF   =         0.00000000
  -V(xc)+E(xc)   XCENC  =       268.36596604
  PAW double counting   =     61303.86659241   -61151.04975999
  entropy T*S    EENTRO =        -0.00000000
  eigenvalues    EBANDS =      -868.15627111
  atomic energy  EATOM  =      4367.86871015
  ---------------------------------------------------
  free energy    TOTEN  =      -318.07394634 eV

  energy without entropy =     -318.07394634  energy(sigma->0) =     -318.07394634


--------------------------------------------------------------------------------------------------------




--------------------------------------- Iteration      1(  15)  ---------------------------------------


    POTLOK:  cpu time      0.0263: real time      0.0263
    SETDIJ:  cpu time      0.0023: real time      0.0023
    TRIAL :  cpu time      1.8056: real time      1.8063
    CORREC:  cpu time      1.0407: real time      1.0411
    CHARGE:  cpu time      0.2220: real time      0.2220
    --------------------------------------------
      LOOP:  cpu time      3.1271: real time      3.1283

 eigenvalue-minimisations  :     0
 total energy-change (2. order) :-0.7402099E-04  (-0.1780737E-04)
 number of electron     132.0000001 magnetization 
 augmentation part       -0.1961240 magnetization 

 Free energy of the ion-electron system (eV)
  ---------------------------------------------------
  alpha Z        PSCENC =       124.96893152
  Ewald energy   TEWEN  =     -1948.25569466
  -Hartree energ DENC   =     -2415.70092266
  -exchange      EXHF   =         0.00000000
  -V(xc)+E(xc)   XCENC  =       268.36483145
  PAW double counting   =     61298.22523412   -61145.40814779
  entropy T*S    EENTRO =        -0.00000000
  eigenvalues    EBANDS =      -868.13696249
  atomic energy  EATOM  =      4367.86871015
  ---------------------------------------------------
  free energy    TOTEN  =      -318.07402036 eV

  energy without entropy =     -318.07402036  energy(sigma->0) =     -318.07402036


--------------------------------------------------------------------------------------------------------




--------------------------------------- Iteration      1(  16)  ---------------------------------------


    POTLOK:  cpu time      0.0264: real time      0.0264
    SETDIJ:  cpu time      0.0023: real time      0.0023
    TRIAL :  cpu time      1.8073: real time      1.8079
    CORREC:  cpu time      1.0425: real time      1.0430
    CHARGE:  cpu time      0.2213: real time      0.2213
    --------------------------------------------
      LOOP:  cpu time      3.1142: real time      3.1305

 eigenvalue-minimisations  :     0
 total energy-change (2. order) :-0.1817809E-04  (-0.4671024E-05)
 number of electron     132.0000001 magnetization 
 augmentation part       -0.1961170 magnetization 

 Free energy of the ion-electron system (eV)
  ---------------------------------------------------
  alpha Z        PSCENC =       124.96893152
  Ewald energy   TEWEN  =     -1948.25569466
  -Hartree energ DENC   =     -2415.72036722
  -exchange      EXHF   =         0.00000000
  -V(xc)+E(xc)   XCENC  =       268.36644720
  PAW double counting   =     61296.53307298   -61143.71596982
  entropy T*S    EENTRO =        -0.00000000
  eigenvalues    EBANDS =      -868.11916869
  atomic energy  EATOM  =      4367.86871015
  ---------------------------------------------------
  free energy    TOTEN  =      -318.07403854 eV

  energy without entropy =     -318.07403854  energy(sigma->0) =     -318.07403854


--------------------------------------------------------------------------------------------------------




--------------------------------------- Iteration      1(  17)  ---------------------------------------


    POTLOK:  cpu time      0.0264: real time      0.0264
    SETDIJ:  cpu time      0.0023: real time      0.0023
    TRIAL :  cpu time      1.8130: real time      1.8136
    CORREC:  cpu time      1.0547: real time      1.0552
    CHARGE:  cpu time      0.2493: real time      0.2493
    --------------------------------------------
      LOOP:  cpu time      3.1594: real time      3.1758

 eigenvalue-minimisations  :     0
 total energy-change (2. order) :-0.4742156E-05  (-0.1422403E-05)
 number of electron     132.0000001 magnetization 
 augmentation part       -0.1961203 magnetization 

 Free energy of the ion-electron system (eV)
  ---------------------------------------------------
  alpha Z        PSCENC =       124.96893152
  Ewald energy   TEWEN  =     -1948.25569466
  -Hartree energ DENC   =     -2415.73781599
  -exchange      EXHF   =         0.00000000
  -V(xc)+E(xc)   XCENC  =       268.36668709
  PAW double counting   =     61298.83505608   -61146.01786189
  entropy T*S    EENTRO =        -0.00000000
  eigenvalues    EBANDS =      -868.10205557
  atomic energy  EATOM  =      4367.86871015
  ---------------------------------------------------
  free energy    TOTEN  =      -318.07404328 eV

  energy without entropy =     -318.07404328  energy(sigma->0) =     -318.07404328


--------------------------------------------------------------------------------------------------------




--------------------------------------- Iteration      1(  18)  ---------------------------------------


    POTLOK:  cpu time      0.0272: real time      0.0273
    SETDIJ:  cpu time      0.0024: real time      0.0024
    TRIAL :  cpu time      1.8063: real time      1.8072
    CORREC:  cpu time      1.0518: real time      1.0524
    CHARGE:  cpu time      0.2595: real time      0.2597
    --------------------------------------------
      LOOP:  cpu time      3.1769: real time      3.1787

 eigenvalue-minimisations  :     0
 total energy-change (2. order) :-0.1415305E-05  (-0.5072595E-06)
 number of electron     132.0000001 magnetization 
 augmentation part       -0.1961195 magnetization 

 Free energy of the ion-electron system (eV)
  ---------------------------------------------------
  alpha Z        PSCENC =       124.96893152
  Ewald energy   TEWEN  =     -1948.25569466
  -Hartree energ DENC   =     -2415.72753866
  -exchange      EXHF   =         0.00000000
  -V(xc)+E(xc)   XCENC  =       268.36681522
  PAW double counting   =     61300.28181791   -61147.46458019
  entropy T*S    EENTRO =        -0.00000000
  eigenvalues    EBANDS =      -868.11250599
  atomic energy  EATOM  =      4367.86871015
  ---------------------------------------------------
  free energy    TOTEN  =      -318.07404469 eV

  energy without entropy =     -318.07404469  energy(sigma->0) =     -318.07404469


--------------------------------------------------------------------------------------------------------




--------------------------------------- Iteration      1(  19)  ---------------------------------------


    POTLOK:  cpu time      0.0264: real time      0.0264
    SETDIJ:  cpu time      0.0023: real time      0.0023
    TRIAL :  cpu time      1.8130: real time      1.8133
    CORREC:  cpu time      1.0939: real time      1.0948
    CHARGE:  cpu time      0.2214: real time      0.2214
    --------------------------------------------
      LOOP:  cpu time      3.1705: real time      3.1881

 eigenvalue-minimisations  :     0
 total energy-change (2. order) :-0.4760586E-06  (-0.1176040E-06)
 number of electron     132.0000001 magnetization 
 augmentation part       -0.1961194 magnetization 

 Free energy of the ion-electron system (eV)
  ---------------------------------------------------
  alpha Z        PSCENC =       124.96893152
  Ewald energy   TEWEN  =     -1948.25569466
  -Hartree energ DENC   =     -2415.74033101
  -exchange      EXHF   =         0.00000000
  -V(xc)+E(xc)   XCENC  =       268.36714665
  PAW double counting   =     61299.59684124   -61146.77963505
  entropy T*S    EENTRO =        -0.00000000
  eigenvalues    EBANDS =      -868.10001401
  atomic energy  EATOM  =      4367.86871015
  ---------------------------------------------------
  free energy    TOTEN  =      -318.07404517 eV

  energy without entropy =     -318.07404517  energy(sigma->0) =     -318.07404517


--------------------------------------------------------------------------------------------------------




--------------------------------------- Iteration      1(  20)  ---------------------------------------


    POTLOK:  cpu time      0.0262: real time      0.0262
    SETDIJ:  cpu time      0.0023: real time      0.0023
    TRIAL :  cpu time      1.8143: real time      1.8151
    CORREC:  cpu time      1.0446: real time      1.0452
    CHARGE:  cpu time      0.2229: real time      0.2229
    --------------------------------------------
      LOOP:  cpu time      3.1220: real time      3.1421

 eigenvalue-minimisations  :     0
 total energy-change (2. order) :-0.1195440E-06  (-0.4159944E-07)
 number of electron     132.0000001 magnetization 
 augmentation part       -0.1961192 magnetization 

 Free energy of the ion-electron system (eV)
  ---------------------------------------------------
  alpha Z        PSCENC =       124.96893152
  Ewald energy   TEWEN  =     -1948.25569466
  -Hartree energ DENC   =     -2415.73416645
  -exchange      EXHF   =         0.00000000
  -V(xc)+E(xc)   XCENC  =       268.36699912
  PAW double counting   =     61298.77254845   -61145.95534349
  entropy T*S    EENTRO =        -0.00000000
  eigenvalues    EBANDS =      -868.10602992
  atomic energy  EATOM  =      4367.86871015
  ---------------------------------------------------
  free energy    TOTEN  =      -318.07404529 eV

  energy without entropy =     -318.07404529  energy(sigma->0) =     -318.07404529


--------------------------------------------------------------------------------------------------------




--------------------------------------- Iteration      1(  21)  ---------------------------------------


    POTLOK:  cpu time      0.0264: real time      0.0264
    SETDIJ:  cpu time      0.0023: real time      0.0023
    TRIAL :  cpu time      1.8080: real time      1.8087
    CORREC:  cpu time      1.0436: real time      1.0441
    EDDIAG:  cpu time      0.8616: real time      0.8623
    CHARGE:  cpu time      0.2217: real time      0.2217
    --------------------------------------------
      LOOP:  cpu time      3.9927: real time      3.9947

 eigenvalue-minimisations  :     0
 total energy-change (2. order) :-0.4284811E-07  (-0.4986243E-07)
 number of electron     132.0000001 magnetization 
 augmentation part       -0.1961199 magnetization 

 Free energy of the ion-electron system (eV)
  ---------------------------------------------------
  alpha Z        PSCENC =       124.96893152
  Ewald energy   TEWEN  =     -1948.25569466
  -Hartree energ DENC   =     -2415.73328193
  -exchange      EXHF   =         0.00000000
  -V(xc)+E(xc)   XCENC  =       268.36693290
  PAW double counting   =     61298.26231016   -61145.44510992
  entropy T*S    EENTRO =        -0.00000000
  eigenvalues    EBANDS =      -868.10684355
  atomic energy  EATOM  =      4367.86871015
  ---------------------------------------------------
  free energy    TOTEN  =      -318.07404533 eV

  energy without entropy =     -318.07404533  energy(sigma->0) =     -318.07404533


--------------------------------------------------------------------------------------------------------


  average scaling for gradient   0.9349


 average (electrostatic) potential at core
  the test charge radii are     0.5770  0.4325
  (the norm of the test charge is              1.0000)
       1 -80.7174       2 -80.6994       3 -80.9547       4 -80.6874       5 -80.9411
       6 -80.6277       7 -80.6912       8 -80.9411       9 -80.6874      10 -80.9547
      11 -80.6277      12 -80.6994      13 -80.6912      14 -80.7174      15 -80.7174
      16 -80.7174      17 -80.6994      18 -80.6994      19 -80.9547      20 -80.9547
      21 -80.6874      22 -80.6874      23 -80.9411      24 -80.9411      25 -80.6277
      26 -80.6277      27 -80.6912      28 -80.6912      29 -39.5420      30 -39.5027
      31 -39.4521      32 -39.3838      33 -39.4772      34 -39.4521      35 -39.3838
      36 -39.5027      37 -39.4772      38 -39.5420      39 -39.5420      40 -39.5420
      41 -39.5027      42 -39.5027      43 -39.4521      44 -39.4521      45 -39.3838
      46 -39.3838      47 -39.4772      48 -39.4772



 E-fermi :   0.8932     XC(G=0):  -7.9905     alpha+bet : -7.6605

 Fermi energy:         0.8932262856

 k-point     1 :       0.0000    0.0000    0.0000
  band No.  band energies     occupation 
      1     -16.4193      2.00000
      2     -16.2649      2.00000
      3     -15.5333      2.00000
      4     -15.5191      2.00000
      5     -14.2977      2.00000
      6     -14.2708      2.00000
      7     -13.7493      2.00000
      8     -13.7419      2.00000
      9     -12.9113      2.00000
     10     -12.9083      2.00000
     11     -12.6878      2.00000
     12     -12.5738      2.00000
     13     -11.6978      2.00000
     14     -11.6450      2.00000
     15     -10.4007      2.00000
     16     -10.2931      2.00000
     17      -9.5348      2.00000
     18      -9.4669      2.00000
     19      -9.2768      2.00000
     20      -9.1777      2.00000
     21      -8.9319      2.00000
     22      -8.8842      2.00000
     23      -7.6377      2.00000
     24      -7.5365      2.00000
     25      -7.2174      2.00000
     26      -7.0329      2.00000
     27      -6.8820      2.00000
     28      -6.7066      2.00000
     29      -5.7978      2.00000
     30      -5.7945      2.00000
     31      -5.5346      2.00000
     32      -5.4243      2.00000
     33      -5.4080      2.00000
     34      -5.2212      2.00000
     35      -5.2058      2.00000
     36      -5.1400      2.00000
     37      -4.4592      2.00000
     38      -4.4416      2.00000
     39      -4.3164      2.00000
     40      -4.2687      2.00000
     41      -4.1368      2.00000
     42      -4.0256      2.00000
     43      -4.0248      2.00000
     44      -3.8253      2.00000
     45      -3.7948      2.00000
     46      -3.7905      2.00000
     47      -3.5263      2.00000
     48      -3.4811      2.00000
     49      -3.4488      2.00000
     50      -3.2201      2.00000
     51      -2.6863      2.00000
     52      -2.6078      2.00000
     53      -2.4918      2.00000
     54      -2.2686      2.00000
     55      -2.2485      2.00000
     56      -2.1014      2.00000
     57      -1.8357      2.00000
     58      -1.8334      2.00000
     59      -1.8311      2.00000
     60      -1.5448      2.00000
     61      -0.9284      2.00000
     62      -0.7491      2.00000
     63      -0.6740      2.00000
     64      -0.3382      2.00000
     65       0.5948      2.00000
     66       0.6336      2.00000
     67       2.8294      0.00000
     68       3.3597      0.00000
     69       3.9314      0.00000
     70       4.5540      0.00000
     71       4.6639      0.00000
     72       4.9093      0.00000
     73       5.4912      0.00000
     74       5.8487      0.00000
     75       5.9410      0.00000
     76       6.0053      0.00000
     77       6.1067      0.00000
     78       6.7252      0.00000
     79       7.3416      0.00000
     80       7.5986      0.00000
     81       7.8345      0.00000
     82       7.8366      0.00000
     83       8.0401      0.00000
     84       8.1620      0.00000
     85       8.1909      0.00000
     86       8.3487      0.00000
     87       8.5248      0.00000
     88       8.5942      0.00000
     89       8.9879      0.00000
     90       9.1883      0.00000
     91       9.2152      0.00000
     92       9.4119      0.00000

 k-point     2 :       0.2500    0.0000    0.0000
  band No.  band energies     occupation 
      1     -16.3979      2.00000
      2     -16.2889      2.00000
      3     -15.5322      2.00000
      4     -15.5219      2.00000
      5     -14.2901      2.00000
      6     -14.2712      2.00000
      7     -13.7470      2.00000
      8     -13.7417      2.00000
      9     -12.9135      2.00000
     10     -12.9113      2.00000
     11     -12.6710      2.00000
     12     -12.5905      2.00000
     13     -11.6918      2.00000
     14     -11.6544      2.00000
     15     -10.3838      2.00000
     16     -10.3077      2.00000
     17      -9.5251      2.00000
     18      -9.4770      2.00000
     19      -9.2698      2.00000
     20      -9.1998      2.00000
     21      -8.9212      2.00000
     22      -8.8870      2.00000
     23      -7.6219      2.00000
     24      -7.5505      2.00000
     25      -7.1893      2.00000
     26      -7.0630      2.00000
     27      -6.8425      2.00000
     28      -6.7242      2.00000
     29      -5.8138      2.00000
     30      -5.7901      2.00000
     31      -5.5403      2.00000
     32      -5.4639      2.00000
     33      -5.2700      2.00000
     34      -5.2142      2.00000
     35      -5.2001      2.00000
     36      -5.1053      2.00000
     37      -4.5582      2.00000
     38      -4.5367      2.00000
     39      -4.3101      2.00000
     40      -4.2646      2.00000
     41      -4.1016      2.00000
     42      -4.0542      2.00000
     43      -4.0376      2.00000
     44      -3.9213      2.00000
     45      -3.8033      2.00000
     46      -3.7772      2.00000
     47      -3.5293      2.00000
     48      -3.5061      2.00000
     49      -3.3533      2.00000
     50      -3.1845      2.00000
     51      -2.6907      2.00000
     52      -2.6298      2.00000
     53      -2.4101      2.00000
     54      -2.2656      2.00000
     55      -2.2538      2.00000
     56      -2.1290      2.00000
     57      -1.8677      2.00000
     58      -1.8280      2.00000
     59      -1.7513      2.00000
     60      -1.6059      2.00000
     61      -0.9238      2.00000
     62      -0.8022      2.00000
     63      -0.6082      2.00000
     64      -0.3789      2.00000
     65       0.6348      2.00000
     66       0.6637      2.00000
     67       2.9065      0.00000
     68       3.2820      0.00000
     69       4.0082      0.00000
     70       4.4445      0.00000
     71       4.7225      0.00000
     72       4.8786      0.00000
     73       5.4347      0.00000
     74       5.8242      0.00000
     75       6.0163      0.00000
     76       6.0828      0.00000
     77       6.1078      0.00000
     78       6.6186      0.00000
     79       7.2672      0.00000
     80       7.4773      0.00000
     81       7.7673      0.00000
[...]
     10     -12.9980      2.00000
     11     -12.6637      2.00000
     12     -12.6637      2.00000
     13     -11.7268      2.00000
     14     -11.7268      2.00000
     15     -10.2518      2.00000
     16     -10.2518      2.00000
     17      -9.5447      2.00000
     18      -9.5447      2.00000
     19      -8.9893      2.00000
     20      -8.9893      2.00000
     21      -8.8115      2.00000
     22      -8.8115      2.00000
     23      -7.5608      2.00000
     24      -7.5608      2.00000
     25      -7.1663      2.00000
     26      -7.1663      2.00000
     27      -6.6020      2.00000
     28      -6.6020      2.00000
     29      -5.6857      2.00000
     30      -5.6857      2.00000
     31      -5.6039      2.00000
     32      -5.6039      2.00000
     33      -5.4765      2.00000
     34      -5.4765      2.00000
     35      -5.1989      2.00000
     36      -5.1989      2.00000
     37      -4.7370      2.00000
     38      -4.7370      2.00000
     39      -4.4377      2.00000
     40      -4.4377      2.00000
     41      -4.2011      2.00000
     42      -4.2011      2.00000
     43      -4.1124      2.00000
     44      -4.1124      2.00000
     45      -3.6767      2.00000
     46      -3.6767      2.00000
     47      -3.4672      2.00000
     48      -3.4672      2.00000
     49      -3.2774      2.00000
     50      -3.2774      2.00000
     51      -2.6592      2.00000
     52      -2.6592      2.00000
     53      -2.3390      2.00000
     54      -2.3390      2.00000
     55      -2.0771      2.00000
     56      -2.0771      2.00000
     57      -1.8354      2.00000
     58      -1.8354      2.00000
     59      -1.5293      2.00000
     60      -1.5293      2.00000
     61      -0.6298      2.00000
     62      -0.6298      2.00000
     63      -0.5100      2.00000
     64      -0.5100      2.00000
     65       0.8358      2.00000
     66       0.8358      2.00000
     67       2.9568      0.00000
     68       2.9568      0.00000
     69       4.3086      0.00000
     70       4.3086      0.00000
     71       4.5165      0.00000
     72       4.5165      0.00000
     73       5.1096      0.00000
     74       5.1096      0.00000
     75       6.1155      0.00000
     76       6.1155      0.00000
     77       6.8077      0.00000
     78       6.8077      0.00000
     79       6.9057      0.00000
     80       6.9057      0.00000
     81       7.6193      0.00000
     82       7.6195      0.00000
     83       8.0657      0.00000
     84       8.0678      0.00000
     85       8.2294      0.00000
     86       8.2367      0.00000
     87       8.3331      0.00000
     88       8.3376      0.00000
     89       8.9555      0.00000
     90       9.0130      0.00000
     91       9.2679      0.00000
     92       9.5544      0.00000

 k-point    26 :      -0.2500    0.5000    0.3333
  band No.  band energies     occupation 
      1     -16.3140      2.00000
      2     -16.3140      2.00000
      3     -15.5113      2.00000
      4     -15.5113      2.00000
      5     -14.2427      2.00000
      6     -14.2427      2.00000
      7     -13.8408      2.00000
      8     -13.8408      2.00000
      9     -12.9983      2.00000
     10     -12.9983      2.00000
     11     -12.6667      2.00000
     12     -12.6667      2.00000
     13     -11.7262      2.00000
     14     -11.7262      2.00000
     15     -10.2530      2.00000
     16     -10.2530      2.00000
     17      -9.5415      2.00000
     18      -9.5415      2.00000
     19      -8.9933      2.00000
     20      -8.9933      2.00000
     21      -8.8118      2.00000
     22      -8.8118      2.00000
     23      -7.5596      2.00000
     24      -7.5596      2.00000
     25      -7.1585      2.00000
     26      -7.1585      2.00000
     27      -6.6064      2.00000
     28      -6.6064      2.00000
     29      -5.6927      2.00000
     30      -5.6927      2.00000
     31      -5.5649      2.00000
     32      -5.5649      2.00000
     33      -5.4786      2.00000
     34      -5.4786      2.00000
     35      -5.2025      2.00000
     36      -5.2025      2.00000
     37      -4.7707      2.00000
     38      -4.7707      2.00000
     39      -4.4437      2.00000
     40      -4.4437      2.00000
     41      -4.2353      2.00000
     42      -4.2353      2.00000
     43      -4.1329      2.00000
     44      -4.1329      2.00000
     45      -3.6704      2.00000
     46      -3.6704      2.00000
     47      -3.4177      2.00000
     48      -3.4177      2.00000
     49      -3.2836      2.00000
     50      -3.2836      2.00000
     51      -2.6237      2.00000
     52      -2.6237      2.00000
     53      -2.3358      2.00000
     54      -2.3358      2.00000
     55      -2.0265      2.00000
     56      -2.0265      2.00000
     57      -1.8643      2.00000
     58      -1.8642      2.00000
     59      -1.5395      2.00000
     60      -1.5395      2.00000
     61      -0.6428      2.00000
     62      -0.6428      2.00000
     63      -0.5206      2.00000
     64      -0.5206      2.00000
     65       0.8109      2.00000
     66       0.8109      2.00000
     67       2.9623      0.00000
     68       2.9623      0.00000
     69       4.3065      0.00000
     70       4.3065      0.00000
     71       4.5052      0.00000
     72       4.5052      0.00000
     73       5.1288      0.00000
     74       5.1288      0.00000
     75       6.1288      0.00000
     76       6.1288      0.00000
     77       6.7473      0.00000
     78       6.7473      0.00000
     79       6.9908      0.00000
     80       6.9909      0.00000
     81       7.5979      0.00000
     82       7.5988      0.00000
     83       8.0574      0.00000
     84       8.0586      0.00000
     85       8.1665      0.00000
     86       8.1751      0.00000
     87       8.3968      0.00000
     88       8.4262      0.00000
     89       8.9879      0.00000
     90       9.1650      0.00000
     91       9.3613      0.00000
     92       9.8253      0.00000


--------------------------------------------------------------------------------------------------------


 soft charge-density along one line, spin component           1
         0         1         2         3         4         5         6         7         8         9
 total charge-density along one line

 pseudopotential strength for first ion, spin component:           1
 12.532  21.085  -0.001   0.000  -0.001  -0.002   0.000  -0.001
 21.085  35.475  -0.002   0.000  -0.001  -0.004   0.000  -0.002
 -0.001  -0.002  -3.026   0.000   0.000  -5.418   0.000   0.001
  0.000   0.000   0.000  -3.026  -0.000   0.000  -5.418  -0.001
 -0.001  -0.001   0.000  -0.000  -3.027   0.001  -0.001  -5.419
 -0.002  -0.004  -5.418   0.000   0.001  -9.678   0.000   0.001
  0.000   0.000   0.000  -5.418  -0.001   0.000  -9.678  -0.001
 -0.001  -0.002   0.001  -0.001  -5.419   0.001  -0.001  -9.680
 total augmentation occupancy for first ion, spin component:           1
  8.230  -2.900   0.007  -0.710   0.374   0.007   0.322  -0.165
 -2.900   1.048   0.013   0.340  -0.171  -0.010  -0.151   0.073
  0.007   0.013   6.914   0.415   1.671  -2.344  -0.161  -0.670
 -0.710   0.340   0.415   6.509  -1.407  -0.161  -2.158   0.552
  0.374  -0.171   1.671  -1.407   4.945  -0.670   0.552  -1.555
  0.007  -0.010  -2.344  -0.161  -0.670   0.807   0.059   0.261
  0.322  -0.151  -0.161  -2.158   0.552   0.059   0.724  -0.210
 -0.165   0.073  -0.670   0.552  -1.555   0.261  -0.210   0.501


------------------------ aborting loop because EDIFF is reached ----------------------------------------


    FORLOC:  cpu time      0.0080: real time      0.0080
    FORNL :  cpu time      1.1567: real time      1.1572
    FORCOR:  cpu time      0.0308: real time      0.0308
    OFIELD:  cpu time      0.0023: real time      0.0028

 VOLUME and BASIS-vectors are now :
 -----------------------------------------------------------------------------
  energy-cutoff  :     1000.00
  volume of cell :      456.47
      direct lattice vectors                 reciprocal lattice vectors
     8.414400000  0.000000000  0.000000000     0.118843887 -0.000000000  0.084124444
     0.000000000  5.990300000  0.000000000     0.000000000  0.166936547 -0.000000000
    -6.410400000  0.000000000  9.056070000     0.000000000  0.000000000  0.110423175

  length of vectors
     8.414400000  5.990300000 11.095297743     0.145604916  0.166936547  0.110423175


 FORCES acting on ions:
    Electron-Ion                     Ewald-Force                    Non-Local-Force
 -----------------------------------------------------------------------------------------------
   0.369E+02 -.295E+02 -.136E+03   -.363E+02 0.304E+02 0.135E+03   -.656E+00 -.864E+00 0.387E+00
   -.291E+02 -.963E+02 -.959E+02   0.287E+02 0.964E+02 0.970E+02   0.566E+00 0.301E-01 -.107E+01
   -.689E+01 -.369E+02 -.570E+02   0.737E+01 0.377E+02 0.569E+02   -.511E+00 -.810E+00 0.150E+00
   -.277E+02 -.101E+03 -.479E+02   0.280E+02 0.101E+03 0.481E+02   -.180E+00 -.564E+00 -.163E+00
   0.138E+02 0.373E+02 -.204E+02   -.138E+02 -.381E+02 0.200E+02   0.425E-01 0.803E+00 0.547E+00
   0.280E+02 0.942E+02 -.267E+02   -.289E+02 -.951E+02 0.274E+02   0.906E+00 0.822E+00 -.766E+00
   0.646E+02 0.542E+02 -.117E+03   -.646E+02 -.551E+02 0.116E+03   -.711E-01 0.807E+00 0.107E+01
   -.138E+02 -.373E+02 0.204E+02   0.138E+02 0.381E+02 -.200E+02   -.425E-01 -.803E+00 -.547E+00
   0.277E+02 0.101E+03 0.479E+02   -.280E+02 -.101E+03 -.481E+02   0.180E+00 0.564E+00 0.163E+00
   0.689E+01 0.369E+02 0.570E+02   -.737E+01 -.377E+02 -.569E+02   0.511E+00 0.810E+00 -.150E+00
   -.280E+02 -.942E+02 0.267E+02   0.289E+02 0.951E+02 -.274E+02   -.906E+00 -.822E+00 0.766E+00
   0.291E+02 0.963E+02 0.959E+02   -.287E+02 -.964E+02 -.970E+02   -.566E+00 -.301E-01 0.107E+01
   -.646E+02 -.542E+02 0.117E+03   0.646E+02 0.551E+02 -.116E+03   0.711E-01 -.807E+00 -.107E+01
   -.369E+02 0.295E+02 0.136E+03   0.363E+02 -.304E+02 -.135E+03   0.656E+00 0.864E+00 -.387E+00
   -.369E+02 -.295E+02 0.136E+03   0.363E+02 0.304E+02 -.135E+03   0.656E+00 -.864E+00 -.387E+00
   0.369E+02 0.295E+02 -.136E+03   -.363E+02 -.304E+02 0.135E+03   -.656E+00 0.864E+00 0.387E+00
   0.291E+02 -.963E+02 0.959E+02   -.287E+02 0.964E+02 -.970E+02   -.566E+00 0.301E-01 0.107E+01
   -.291E+02 0.963E+02 -.959E+02   0.287E+02 -.964E+02 0.970E+02   0.566E+00 -.301E-01 -.107E+01
   0.689E+01 -.369E+02 0.570E+02   -.737E+01 0.377E+02 -.569E+02   0.511E+00 -.810E+00 -.150E+00
   -.689E+01 0.369E+02 -.570E+02   0.737E+01 -.377E+02 0.569E+02   -.511E+00 0.810E+00 0.150E+00
   0.277E+02 -.101E+03 0.479E+02   -.280E+02 0.101E+03 -.481E+02   0.180E+00 -.564E+00 0.163E+00
   -.277E+02 0.101E+03 -.479E+02   0.280E+02 -.101E+03 0.481E+02   -.180E+00 0.564E+00 -.163E+00
   -.138E+02 0.373E+02 0.204E+02   0.138E+02 -.381E+02 -.200E+02   -.425E-01 0.803E+00 -.547E+00
   0.138E+02 -.373E+02 -.204E+02   -.138E+02 0.381E+02 0.200E+02   0.425E-01 -.803E+00 0.547E+00
   -.280E+02 0.942E+02 0.267E+02   0.289E+02 -.951E+02 -.274E+02   -.906E+00 0.822E+00 0.766E+00
   0.280E+02 -.942E+02 -.267E+02   -.289E+02 0.951E+02 0.274E+02   0.906E+00 -.822E+00 -.766E+00
   -.646E+02 0.542E+02 0.117E+03   0.646E+02 -.551E+02 -.116E+03   0.711E-01 0.807E+00 -.107E+01
   0.646E+02 -.542E+02 -.117E+03   -.646E+02 0.551E+02 0.116E+03   -.711E-01 -.807E+00 0.107E+01
   0.153E+02 -.170E+02 -.461E+02   -.169E+02 0.190E+02 0.513E+02   0.162E+01 -.194E+01 -.518E+01
   -.147E+02 -.457E+02 -.298E+02   0.165E+02 0.508E+02 0.316E+02   -.175E+01 -.518E+01 -.184E+01
   -.113E+02 -.451E+02 -.221E+02   0.130E+02 0.502E+02 0.239E+02   -.176E+01 -.519E+01 -.184E+01
   0.831E+01 0.434E+02 -.224E+00   -.101E+02 -.486E+02 -.159E+01   0.176E+01 0.526E+01 0.185E+01
   0.303E+02 0.301E+02 -.400E+02   -.337E+02 -.334E+02 0.432E+02   0.343E+01 0.326E+01 -.327E+01
   0.113E+02 0.451E+02 0.221E+02   -.130E+02 -.502E+02 -.239E+02   0.176E+01 0.519E+01 0.184E+01
   -.831E+01 -.434E+02 0.224E+00   0.101E+02 0.486E+02 0.159E+01   -.176E+01 -.526E+01 -.185E+01
   0.147E+02 0.457E+02 0.298E+02   -.165E+02 -.508E+02 -.316E+02   0.175E+01 0.518E+01 0.184E+01
   -.303E+02 -.301E+02 0.400E+02   0.337E+02 0.334E+02 -.432E+02   -.343E+01 -.326E+01 0.327E+01
   -.153E+02 0.170E+02 0.461E+02   0.169E+02 -.190E+02 -.513E+02   -.162E+01 0.194E+01 0.518E+01
   -.153E+02 -.170E+02 0.461E+02   0.169E+02 0.190E+02 -.513E+02   -.162E+01 -.194E+01 0.518E+01
   0.153E+02 0.170E+02 -.461E+02   -.169E+02 -.190E+02 0.513E+02   0.162E+01 0.194E+01 -.518E+01
   0.147E+02 -.457E+02 0.298E+02   -.165E+02 0.508E+02 -.316E+02   0.175E+01 -.518E+01 0.184E+01
   -.147E+02 0.457E+02 -.298E+02   0.165E+02 -.508E+02 0.316E+02   -.175E+01 0.518E+01 -.184E+01
   0.113E+02 -.451E+02 0.221E+02   -.130E+02 0.502E+02 -.239E+02   0.176E+01 -.519E+01 0.184E+01
   -.113E+02 0.451E+02 -.221E+02   0.130E+02 -.502E+02 0.239E+02   -.176E+01 0.519E+01 -.184E+01
   -.831E+01 0.434E+02 0.224E+00   0.101E+02 -.486E+02 0.159E+01   -.176E+01 0.526E+01 -.185E+01
   0.831E+01 -.434E+02 -.224E+00   -.101E+02 0.486E+02 -.159E+01   0.176E+01 -.526E+01 0.185E+01
   -.303E+02 0.301E+02 0.400E+02   0.337E+02 -.334E+02 -.432E+02   -.343E+01 0.326E+01 0.327E+01
   0.303E+02 -.301E+02 -.400E+02   -.337E+02 0.334E+02 0.432E+02   0.343E+01 -.326E+01 -.327E+01
 -----------------------------------------------------------------------------------------------
   -.806E-04 -.110E-03 0.338E-04   0.107E-12 0.107E-12 0.853E-13   -.133E-14 0.888E-15 -.311E-14


 POSITION                                       TOTAL-FORCE (eV/Angst)
 -----------------------------------------------------------------------------------
     -1.64279      0.15474      3.34292        -0.040365      0.020534      0.105936
     -0.82775      0.93576      2.55998         0.044357      0.108531      0.035811
     -0.40534      0.49190      1.27088        -0.002271     -0.009110      0.018964
      0.41565      1.27146      0.44482         0.037261      0.111869      0.048158
      7.58121      5.17874      0.81242        -0.001755     -0.002394      0.019710
      6.73746      4.39918      1.65680        -0.008927     -0.104513     -0.029474
      6.33623      4.86912      2.88319        -0.064746     -0.045032      0.109055
     -5.57721      0.81156      8.24365         0.001755      0.002394     -0.019710
      1.58835      4.71884      8.61125        -0.037261     -0.111869     -0.048158
      2.40934      5.49840      7.78519         0.002271      0.009110     -0.018964
     -4.73346      1.59112      7.39927         0.008927      0.104513      0.029474
      2.83175      5.05454      6.49609        -0.044357     -0.108531     -0.035811
     -4.33223      1.12118      6.17288         0.064746      0.045032     -0.109055
      3.64679      5.83556      5.71315         0.040365     -0.020534     -0.105936
     -0.56041      3.14989      5.71315         0.040356      0.020547     -0.105940
      2.56441      2.84041      3.34292        -0.040356     -0.020547      0.105940
     -1.37545      3.93091      6.49609        -0.044372      0.108543     -0.035807
      3.37945      2.05939      2.55998         0.044372     -0.108543      0.035807
     -1.79787      3.48705      7.78519         0.002274     -0.009101     -0.018981
      3.80187      2.50325      1.27088        -0.002274      0.009101      0.018981
     -2.61885      4.26661      8.61126        -0.037261      0.111882     -0.048174
      4.62285      1.72369      0.44481         0.037261     -0.111882      0.048174
     -1.37001      2.18359      8.24365         0.001748     -0.002393     -0.019707
      3.37401      3.80671      0.81242        -0.001748      0.002393      0.019707
     -0.52626      1.40403      7.39927         0.008931     -0.104518      0.029470
      2.53026      4.58627      1.65680        -0.008931      0.104518     -0.029470
     -0.12503      1.87397      6.17288         0.064756     -0.045046     -0.109063
      2.12903      4.11633      2.88319        -0.064756      0.045046      0.109063
     -1.95525      0.51409      4.32354         0.019043     -0.019396     -0.057145
     -0.49437      1.91459      2.90573        -0.023021     -0.060321     -0.014689
      0.74568      2.25281      0.79156        -0.030077     -0.081416     -0.026171
      6.41438      3.41944      1.30782         0.017559      0.064386      0.028937
      5.68509      4.25803      3.51036         0.045404      0.037224     -0.034590
      1.25832      3.73749      8.26451         0.030077      0.081416      0.026171
     -4.41038      2.57086      7.74825        -0.017559     -0.064386     -0.028937
      2.49837      4.07571      6.15034         0.023021      0.060321      0.014689
     -3.68109      1.73227      5.54571        -0.045404     -0.037224      0.034590
      3.95925      5.47621      4.73253        -0.019043      0.019396      0.057145
     -0.24795      3.50924      4.73252        -0.019043     -0.019394      0.057142
      2.25195      2.48106      4.32355         0.019043      0.019394     -0.057142
     -1.70883      4.90974      6.15034         0.023021     -0.060322      0.014687
      3.71283      1.08056      2.90573        -0.023021      0.060322     -0.014687
     -2.94888      5.24796      8.26451         0.030077     -0.081415      0.026171
      4.95288      0.74234      0.79156        -0.030077      0.081415     -0.026171
     -0.20318      0.42429      7.74824        -0.017558      0.064384     -0.028938
      2.20718      5.56601      1.30783         0.017558     -0.064384      0.028938
      0.52611      1.26288      5.54571        -0.045402      0.037222      0.034587
      1.47789      4.72742      3.51036         0.045402     -0.037222     -0.034587
 -----------------------------------------------------------------------------------
    total drift:                               -0.000081     -0.000110      0.000034


--------------------------------------------------------------------------------------------------------



  FREE ENERGIE OF THE ION-ELECTRON SYSTEM (eV)
  ---------------------------------------------------
  free  energy   TOTEN  =      -318.07404533 eV

  energy  without entropy=     -318.07404533  energy(sigma->0) =     -318.07404533



--------------------------------------------------------------------------------------------------------


    POTLOK:  cpu time      0.0328: real time      0.0328


--------------------------------------------------------------------------------------------------------


 stress matrix after NEB project (eV)
      0.00000      0.00000      0.00000
      0.00000      0.00000      0.00000
      0.00000      0.00000      0.00000
  FORCES: max atom, RMS     0.134600    0.092151
  FORCE total and by dimension    0.638443    0.111882
  Stress total and by dimension    0.000000    0.000000
     LOOP+:  cpu time     79.8486: real time     80.1895
    4ORBIT:  cpu time      0.0000: real time      0.0000

 total amount of memory used by VASP MPI-rank0    51294. kBytes
=======================================================================

   base      :      30000. kBytes
   nonl-proj :       2146. kBytes
   fftplans  :       1528. kBytes
   grid      :       2347. kBytes
   one-center:          3. kBytes
   wavefun   :      15270. kBytes

  
  
 General timing and accounting informations for this job:
 ========================================================
  
                  Total CPU time used (sec):      113.252
                            User time (sec):      109.523
                          System time (sec):        3.729
                         Elapsed time (sec):      118.695
  
                   Maximum memory used (kb):      228156.
                   Average memory used (kb):          N/A
  
                          Minor page faults:       171622
                          Major page faults:          261
                 Voluntary context switches:         5765
