 vasp.6.4.1 05Apr23 (build Jun  6 2023 14:36:51) complex                         
 executed on        HPECrayEX_GCC date 2024.08.20  14:54:45
 running  256 mpi-ranks, with    1 threads/rank, on    2 nodes
 distrk:  each k-point on  128 cores,    2 groups
 distr:  one band on NCORE=  32 cores,    4 groups


--------------------------------------------------------------------------------------------------------


 INCAR:
   ALGO = Conjugate
   KPAR = 2
   NCORE = 32
   ISMEAR = 0
   SIGMA = 0.01
   PREC = Accurate
   EDIFF = 1E-7
   ENCUT = 1000
   ISIF = 0
   METAGGA = R2SCAN
   LASPH = .TRUE.
   SYMPREC = 1E-7
   LWAVE = .FALSE.
   LCHARG = .FALSE.
   LWAVE = .FALSE.
   LCHARGE = .FALSE.

 POTCAR:    PAW_PBE C_h 06Feb2004                 
 POTCAR:    PAW_PBE H_h 06Feb2004                 
 POTCAR:    PAW_PBE C_h 06Feb2004                 
   VRHFIN =C: s2p2                                                                                  
   LEXCH  = PE                                                                                      
   EATOM  =   147.1560 eV,   10.8157 Ry                                                             
                                                                                                    
   TITEL  = PAW_PBE C_h 06Feb2004                                                                   
   LULTRA =        F    use ultrasoft PP ?                                                          
   IUNSCR =        1    unscreen: 0-lin 1-nonlin 2-no                                               
   RPACOR =    0.800    partial core radius                                                         
   POMASS =   12.011; ZVAL   =    4.000    mass and valenz                                          
   RCORE  =    1.100    outmost cutoff radius                                                       
   RWIGS  =    1.630; RWIGS  =    0.863    wigner-seitz radius (au A)                               
   ENMAX  =  700.000; ENMIN  =  500.000 eV                                                          
   ICORE  =        2    local potential                                                             
   LCOR   =        T    correct aug charges                                                         
   LPAW   =        T    paw PP                                                                      
   EAUG   =  946.768                                                                                
   DEXC   =    0.000                                                                                
   RMAX   =    1.128    core radius for proj-oper                                                   
   RAUG   =    1.300    factor for augmentation sphere                                              
   RDEP   =    1.162    radius for radial grids                                                     
   RDEPT  =    1.088    core radius for aug-charge                                                  
                                                                                                    
   Atomic configuration                                                                             
    4 entries                                                                                       
     n  l   j            E        occ.                                                              
     1  0  0.50      -273.3789   2.0000                                                             
     2  0  0.50       -13.7508   2.0000                                                             
     2  1  0.50        -5.2854   2.0000                                                             
     3  2  1.50        -5.4423   0.0000                                                             
   Description                                                                                      
     l       E           TYP  RCUT    TYP  RCUT                                                     
     0    -13.7508458     23  1.100                                                                 
     0     -8.2022199     23  1.100                                                                 
     1     -5.2854383     23  1.100                                                                 
     1      1.1560700     23  1.100                                                                 
     2     -5.4423304      7  1.100                                                                 
  local pseudopotential read in
  partial core-charges read in
  partial kinetic energy density read in
  atomic valenz-charges read in
  non local Contribution for L=           0  read in
    real space projection operators read in
  non local Contribution for L=           0  read in
    real space projection operators read in
  non local Contribution for L=           1  read in
    real space projection operators read in
  non local Contribution for L=           1  read in
    real space projection operators read in
    PAW grid and wavefunctions read in

   number of l-projection  operators is LMAX  =           4
   number of lm-projection operators is LMMAX =           8

 POTCAR:    PAW_PBE H_h 06Feb2004                 
   VRHFIN =H: ultrasoft test                                                                        
   LEXCH  = PE                                                                                      
   EATOM  =    12.4884 eV,    0.9179 Ry                                                             
                                                                                                    
   TITEL  = PAW_PBE H_h 06Feb2004                                                                   
   LULTRA =        F    use ultrasoft PP ?                                                          
   IUNSCR =        0    unscreen: 0-lin 1-nonlin 2-no                                               
   RPACOR =    0.000    partial core radius                                                         
   POMASS =    1.000; ZVAL   =    1.000    mass and valenz                                          
   RCORE  =    0.800    outmost cutoff radius                                                       
   RWIGS  =    0.700; RWIGS  =    0.370    wigner-seitz radius (au A)                               
   ENMAX  =  700.000; ENMIN  =  350.000 eV                                                          
   RCLOC  =    0.701    cutoff for local pot                                                        
   LCOR   =        T    correct aug charges                                                         
   LPAW   =        T    paw PP                                                                      
   EAUG   = 1000.000                                                                                
   RMAX   =    0.819    core radius for proj-oper                                                   
   RAUG   =    1.000    factor for augmentation sphere                                              
   RDEP   =    0.817    radius for radial grids                                                     
   RDEPT  =    0.817    core radius for aug-charge                                                  
                                                                                                    
   Atomic configuration                                                                             
    2 entries                                                                                       
     n  l   j            E        occ.                                                              
     1  0  0.50        -6.4927   1.0000                                                             
     2  1  0.50        -3.4015   0.0000                                                             
   Description                                                                                      
     l       E           TYP  RCUT    TYP  RCUT                                                     
     0     -6.4927493     23  0.800                                                                 
     0      6.8029130     23  0.800                                                                 
     1     -6.8029130     23  0.800                                                                 
  local pseudopotential read in
  atomic valenz-charges read in
  non local Contribution for L=           0  read in
    real space projection operators read in
  non local Contribution for L=           0  read in
    real space projection operators read in
  non local Contribution for L=           1  read in
    real space projection operators read in
    PAW grid and wavefunctions read in

   number of l-projection  operators is LMAX  =           3
   number of lm-projection operators is LMMAX =           5

 -----------------------------------------------------------------------------
|                                                                             |
|               ----> ADVICE to this user running VASP <----                  |
|                                                                             |
|     You have a (more or less) 'large supercell' and for larger cells it     |
|     might be more efficient to use real-space projection operators.         |
|     Therefore, try LREAL= Auto in the INCAR file.                           |
|     Mind: For very accurate calculation, you might also keep the            |
|     reciprocal projection scheme (i.e. LREAL=.FALSE.).                      |
|                                                                             |
 -----------------------------------------------------------------------------

  PAW_PBE C_h 06Feb2004                 :
 energy of atom  1       EATOM= -147.1560
 kinetic energy error for atom=    0.0031 (will be added to EATOM!!)
  PAW_PBE H_h 06Feb2004                 :
 energy of atom  2       EATOM=  -12.4884
 kinetic energy error for atom=    0.0006 (will be added to EATOM!!)


 POSCAR:  C  H
  positions in cartesian coordinates
  No initial velocities read in

 METAGGA = R2SCAN                                      LMAXTAU =  6    LMIXTAU =  F

 exchange correlation table for  LEXCH =        8
   RHO(1)=    0.500       N(1)  =     2000
   RHO(2)=  100.500       N(2)  =     4000

 VTST: version 4.1, (05/19/21)

 CHAIN: initializing optimizer
 
 OPT: Using VASP Dynamics algorithm
 CHAIN: Read ICHAIN            0

 POSCAR:  C  H
  positions in cartesian coordinates
  No initial velocities read in



--------------------------------------------------------------------------------------------------------


 ion  position               nearest neighbor table
   1  0.086  0.026  0.369-  29 1.09   2 1.37   7 1.42
   2  0.117  0.156  0.283-  30 1.09   1 1.37   3 1.43
   3  0.059  0.082  0.140-   4 1.40   2 1.43   5 1.45
   4  0.087  0.212  0.049-  31 1.09   3 1.40   8 1.40
   5  0.969  0.865  0.090-   9 1.40   6 1.43   3 1.45
   6  0.940  0.734  0.183-  32 1.09   7 1.37   5 1.43
   7  0.996  0.813  0.318-  33 1.09   6 1.37   1 1.42
   8  0.031  0.135  0.910-   4 1.40  11 1.43  10 1.45
   9  0.913  0.788  0.951-  34 1.09  10 1.40   5 1.40
  10  0.941  0.918  0.860-   9 1.40  12 1.43   8 1.45
  11  0.060  0.266  0.817-  35 1.09  13 1.37   8 1.43
  12  0.883  0.844  0.717-  36 1.09  14 1.37  10 1.43
  13  0.004  0.187  0.682-  37 1.09  11 1.37  14 1.42
  14  0.914  0.974  0.631-  38 1.09  12 1.37  13 1.42
  15  0.414  0.526  0.631-  39 1.09  17 1.37  27 1.42
  16  0.586  0.474  0.369-  40 1.09  18 1.37  28 1.42
  17  0.383  0.656  0.717-  41 1.09  15 1.37  19 1.43
  18  0.617  0.344  0.283-  42 1.09  16 1.37  20 1.43
  19  0.441  0.582  0.860-  21 1.40  17 1.43  23 1.45
  20  0.559  0.418  0.140-  22 1.40  18 1.43  24 1.45
  21  0.413  0.712  0.951-  43 1.09  19 1.40  24 1.40
  22  0.587  0.288  0.049-  44 1.09  20 1.40  23 1.40
  23  0.531  0.365  0.910-  22 1.40  25 1.43  19 1.45
  24  0.469  0.635  0.090-  21 1.40  26 1.43  20 1.45
  25  0.560  0.234  0.817-  45 1.09  27 1.37  23 1.43
  26  0.440  0.766  0.183-  46 1.09  28 1.37  24 1.43
  27  0.504  0.313  0.682-  47 1.09  25 1.37  15 1.42
  28  0.496  0.687  0.318-  48 1.09  26 1.37  16 1.42
  29  0.131  0.086  0.477-   1 1.09
  30  0.186  0.320  0.321-   2 1.09
  31  0.155  0.376  0.087-   4 1.09
  32  0.872  0.571  0.144-   6 1.09
  33  0.971  0.711  0.388-   7 1.09
  34  0.845  0.624  0.913-   9 1.09
  35  0.128  0.429  0.856-  11 1.09
  36  0.814  0.680  0.679-  12 1.09
  37  0.029  0.289  0.612-  13 1.09
  38  0.869  0.914  0.523-  14 1.09
  39  0.369  0.586  0.523-  15 1.09
  40  0.631  0.414  0.477-  16 1.09
  41  0.314  0.820  0.679-  17 1.09
  42  0.686  0.180  0.321-  18 1.09
  43  0.345  0.876  0.913-  21 1.09
  44  0.655  0.124  0.087-  22 1.09
  45  0.628  0.071  0.856-  25 1.09
  46  0.372  0.929  0.144-  26 1.09
  47  0.529  0.211  0.612-  27 1.09
  48  0.471  0.789  0.388-  28 1.09

  LATTYP: Found a simple monoclinic cell.
 ALAT       =     8.4144000000
 B/A-ratio  =     0.7119105343
 C/A-ratio  =     1.1022949544
 COS(beta)  =    -0.2160611803
  
  Lattice vectors:
  
 A1 = (   8.4144000000,   0.0000000000,   0.0000000000)
 A2 = (   0.0000000000,  -5.9903000000,   0.0000000000)
 A3 = (  -2.0040000000,   0.0000000000,  -9.0560700000)


Analysis of symmetry for initial positions (statically):
=====================================================================
 Subroutine PRICEL returns:
 Original cell was already a primitive cell.
 

 Routine SETGRP: Setting up the symmetry group for a 
 simple monoclinic supercell.


 Subroutine GETGRP returns: Found  2 space group operations
 (whereof  2 operations were pure point group operations)
 out of a pool of  4 trial point group operations.


The static configuration has the point symmetry S_2 .


Analysis of symmetry for dynamics (positions and initial velocities):
=====================================================================
 Subroutine PRICEL returns:
 Original cell was already a primitive cell.
 

 Routine SETGRP: Setting up the symmetry group for a 
 simple monoclinic supercell.


 Subroutine GETGRP returns: Found  2 space group operations
 (whereof  2 operations were pure point group operations)
 out of a pool of  4 trial point group operations.


The dynamic configuration has the point symmetry S_2 .


 Subroutine INISYM returns: Found  2 space group operations
 (whereof  2 operations are pure point group operations),
 and found     1 'primitive' translations


----------------------------------------------------------------------------------------

                                     Primitive cell                                     

  volume of cell :     456.4692

  direct lattice vectors                    reciprocal lattice vectors
     8.414400000  0.000000000  0.000000000     0.118843887 -0.000000000  0.084124444
     0.000000000  5.990300000  0.000000000     0.000000000  0.166936547 -0.000000000
    -6.410400000  0.000000000  9.056070000     0.000000000  0.000000000  0.110423175

  length of vectors
     8.414400000  5.990300000 11.095297743     0.145604916  0.166936547  0.110423175

  position of ions in fractional coordinates (direct lattice)
     0.085985825  0.025831008  0.369135377
     0.116983673  0.156213237  0.282680610
     0.058740714  0.082116548  0.140334910
     0.086817321  0.212252419  0.049117938
     0.969324431  0.864520228  0.089710104
     0.940083220  0.734384005  0.182949592
     0.995568798  0.812833494  0.318370592
     0.030675569  0.135479773  0.910289893
     0.913182679  0.787747581  0.950882060
     0.941259285  0.917883452  0.859665087
     0.059916780  0.265615996  0.817050406
     0.883016326  0.843786763  0.717319388
     0.004431202  0.187166506  0.681629406
     0.914014175  0.974168992  0.630864622
     0.414014116  0.525831123  0.630864594
     0.585985884  0.474168881  0.369135405
     0.383016340  0.656213351  0.717319404
     0.616983660  0.343786655  0.282680596
     0.441259308  0.582116642  0.859665128
     0.558740693  0.417883364  0.140334872
     0.413182742  0.712252453  0.950882127
     0.586817259  0.287747553  0.049117873
     0.530675547  0.364520288  0.910289874
     0.469324455  0.635479718  0.089710126
     0.559916680  0.234384050  0.817050346
     0.440083320  0.765615955  0.182949653
     0.504431080  0.312833593  0.681629338
     0.495568920  0.687166411  0.318370662
     0.131346097  0.085819810  0.477419552
     0.185689727  0.319615595  0.320859639
     0.155208983  0.376076425  0.087406183
     0.872329652  0.570829256  0.144414156
     0.970945402  0.710820674  0.387625168
     0.844791016  0.623923576  0.912593814
     0.127670348  0.429170745  0.855585842
     0.814310272  0.680384405  0.679140359
     0.029054599  0.289179325  0.612374830
     0.868653904  0.914180190  0.522580447
     0.368653816  0.585819962  0.522580425
     0.631346184  0.414180041  0.477419574
     0.314310287  0.819615716  0.679140415
     0.685689715  0.180384289  0.320859584
     0.344791067  0.876076468  0.912593904
     0.655208934  0.123923537  0.087406096
     0.627670264  0.070829297  0.855585791
     0.372329736  0.929170708  0.144414209
     0.529054471  0.210820752  0.612374761
     0.470945528  0.789179252  0.387625238

  ion indices of the primitive-cell ions
   primitive index   ion index
                 1           1
                 2           2
                 3           3
                 4           4
                 5           5
                 6           6
                 7           7
                 8           8
                 9           9
                10          10
                11          11
                12          12
                13          13
                14          14
                15          15
                16          16
                17          17
                18          18
                19          19
                20          20
                21          21
                22          22
                23          23
                24          24
                25          25
                26          26
                27          27
                28          28
                29          29
                30          30
                31          31
                32          32
                33          33
                34          34
                35          35
                36          36
                37          37
                38          38
                39          39
                40          40
                41          41
                42          42
                43          43
                44          44
                45          45
                46          46
                47          47
                48          48

----------------------------------------------------------------------------------------



 KPOINTS: auto                                    

Automatic generation of k-mesh.
 Grid dimensions read from file:
 generate k-points for:    4    4    3

 Generating k-lattice:

  Cartesian coordinates                     Fractional coordinates (reciprocal lattice)
     0.029710972 -0.000000000  0.021031111     0.250000000  0.000000000 -0.000000000
     0.000000000  0.041734137 -0.000000000     0.000000000  0.250000000  0.000000000
     0.000000000  0.000000000  0.036807725     0.000000000  0.000000000  0.333333333

  Length of vectors
     0.036401229  0.041734137  0.036807725

  Shift w.r.t. Gamma in fractional coordinates (k-lattice)
     0.000000000  0.000000000  0.000000000

 
 Subroutine IBZKPT returns following result:
 ===========================================
 
 Found     26 irreducible k-points:
 
 Following reciprocal coordinates:
            Coordinates               Weight
  0.000000  0.000000  0.000000      1.000000
  0.250000  0.000000  0.000000      2.000000
  0.500000  0.000000  0.000000      1.000000
  0.000000  0.250000  0.000000      2.000000
  0.250000  0.250000  0.000000      2.000000
 -0.250000  0.250000  0.000000      2.000000
  0.500000  0.250000  0.000000      2.000000
  0.000000  0.500000  0.000000      1.000000
  0.250000  0.500000  0.000000      2.000000
  0.500000  0.500000  0.000000      1.000000
  0.000000  0.000000  0.333333      2.000000
  0.250000  0.000000  0.333333      2.000000
  0.500000  0.000000  0.333333      2.000000
 -0.250000  0.000000  0.333333      2.000000
  0.000000  0.250000  0.333333      2.000000
  0.000000  0.250000 -0.333333      2.000000
  0.250000  0.250000  0.333333      2.000000
 -0.250000  0.250000 -0.333333      2.000000
  0.500000  0.250000  0.333333      2.000000
  0.500000  0.250000 -0.333333      2.000000
 -0.250000  0.250000  0.333333      2.000000
  0.250000  0.250000 -0.333333      2.000000
  0.000000  0.500000  0.333333      2.000000
  0.250000  0.500000  0.333333      2.000000
  0.500000  0.500000  0.333333      2.000000
 -0.250000  0.500000  0.333333      2.000000
 
 Following cartesian coordinates:
            Coordinates               Weight
  0.000000  0.000000  0.000000      1.000000
  0.029711  0.000000  0.021031      2.000000
  0.059422  0.000000  0.042062      1.000000
  0.000000  0.041734  0.000000      2.000000
  0.029711  0.041734  0.021031      2.000000
 -0.029711  0.041734 -0.021031      2.000000
  0.059422  0.041734  0.042062      2.000000
  0.000000  0.083468  0.000000      1.000000
  0.029711  0.083468  0.021031      2.000000
  0.059422  0.083468  0.042062      1.000000
  0.000000  0.000000  0.036808      2.000000
  0.029711  0.000000  0.057839      2.000000
  0.059422  0.000000  0.078870      2.000000
 -0.029711  0.000000  0.015777      2.000000
  0.000000  0.041734  0.036808      2.000000
  0.000000  0.041734 -0.036808      2.000000
  0.029711  0.041734  0.057839      2.000000
 -0.029711  0.041734 -0.057839      2.000000
  0.059422  0.041734  0.078870      2.000000
  0.059422  0.041734  0.005254      2.000000
 -0.029711  0.041734  0.015777      2.000000
  0.029711  0.041734 -0.015777      2.000000
  0.000000  0.083468  0.036808      2.000000
  0.029711  0.083468  0.057839      2.000000
  0.059422  0.083468  0.078870      2.000000
 -0.029711  0.083468  0.015777      2.000000
 


--------------------------------------------------------------------------------------------------------




 Dimension of arrays:
   k-points           NKPTS =     26   k-points in BZ     NKDIM =     26   number of bands    NBANDS=     92
   number of dos      NEDOS =    301   number of ions     NIONS =     48
   non local maximal  LDIM  =      4   non local SUM 2l+1 LMDIM =      8
   total plane-waves  NPLWV = 691200
   max r-space proj   IRMAX =      1   max aug-charges    IRDMAX=  10243
   dimension x,y,z NGX =    90 NGY =   64 NGZ =  120
   dimension x,y,z NGXF=   180 NGYF=  128 NGZF=  240
   support grid    NGXF=   180 NGYF=  128 NGZF=  240
   ions per type =              28  20
   NGX,Y,Z   is equivalent  to a cutoff of  17.78, 17.76, 17.98 a.u.
   NGXF,Y,Z  is equivalent  to a cutoff of  35.56, 35.52, 35.96 a.u.

 SYSTEM =  unknown system                          
 POSCAR =   C  H                                   

 Startparameter for this run:
   NWRITE =      2    write-flag & timer
   PREC   = accura    normal or accurate (medium, high low for compatibility)
   ISTART =      0    job   : 0-new  1-cont  2-samecut
   ICHARG =      2    charge: 1-file 2-atom 10-const
   ISPIN  =      1    spin polarized calculation?
   LNONCOLLINEAR =      F non collinear calculations
   LSORBIT =      F    spin-orbit coupling
   INIWAV =      1    electr: 0-lowe 1-rand  2-diag
   LASPH  =      T    aspherical Exc in radial PAW
 Electronic Relaxation 1
   ENCUT  = 1000.0 eV  73.50 Ry    8.57 a.u.  21.70 15.45 28.61*2*pi/ulx,y,z
   ENINI  = 1000.0     initial cutoff
   ENAUG  = 1000.0 eV  augmentation charge cutoff
   NELM   =     60;   NELMIN=  2; NELMDL= -5     # of ELM steps 
   EDIFF  = 0.1E-06   stopping-criterion for ELM
   LREAL  =      F    real-space projection
   NLSPLINE    = F    spline interpolate recip. space projectors
   LCOMPAT=      F    compatible to vasp.4.4
   GGA_COMPAT  = T    GGA compatible to vasp.4.4-vasp.4.6
   LMAXPAW     = -100 max onsite density
   LMAXMIX     =    2 max onsite mixed and CHGCAR
   VOSKOWN=      0    Vosko Wilk Nusair interpolation
   ROPT   =    0.00000   0.00000
 Ionic relaxation
   EDIFFG = 0.1E-05   stopping-criterion for IOM
   NSW    =      0    number of steps for IOM
   NBLOCK =      1;   KBLOCK =      1    inner block; outer block 
   IBRION =     -1    ionic relax: 0-MD 1-quasi-New 2-CG
   NFREE  =      0    steps in history (QN), initial steepest desc. (CG)
   ISIF   =      0    stress and relaxation
   IWAVPR =     10    prediction:  0-non 1-charg 2-wave 3-comb
   ISYM   =      2    0-nonsym 1-usesym 2-fastsym
   LCORR  =      T    Harris-Foulkes like correction to forces

   POTIM  = 0.5000    time-step for ionic-motion
   TEIN   =    0.0    initial temperature
   TEBEG  =    0.0;   TEEND  =   0.0 temperature during run
   SMASS  =  -3.00    Nose mass-parameter (am)
   estimated Nose-frequenzy (Omega)   =  0.10E-29 period in steps = 0.13E+47 mass=  -0.162E-26a.u.
   SCALEE = 1.0000    scale energy and forces
   NPACO  =    256;   APACO  = 10.0  distance and # of slots for P.C.
   PSTRESS=    0.0 pullay stress

  Mass of Ions in am
   POMASS =  12.01  1.00
  Ionic Valenz
   ZVAL   =   4.00  1.00
  Atomic Wigner-Seitz radii
   RWIGS  =  -1.00 -1.00
  virtual crystal weights 
   VCA    =   1.00  1.00
   NELECT =     132.0000    total number of electrons
   NUPDOWN=      -1.0000    fix difference up-down

 DOS related values:
   EMIN   =  10.00;   EMAX   =-10.00  energy-range for DOS
   EFERMI =   0.00;   METHOD = LEGACY      
   ISMEAR =     0;   SIGMA  =   0.01  broadening in eV -4-tet -1-fermi 0-gaus

 Electronic relaxation 2 (details)
   IALGO  =     58    algorithm
   LDIAG  =      T    sub-space diagonalisation (order eigenvalues)
   LSUBROT=      F    optimize rotation matrix (better conditioning)
   TURBO    =      0    0=normal 1=particle mesh
   IRESTART =      0    0=no restart 2=restart with 2 vectors
   NREBOOT  =      0    no. of reboots
   NMIN     =      0    reboot dimension
   EREF     =   0.00    reference energy to select bands
   IMIX   =      4    mixing-type and parameters
     AMIX     =   0.40;   BMIX     =  1.00
     AMIX_MAG =   1.60;   BMIX_MAG =  1.00
     AMIN     =   0.10
     WC   =   100.;   INIMIX=   1;  MIXPRE=   1;  MAXMIX= -45

 Intra band minimization:
   WEIMIN = 0.0000     energy-eigenvalue tresh-hold
   EBREAK =  0.27E-09  absolut break condition
   DEPER  =   0.30     relativ break condition  

   TIME   =   0.40     timestep for ELM

  volume/ion in A,a.u.               =       9.51        64.18
  Fermi-wavevector in a.u.,A,eV,Ry     =   1.082586  2.045790 15.945918  1.171992
  Thomas-Fermi vector in A             =   2.218631

 Write flags
   LWAVE        =      F    write WAVECAR
   LDOWNSAMPLE  =      F    k-point downsampling of WAVECAR
   LCHARG       =      F    write CHGCAR
   LVTOT        =      F    write LOCPOT, total local potential
   LVHAR        =      F    write LOCPOT, Hartree potential only
   LELF         =      F    write electronic localiz. function (ELF)
   LORBIT       =      0    0 simple, 1 ext, 2 COOP (PROOUT), +10 PAW based schemes


 Dipole corrections
   LMONO  =      F    monopole corrections only (constant potential shift)
   LDIPOL =      F    correct potential (dipole corrections)
   IDIPOL =      0    1-x, 2-y, 3-z, 4-all directions 
   EPSILON=  1.0000000 bulk dielectric constant

 Exchange correlation treatment:
   GGA     =    --    GGA type
   LEXCH   =     8    internal setting for exchange type
   LIBXC   =     F    Libxc                    
   VOSKOWN =     0    Vosko Wilk Nusair interpolation
   LHFCALC =     F    Hartree Fock is set to
   LHFONE  =     F    Hartree Fock one center treatment
   AEXX    =    0.0000 exact exchange contribution

 Linear response parameters
   LEPSILON=     F    determine dielectric tensor
   LRPA    =     F    only Hartree local field effects (RPA)
   LNABLA  =     F    use nabla operator in PAW spheres
   LVEL    =     F    velocity operator in full k-point grid
   CSHIFT  =0.1000    complex shift for real part using Kramers Kronig
   OMEGAMAX=  -1.0    maximum frequency
   DEG_THRESHOLD= 0.2000000E-02 threshold for treating states as degnerate
   RTIME   =   -0.100 relaxation time in fs
  (WPLASMAI=    0.000 imaginary part of plasma frequency in eV, 0.658/RTIME)
   DFIELD  = 0.0000000 0.0000000 0.0000000 field for delta impulse in time

  Optional k-point grid parameters
   LKPOINTS_OPT  =     F    use optional k-point grid
   KPOINTS_OPT_MODE=     1    mode for optional k-point grid

 Orbital magnetization related:
   ORBITALMAG=     F  switch on orbital magnetization
   LCHIMAG   =     F  perturbation theory with respect to B field
   DQ        =  0.001000  dq finite difference perturbation B field
   LLRAUG    =     F  two centre corrections for induced B field
   LBONE     =     F  B-component reconstruction in AE one-centre
   LVGVCALC  =     T  calculate vGv susceptibility
   LVGVAPPL  =     F  apply vGv susceptibility instead of pGv for G=0

 Random number generation:
   RANDOM_GENERATOR = DEFAULT
   PCG_SEED         = not used


--------------------------------------------------------------------------------------------------------


 Static calculation
 charge density and potential will be updated during run
 non-spin polarized calculation
 Conjugate gradient for all bands (Freysoldt, et al. PRB 79, 241103 (2009))
 preconditioned conjugated gradient                                        
 perform sub-space diagonalisation
    before iterative eigenvector-optimisation
 modified Broyden-mixing scheme, WC =      100.0
 initial mixing is a Kerker type mixing with AMIX =  0.4000 and BMIX =      1.0000
 Hartree-type preconditioning will be used
 using additional bands           26
 reciprocal scheme for non local part
 use partial core corrections
 no Harris-corrections to forces 
 use gradient corrections 
 use of overlap-Matrix (Vanderbilt PP)
 Gauss-broadening in eV      SIGMA  =   0.01


--------------------------------------------------------------------------------------------------------


  energy-cutoff  :     1000.00
  volume of cell :      456.47
      direct lattice vectors                 reciprocal lattice vectors
     8.414400000  0.000000000  0.000000000     0.118843887 -0.000000000  0.084124444
     0.000000000  5.990300000  0.000000000     0.000000000  0.166936547 -0.000000000
    -6.410400000  0.000000000  9.056070000     0.000000000  0.000000000  0.110423175

  length of vectors
     8.414400000  5.990300000 11.095297743     0.145604916  0.166936547  0.110423175



 k-points in units of 2pi/SCALE and weight: auto                                    
   0.00000000  0.00000000  0.00000000       0.021
   0.02971097  0.00000000  0.02103111       0.042
   0.05942194  0.00000000  0.04206222       0.021
   0.00000000  0.04173414  0.00000000       0.042
   0.02971097  0.04173414  0.02103111       0.042
  -0.02971097  0.04173414 -0.02103111       0.042
   0.05942194  0.04173414  0.04206222       0.042
   0.00000000  0.08346827  0.00000000       0.021
   0.02971097  0.08346827  0.02103111       0.042
   0.05942194  0.08346827  0.04206222       0.021
   0.00000000  0.00000000  0.03680772       0.042
   0.02971097  0.00000000  0.05783884       0.042
   0.05942194  0.00000000  0.07886995       0.042
  -0.02971097  0.00000000  0.01577661       0.042
   0.00000000  0.04173414  0.03680772       0.042
   0.00000000  0.04173414 -0.03680772       0.042
   0.02971097  0.04173414  0.05783884       0.042
  -0.02971097  0.04173414 -0.05783884       0.042
   0.05942194  0.04173414  0.07886995       0.042
   0.05942194  0.04173414  0.00525450       0.042
  -0.02971097  0.04173414  0.01577661       0.042
   0.02971097  0.04173414 -0.01577661       0.042
   0.00000000  0.08346827  0.03680772       0.042
   0.02971097  0.08346827  0.05783884       0.042
   0.05942194  0.08346827  0.07886995       0.042
  -0.02971097  0.08346827  0.01577661       0.042

 k-points in reciprocal lattice and weights: auto                                    
   0.00000000  0.00000000  0.00000000       0.021
   0.25000000  0.00000000  0.00000000       0.042
   0.50000000  0.00000000  0.00000000       0.021
   0.00000000  0.25000000  0.00000000       0.042
   0.25000000  0.25000000  0.00000000       0.042
  -0.25000000  0.25000000  0.00000000       0.042
   0.50000000  0.25000000  0.00000000       0.042
   0.00000000  0.50000000  0.00000000       0.021
   0.25000000  0.50000000  0.00000000       0.042
   0.50000000  0.50000000  0.00000000       0.021
   0.00000000  0.00000000  0.33333333       0.042
   0.25000000  0.00000000  0.33333333       0.042
   0.50000000  0.00000000  0.33333333       0.042
  -0.25000000  0.00000000  0.33333333       0.042
   0.00000000  0.25000000  0.33333333       0.042
   0.00000000  0.25000000 -0.33333333       0.042
   0.25000000  0.25000000  0.33333333       0.042
  -0.25000000  0.25000000 -0.33333333       0.042
   0.50000000  0.25000000  0.33333333       0.042
   0.50000000  0.25000000 -0.33333333       0.042
  -0.25000000  0.25000000  0.33333333       0.042
   0.25000000  0.25000000 -0.33333333       0.042
   0.00000000  0.50000000  0.33333333       0.042
   0.25000000  0.50000000  0.33333333       0.042
   0.50000000  0.50000000  0.33333333       0.042
  -0.25000000  0.50000000  0.33333333       0.042

 position of ions in fractional coordinates (direct lattice) 
   0.08598583  0.02583101  0.36913538
   0.11698367  0.15621324  0.28268061
   0.05874071  0.08211655  0.14033491
   0.08681732  0.21225242  0.04911794
   0.96932443  0.86452023  0.08971010
   0.94008322  0.73438401  0.18294959
   0.99556880  0.81283349  0.31837059
   0.03067557  0.13547977  0.91028989
   0.91318268  0.78774758  0.95088206
   0.94125929  0.91788345  0.85966509
   0.05991678  0.26561600  0.81705041
   0.88301633  0.84378676  0.71731939
   0.00443120  0.18716651  0.68162941
   0.91401417  0.97416899  0.63086462
   0.41401412  0.52583112  0.63086459
   0.58598588  0.47416888  0.36913540
   0.38301634  0.65621335  0.71731940
   0.61698366  0.34378665  0.28268060
   0.44125931  0.58211664  0.85966513
   0.55874069  0.41788336  0.14033487
   0.41318274  0.71225245  0.95088213
   0.58681726  0.28774755  0.04911787
   0.53067555  0.36452029  0.91028987
   0.46932445  0.63547972  0.08971013
   0.55991668  0.23438405  0.81705035
   0.44008332  0.76561596  0.18294965
   0.50443108  0.31283359  0.68162934
   0.49556892  0.68716641  0.31837066
   0.13134610  0.08581981  0.47741955
   0.18568973  0.31961560  0.32085964
   0.15520898  0.37607642  0.08740618
   0.87232965  0.57082926  0.14441416
   0.97094540  0.71082067  0.38762517
   0.84479102  0.62392358  0.91259381
   0.12767035  0.42917074  0.85558584
   0.81431027  0.68038441  0.67914036
   0.02905460  0.28917933  0.61237483
   0.86865390  0.91418019  0.52258045
   0.36865382  0.58581996  0.52258043
   0.63134618  0.41418004  0.47741957
   0.31431029  0.81961572  0.67914042
   0.68568971  0.18038429  0.32085958
   0.34479107  0.87607647  0.91259390
   0.65520893  0.12392354  0.08740610
   0.62767026  0.07082930  0.85558579
   0.37232974  0.92917071  0.14441421
   0.52905447  0.21082075  0.61237476
   0.47094553  0.78917925  0.38762524

 position of ions in cartesian coordinates  (Angst):
  -1.64278629  0.15473549  3.34291581
  -0.82774836  0.93576416  2.55997539
  -0.40533504  0.49190276  1.27088277
   0.41565004  1.27145567  0.44481548
   7.58120584  5.17873552  0.81242098
   6.73745618  4.39918051  1.65680431
   6.33623125  4.86911648  2.88318636
  -5.57720583  0.81156448  8.24364899
   1.58834997  4.71884433  8.61125450
   2.40933505  5.49839724  7.78518721
  -4.73345617  1.59111950  7.39926567
   2.83174837  5.05453585  6.49609459
  -4.33223124  1.12118352  6.17288362
   3.64678630  5.83556451  5.71315417
  -0.56041402  3.14988618  5.71315393
   2.56441402  2.84041385  3.34291606
  -1.37545161  3.93091483  6.49609473
   3.37945162  2.05938520  2.55997526
  -1.79786502  3.48705332  7.78518757
   3.80186503  2.50324672  1.27088242
  -2.61884992  4.26660587  8.61125510
   4.62284993  1.72369417  0.44481490
  -1.37000589  2.18358588  8.24364882
   3.37400590  3.80671415  0.81242118
  -0.52625663  1.40403077  7.39926513
   2.53025663  4.58626926  1.65680486
  -0.12503183  1.87396707  6.17288300
   2.12903183  4.11633295  2.88318700
  -1.95525169  0.51408641  4.32354488
  -0.49437099  1.91459330  2.90572735
   0.74568187  2.25281061  0.79155651
   6.41437812  3.41943849  1.30782470
   5.68509061  4.25802909  3.51036065
   1.25831814  3.73748940  8.26451346
  -4.41037811  2.57086151  7.74824528
   2.49837100  4.07570670  6.15034263
  -3.68109059  1.73227091  5.54570933
   3.95925171  5.47621359  4.73252511
  -0.24794889  3.50923732  4.73252491
   2.25194889  2.48106270  4.32354508
  -1.70882924  4.90974402  6.15034314
   3.71282925  1.08055601  2.90572686
  -2.94888200  5.24796087  8.26451427
   4.95288201  0.74233917  0.79155573
  -0.20317849  0.42428874  7.74824482
   2.20717849  5.56601129  1.30782518
   0.52610877  1.26287955  5.54570871
   1.47789123  4.72742047  3.51036129



--------------------------------------------------------------------------------------------------------


 k-point   1 :   0.0000 0.0000 0.0000  plane waves:   32823
 k-point   2 :   0.2500 0.0000 0.0000  plane waves:   32793
 k-point   3 :   0.5000 0.0000 0.0000  plane waves:   32784
 k-point   4 :   0.0000 0.2500 0.0000  plane waves:   32811
 k-point   5 :   0.2500 0.2500 0.0000  plane waves:   32791
 k-point   6 :  -0.2500 0.2500 0.0000  plane waves:   32791
 k-point   7 :   0.5000 0.2500 0.0000  plane waves:   32816
 k-point   8 :   0.0000 0.5000 0.0000  plane waves:   32698
 k-point   9 :   0.2500 0.5000 0.0000  plane waves:   32730
 k-point  10 :   0.5000 0.5000 0.0000  plane waves:   32776
 k-point  11 :   0.0000 0.0000 0.3333  plane waves:   32812
 k-point  12 :   0.2500 0.0000 0.3333  plane waves:   32792
 k-point  13 :   0.5000 0.0000 0.3333  plane waves:   32781
 k-point  14 :  -0.2500 0.0000 0.3333  plane waves:   32791
 k-point  15 :   0.0000 0.2500 0.3333  plane waves:   32794
 k-point  16 :   0.0000 0.2500-0.3333  plane waves:   32794
 k-point  17 :   0.2500 0.2500 0.3333  plane waves:   32791
 k-point  18 :  -0.2500 0.2500-0.3333  plane waves:   32791
 k-point  19 :   0.5000 0.2500 0.3333  plane waves:   32765
 k-point  20 :   0.5000 0.2500-0.3333  plane waves:   32765
 k-point  21 :  -0.2500 0.2500 0.3333  plane waves:   32781
 k-point  22 :   0.2500 0.2500-0.3333  plane waves:   32781
 k-point  23 :   0.0000 0.5000 0.3333  plane waves:   32782
 k-point  24 :   0.2500 0.5000 0.3333  plane waves:   32776
 k-point  25 :   0.5000 0.5000 0.3333  plane waves:   32758
 k-point  26 :  -0.2500 0.5000 0.3333  plane waves:   32732

 maximum and minimum number of plane-waves per node :      1054     1001

 maximum number of plane-waves:     32823
 maximum index in each direction: 
   IXMAX=   21   IYMAX=   15   IZMAX=   28
   IXMIN=  -22   IYMIN=  -15   IZMIN=  -28


 parallel 3D FFT for wavefunctions:
    minimum data exchange during FFTs selected (reduces bandwidth)
 parallel 3D FFT for charge:
    minimum data exchange during FFTs selected (reduces bandwidth)


 total amount of memory used by VASP MPI-rank0    72714. kBytes
=======================================================================

   base      :      30000. kBytes
   nonl-proj :       4243. kBytes
   fftplans  :       2653. kBytes
   grid      :       5617. kBytes
   one-center:          6. kBytes
   wavefun   :      30195. kBytes

     INWAV:  cpu time      0.0002: real time      0.0003
 Broyden mixing: mesh for mixing (old mesh)
   NGX = 43   NGY = 31   NGZ = 57
  (NGX  =180   NGY  =128   NGZ  =240)
  gives a total of  75981 points

 initial charge density was supplied:
 charge density of overlapping atoms calculated
 number of electron     132.0000000 magnetization 
 keeping initial charge density in first step


--------------------------------------------------------------------------------------------------------


 Maximum index for augmentation-charges          485 (set IRDMAX)


--------------------------------------------------------------------------------------------------------


 First call to EWALD:  gamma=   0.230
 Maximum number of real-space cells 3x 3x 2
 Maximum number of reciprocal cells 3x 2x 4

    FEWALD:  cpu time      0.0042: real time      0.0042


--------------------------------------- Ionic step        1  -------------------------------------------




--------------------------------------- Iteration      1(   1)  ---------------------------------------


    POTLOK:  cpu time      0.1428: real time      0.1430
    SETDIJ:  cpu time      0.2615: real time      0.2625
    TRIAL :  cpu time      6.2259: real time      6.2311
    CORREC:  cpu time      0.0015: real time      0.0015
    --------------------------------------------
      LOOP:  cpu time      6.6508: real time      6.6572

 eigenvalue-minimisations  :  4784
 total energy-change (2. order) : 0.8736072E+03  (-0.9725106E+04)
 number of electron     132.0000000 magnetization 
 augmentation part      132.0000000 magnetization 

 Free energy of the ion-electron system (eV)
  ---------------------------------------------------
  alpha Z        PSCENC =       124.96893152
  Ewald energy   TEWEN  =     -1948.25569466
  -Hartree energ DENC   =     -2028.46933119
  -exchange      EXHF   =         0.00000000
  -V(xc)+E(xc)   XCENC  =       348.93580048
  PAW double counting   =      3119.68082138    -3038.85920524
  entropy T*S    EENTRO =        -0.00031923
  eigenvalues    EBANDS =       -74.43146988
  atomic energy  EATOM  =      4370.03766925
  ---------------------------------------------------
  free energy    TOTEN  =       873.60720241 eV

  energy without entropy =      873.60752165  energy(sigma->0) =      873.60736203


--------------------------------------------------------------------------------------------------------




--------------------------------------- Iteration      1(   2)  ---------------------------------------


    TRIAL :  cpu time      7.2458: real time      7.2499
    CORREC:  cpu time      0.0004: real time      0.0004
    --------------------------------------------
      LOOP:  cpu time      7.2610: real time      7.2797

 eigenvalue-minimisations  :  6200
 total energy-change (2. order) :-0.1127234E+04  (-0.1074793E+04)
 number of electron     132.0000000 magnetization 
 augmentation part      132.0000000 magnetization 

 Free energy of the ion-electron system (eV)
  ---------------------------------------------------
  alpha Z        PSCENC =       124.96893152
  Ewald energy   TEWEN  =     -1948.25569466
  -Hartree energ DENC   =     -2028.46933119
  -exchange      EXHF   =         0.00000000
  -V(xc)+E(xc)   XCENC  =       348.93580048
  PAW double counting   =      3119.68082138    -3038.85920524
  entropy T*S    EENTRO =        -0.00000000
  eigenvalues    EBANDS =     -1201.66619785
  atomic energy  EATOM  =      4370.03766925
  ---------------------------------------------------
  free energy    TOTEN  =      -253.62720633 eV

  energy without entropy =     -253.62720633  energy(sigma->0) =     -253.62720633


--------------------------------------------------------------------------------------------------------




--------------------------------------- Iteration      1(   3)  ---------------------------------------


    TRIAL :  cpu time      7.0177: real time      7.0221
    CORREC:  cpu time      0.0004: real time      0.0004
    --------------------------------------------
      LOOP:  cpu time      7.0300: real time      7.0519

 eigenvalue-minimisations  :  5888
 total energy-change (2. order) :-0.1457735E+03  (-0.1445076E+03)
 number of electron     132.0000000 magnetization 
 augmentation part      132.0000000 magnetization 

 Free energy of the ion-electron system (eV)
  ---------------------------------------------------
  alpha Z        PSCENC =       124.96893152
  Ewald energy   TEWEN  =     -1948.25569466
  -Hartree energ DENC   =     -2028.46933119
  -exchange      EXHF   =         0.00000000
  -V(xc)+E(xc)   XCENC  =       348.93580048
  PAW double counting   =      3119.68082138    -3038.85920524
  entropy T*S    EENTRO =        -0.00000000
  eigenvalues    EBANDS =     -1347.43966918
  atomic energy  EATOM  =      4370.03766925
  ---------------------------------------------------
  free energy    TOTEN  =      -399.40067765 eV

  energy without entropy =     -399.40067765  energy(sigma->0) =     -399.40067765


--------------------------------------------------------------------------------------------------------




--------------------------------------- Iteration      1(   4)  ---------------------------------------


    TRIAL :  cpu time      7.0993: real time      7.1033
    CORREC:  cpu time      0.0004: real time      0.0004
    --------------------------------------------
      LOOP:  cpu time      7.1303: real time      7.1346

 eigenvalue-minimisations  :  6024
 total energy-change (2. order) :-0.4825397E+01  (-0.4806846E+01)
 number of electron     132.0000000 magnetization 
 augmentation part      132.0000000 magnetization 

 Free energy of the ion-electron system (eV)
  ---------------------------------------------------
  alpha Z        PSCENC =       124.96893152
  Ewald energy   TEWEN  =     -1948.25569466
  -Hartree energ DENC   =     -2028.46933119
  -exchange      EXHF   =         0.00000000
  -V(xc)+E(xc)   XCENC  =       348.93580048
  PAW double counting   =      3119.68082138    -3038.85920524
  entropy T*S    EENTRO =        -0.00000000
  eigenvalues    EBANDS =     -1352.26506626
  atomic energy  EATOM  =      4370.03766925
  ---------------------------------------------------
  free energy    TOTEN  =      -404.22607473 eV

  energy without entropy =     -404.22607473  energy(sigma->0) =     -404.22607473


--------------------------------------------------------------------------------------------------------




--------------------------------------- Iteration      1(   5)  ---------------------------------------


    TRIAL :  cpu time      7.2687: real time      7.2733
    CORREC:  cpu time      0.0005: real time      0.0005
    CHARGE:  cpu time      1.4462: real time      1.4483
    --------------------------------------------
      LOOP:  cpu time      8.7271: real time      8.7524

 eigenvalue-minimisations  :  6320
 total energy-change (2. order) :-0.1618594E+00  (-0.1617068E+00)
 number of electron     132.0000001 magnetization 
 augmentation part       -0.1845449 magnetization 

 Free energy of the ion-electron system (eV)
  ---------------------------------------------------
  alpha Z        PSCENC =       124.96893152
  Ewald energy   TEWEN  =     -1948.25569466
  -Hartree energ DENC   =     -2028.46933119
  -exchange      EXHF   =         0.00000000
  -V(xc)+E(xc)   XCENC  =       348.93580048
  PAW double counting   =      3119.68082138    -3038.85920524
  entropy T*S    EENTRO =        -0.00000000
  eigenvalues    EBANDS =     -1352.42692570
  atomic energy  EATOM  =      4370.03766925
  ---------------------------------------------------
  free energy    TOTEN  =      -404.38793418 eV

  energy without entropy =     -404.38793418  energy(sigma->0) =     -404.38793418


--------------------------------------------------------------------------------------------------------




--------------------------------------- Iteration      1(   6)  ---------------------------------------


    POTLOK:  cpu time      0.1273: real time      0.1273
    SETDIJ:  cpu time      0.2583: real time      0.2583
    TRIAL :  cpu time      4.8825: real time      4.8871
    CORREC:  cpu time      2.9355: real time      2.9377
    CHARGE:  cpu time      1.4568: real time      1.4571
    --------------------------------------------
      LOOP:  cpu time      9.6729: real time      9.6966

 eigenvalue-minimisations  :     0
 total energy-change (2. order) : 0.7267256E+02  (-0.1429838E+02)
 number of electron     132.0000001 magnetization 
 augmentation part       -0.2067462 magnetization 

 Free energy of the ion-electron system (eV)
  ---------------------------------------------------
  alpha Z        PSCENC =       124.96893152
  Ewald energy   TEWEN  =     -1948.25569466
  -Hartree energ DENC   =     -2686.78893391
  -exchange      EXHF   =         0.00000000
  -V(xc)+E(xc)   XCENC  =       403.73549126
  PAW double counting   =     55916.47169699   -55835.99332517
  entropy T*S    EENTRO =        -0.00000000
  eigenvalues    EBANDS =      -675.89120682
  atomic energy  EATOM  =      4370.03766925
  ---------------------------------------------------
  free energy    TOTEN  =      -331.71537154 eV

  energy without entropy =     -331.71537154  energy(sigma->0) =     -331.71537154


--------------------------------------------------------------------------------------------------------




--------------------------------------- Iteration      1(   7)  ---------------------------------------


    POTLOK:  cpu time      0.1255: real time      0.1257
    SETDIJ:  cpu time      0.2577: real time      0.2577
    TRIAL :  cpu time      4.8188: real time      4.8215
    CORREC:  cpu time      2.9213: real time      2.9224
    CHARGE:  cpu time      1.6684: real time      1.6690
    --------------------------------------------
      LOOP:  cpu time      9.8033: real time      9.8265

 eigenvalue-minimisations  :     0
 total energy-change (2. order) :-0.1428171E+02  (-0.1590702E+01)
 number of electron     132.0000001 magnetization 
 augmentation part       -0.2298874 magnetization 

 Free energy of the ion-electron system (eV)
  ---------------------------------------------------
  alpha Z        PSCENC =       124.96893152
  Ewald energy   TEWEN  =     -1948.25569466
  -Hartree energ DENC   =     -2428.05740688
  -exchange      EXHF   =         0.00000000
  -V(xc)+E(xc)   XCENC  =       387.51598119
  PAW double counting   =     68504.34703433   -68422.51798985
  entropy T*S    EENTRO =        -0.00000000
  eigenvalues    EBANDS =      -934.03560608
  atomic energy  EATOM  =      4370.03766925
  ---------------------------------------------------
  free energy    TOTEN  =      -345.99708119 eV

  energy without entropy =     -345.99708119  energy(sigma->0) =     -345.99708119


--------------------------------------------------------------------------------------------------------




--------------------------------------- Iteration      1(   8)  ---------------------------------------


    POTLOK:  cpu time      0.1257: real time      0.1258
    SETDIJ:  cpu time      0.2580: real time      0.2584
    TRIAL :  cpu time      4.8524: real time      4.8560
    CORREC:  cpu time      2.9345: real time      2.9357
    CHARGE:  cpu time      1.4272: real time      1.4282
    --------------------------------------------
      LOOP:  cpu time      9.6107: real time      9.6358

 eigenvalue-minimisations  :     0
 total energy-change (2. order) :-0.1587249E+01  (-0.4971164E+00)
 number of electron     132.0000001 magnetization 
 augmentation part       -0.2272434 magnetization 

 Free energy of the ion-electron system (eV)
  ---------------------------------------------------
  alpha Z        PSCENC =       124.96893152
  Ewald energy   TEWEN  =     -1948.25569466
  -Hartree energ DENC   =     -2416.06673724
  -exchange      EXHF   =         0.00000000
  -V(xc)+E(xc)   XCENC  =       387.12024657
  PAW double counting   =     75659.19530676   -75577.25693215
  entropy T*S    EENTRO =        -0.00000000
  eigenvalues    EBANDS =      -947.32712048
  atomic energy  EATOM  =      4370.03766925
  ---------------------------------------------------
  free energy    TOTEN  =      -347.58433044 eV

  energy without entropy =     -347.58433044  energy(sigma->0) =     -347.58433044


--------------------------------------------------------------------------------------------------------




--------------------------------------- Iteration      1(   9)  ---------------------------------------


    POTLOK:  cpu time      0.1252: real time      0.1252
    SETDIJ:  cpu time      0.2596: real time      0.2596
    TRIAL :  cpu time      4.8130: real time      4.8158
    CORREC:  cpu time      2.9424: real time      2.9438
    CHARGE:  cpu time      1.4524: real time      1.4532
    --------------------------------------------
      LOOP:  cpu time      9.6040: real time      9.6264

 eigenvalue-minimisations  :     0
 total energy-change (2. order) :-0.4942407E+00  (-0.1482612E+00)
 number of electron     132.0000001 magnetization 
 augmentation part       -0.2265047 magnetization 

 Free energy of the ion-electron system (eV)
  ---------------------------------------------------
  alpha Z        PSCENC =       124.96893152
  Ewald energy   TEWEN  =     -1948.25569466
  -Hartree energ DENC   =     -2407.98908661
  -exchange      EXHF   =         0.00000000
  -V(xc)+E(xc)   XCENC  =       386.89603283
  PAW double counting   =     78387.77187234   -78305.78520489
  entropy T*S    EENTRO =        -0.00000000
  eigenvalues    EBANDS =      -955.72309088
  atomic energy  EATOM  =      4370.03766925
  ---------------------------------------------------
  free energy    TOTEN  =      -348.07857110 eV

  energy without entropy =     -348.07857110  energy(sigma->0) =     -348.07857110


--------------------------------------------------------------------------------------------------------




--------------------------------------- Iteration      1(  10)  ---------------------------------------


    POTLOK:  cpu time      0.1246: real time      0.1246
    SETDIJ:  cpu time      0.2596: real time      0.2596
    TRIAL :  cpu time      4.8079: real time      4.8107
    CORREC:  cpu time      2.9292: real time      2.9309
    CHARGE:  cpu time      1.4322: real time      1.4326
    --------------------------------------------
      LOOP:  cpu time      9.5840: real time      9.5894

 eigenvalue-minimisations  :     0
 total energy-change (2. order) :-0.1476612E+00  (-0.3605531E-01)
 number of electron     132.0000001 magnetization 
 augmentation part       -0.2272982 magnetization 

 Free energy of the ion-electron system (eV)
  ---------------------------------------------------
  alpha Z        PSCENC =       124.96893152
  Ewald energy   TEWEN  =     -1948.25569466
  -Hartree energ DENC   =     -2401.82685439
  -exchange      EXHF   =         0.00000000
  -V(xc)+E(xc)   XCENC  =       386.62392425
  PAW double counting   =     77861.26134182   -77779.28122122
  entropy T*S    EENTRO =        -0.00000000
  eigenvalues    EBANDS =      -961.75432886
  atomic energy  EATOM  =      4370.03766925
  ---------------------------------------------------
  free energy    TOTEN  =      -348.22623230 eV

  energy without entropy =     -348.22623230  energy(sigma->0) =     -348.22623230


--------------------------------------------------------------------------------------------------------




--------------------------------------- Iteration      1(  11)  ---------------------------------------


    POTLOK:  cpu time      0.1248: real time      0.1248
    SETDIJ:  cpu time      0.2586: real time      0.2588
    TRIAL :  cpu time      4.8258: real time      4.8283
    CORREC:  cpu time      2.9114: real time      2.9128
    CHARGE:  cpu time      1.4439: real time      1.4446
    --------------------------------------------
      LOOP:  cpu time      9.5758: real time      9.5978

 eigenvalue-minimisations  :     0
 total energy-change (2. order) :-0.3597081E-01  (-0.7415006E-02)
 number of electron     132.0000001 magnetization 
 augmentation part       -0.2276966 magnetization 

 Free energy of the ion-electron system (eV)
  ---------------------------------------------------
  alpha Z        PSCENC =       124.96893152
  Ewald energy   TEWEN  =     -1948.25569466
  -Hartree energ DENC   =     -2402.11867317
  -exchange      EXHF   =         0.00000000
  -V(xc)+E(xc)   XCENC  =       386.56236238
  PAW double counting   =     76959.50184293   -76877.53962110
  entropy T*S    EENTRO =        -0.00000000
  eigenvalues    EBANDS =      -961.41902025
  atomic energy  EATOM  =      4370.03766925
  ---------------------------------------------------
  free energy    TOTEN  =      -348.26220311 eV

  energy without entropy =     -348.26220311  energy(sigma->0) =     -348.26220311


--------------------------------------------------------------------------------------------------------




--------------------------------------- Iteration      1(  12)  ---------------------------------------


    POTLOK:  cpu time      0.1250: real time      0.1250
    SETDIJ:  cpu time      0.2597: real time      0.2597
    TRIAL :  cpu time      4.9493: real time      4.9522
    CORREC:  cpu time      2.9211: real time      2.9223
    CHARGE:  cpu time      1.4316: real time      1.4322
    --------------------------------------------
      LOOP:  cpu time      9.6986: real time      9.7224

 eigenvalue-minimisations  :     0
 total energy-change (2. order) :-0.7396818E-02  (-0.1529564E-02)
 number of electron     132.0000001 magnetization 
 augmentation part       -0.2279456 magnetization 

 Free energy of the ion-electron system (eV)
  ---------------------------------------------------
  alpha Z        PSCENC =       124.96893152
  Ewald energy   TEWEN  =     -1948.25569466
  -Hartree energ DENC   =     -2401.42596299
  -exchange      EXHF   =         0.00000000
  -V(xc)+E(xc)   XCENC  =       386.48286893
  PAW double counting   =     76617.26545044   -76535.30531031
  entropy T*S    EENTRO =        -0.00000000
  eigenvalues    EBANDS =      -962.03755210
  atomic energy  EATOM  =      4370.03766925
  ---------------------------------------------------
  free energy    TOTEN  =      -348.26959993 eV

  energy without entropy =     -348.26959993  energy(sigma->0) =     -348.26959993


--------------------------------------------------------------------------------------------------------




--------------------------------------- Iteration      1(  13)  ---------------------------------------


    POTLOK:  cpu time      0.1249: real time      0.1251
    SETDIJ:  cpu time      0.2585: real time      0.2586
    TRIAL :  cpu time      4.8604: real time      4.8633
    CORREC:  cpu time      2.9050: real time      2.9063
    CHARGE:  cpu time      1.4267: real time      1.4272
    --------------------------------------------
      LOOP:  cpu time      9.5870: real time      9.6120

 eigenvalue-minimisations  :     0
 total energy-change (2. order) :-0.1523721E-02  (-0.3068174E-03)
 number of electron     132.0000001 magnetization 
 augmentation part       -0.2279143 magnetization 

 Free energy of the ion-electron system (eV)
  ---------------------------------------------------
  alpha Z        PSCENC =       124.96893152
  Ewald energy   TEWEN  =     -1948.25569466
  -Hartree energ DENC   =     -2401.49679144
  -exchange      EXHF   =         0.00000000
  -V(xc)+E(xc)   XCENC  =       386.47136535
  PAW double counting   =     76535.90598348   -76453.94575680
  entropy T*S    EENTRO =        -0.00000000
  eigenvalues    EBANDS =      -961.95683034
  atomic energy  EATOM  =      4370.03766925
  ---------------------------------------------------
  free energy    TOTEN  =      -348.27112365 eV

  energy without entropy =     -348.27112365  energy(sigma->0) =     -348.27112365


--------------------------------------------------------------------------------------------------------




--------------------------------------- Iteration      1(  14)  ---------------------------------------


    POTLOK:  cpu time      0.1251: real time      0.1251
    SETDIJ:  cpu time      0.2578: real time      0.2578
    TRIAL :  cpu time      4.8090: real time      4.8112
    CORREC:  cpu time      2.9078: real time      2.9090
    CHARGE:  cpu time      1.4248: real time      1.4256
    --------------------------------------------
      LOOP:  cpu time      9.5375: real time      9.5593

 eigenvalue-minimisations  :     0
 total energy-change (2. order) :-0.3063909E-03  (-0.6338854E-04)
 number of electron     132.0000001 magnetization 
 augmentation part       -0.2278134 magnetization 

 Free energy of the ion-electron system (eV)
  ---------------------------------------------------
  alpha Z        PSCENC =       124.96893152
  Ewald energy   TEWEN  =     -1948.25569466
  -Hartree energ DENC   =     -2401.62116834
  -exchange      EXHF   =         0.00000000
  -V(xc)+E(xc)   XCENC  =       386.47360871
  PAW double counting   =     76518.05624290   -76436.09575184
  entropy T*S    EENTRO =        -0.00000000
  eigenvalues    EBANDS =      -961.83526757
  atomic energy  EATOM  =      4370.03766925
  ---------------------------------------------------
  free energy    TOTEN  =      -348.27143004 eV

  energy without entropy =     -348.27143004  energy(sigma->0) =     -348.27143004


--------------------------------------------------------------------------------------------------------




--------------------------------------- Iteration      1(  15)  ---------------------------------------


    POTLOK:  cpu time      0.1246: real time      0.1246
    SETDIJ:  cpu time      0.2586: real time      0.2586
    TRIAL :  cpu time      4.8512: real time      4.8543
    CORREC:  cpu time      2.9076: real time      2.9091
    CHARGE:  cpu time      1.4345: real time      1.4349
    --------------------------------------------
      LOOP:  cpu time      9.6063: real time      9.6117

 eigenvalue-minimisations  :     0
 total energy-change (2. order) :-0.6464473E-04  (-0.1473481E-04)
 number of electron     132.0000001 magnetization 
 augmentation part       -0.2277475 magnetization 

 Free energy of the ion-electron system (eV)
  ---------------------------------------------------
  alpha Z        PSCENC =       124.96893152
  Ewald energy   TEWEN  =     -1948.25569466
  -Hartree energ DENC   =     -2401.60185920
  -exchange      EXHF   =         0.00000000
  -V(xc)+E(xc)   XCENC  =       386.47193779
  PAW double counting   =     76512.61423074   -76430.65343944
  entropy T*S    EENTRO =        -0.00000000
  eigenvalues    EBANDS =      -961.85327068
  atomic energy  EATOM  =      4370.03766925
  ---------------------------------------------------
  free energy    TOTEN  =      -348.27149468 eV

  energy without entropy =     -348.27149468  energy(sigma->0) =     -348.27149468


--------------------------------------------------------------------------------------------------------




--------------------------------------- Iteration      1(  16)  ---------------------------------------


    POTLOK:  cpu time      0.1245: real time      0.1245
    SETDIJ:  cpu time      0.2590: real time      0.2592
    TRIAL :  cpu time      4.8190: real time      4.8213
    CORREC:  cpu time      2.9100: real time      2.9114
    CHARGE:  cpu time      1.4280: real time      1.4287
    --------------------------------------------
      LOOP:  cpu time      9.5538: real time      9.5732

 eigenvalue-minimisations  :     0
 total energy-change (2. order) :-0.1521927E-04  (-0.3267880E-05)
 number of electron     132.0000001 magnetization 
 augmentation part       -0.2277269 magnetization 

 Free energy of the ion-electron system (eV)
  ---------------------------------------------------
  alpha Z        PSCENC =       124.96893152
  Ewald energy   TEWEN  =     -1948.25569466
  -Hartree energ DENC   =     -2401.64036800
  -exchange      EXHF   =         0.00000000
  -V(xc)+E(xc)   XCENC  =       386.47439401
  PAW double counting   =     76513.03905605   -76431.07826024
  entropy T*S    EENTRO =        -0.00000000
  eigenvalues    EBANDS =      -961.81723782
  atomic energy  EATOM  =      4370.03766925
  ---------------------------------------------------
  free energy    TOTEN  =      -348.27150990 eV

  energy without entropy =     -348.27150990  energy(sigma->0) =     -348.27150990


--------------------------------------------------------------------------------------------------------




--------------------------------------- Iteration      1(  17)  ---------------------------------------


    POTLOK:  cpu time      0.1270: real time      0.1270
    SETDIJ:  cpu time      0.2563: real time      0.2563
    TRIAL :  cpu time      4.8780: real time      4.8807
    CORREC:  cpu time      2.9287: real time      2.9299
    CHARGE:  cpu time      1.4361: real time      1.4368
    --------------------------------------------
      LOOP:  cpu time      9.6427: real time      9.6629

 eigenvalue-minimisations  :     0
 total energy-change (2. order) :-0.3451671E-05  (-0.8697811E-06)
 number of electron     132.0000001 magnetization 
 augmentation part       -0.2277189 magnetization 

 Free energy of the ion-electron system (eV)
  ---------------------------------------------------
  alpha Z        PSCENC =       124.96893152
  Ewald energy   TEWEN  =     -1948.25569466
  -Hartree energ DENC   =     -2401.64271175
  -exchange      EXHF   =         0.00000000
  -V(xc)+E(xc)   XCENC  =       386.47477675
  PAW double counting   =     76516.34753483   -76434.38669604
  entropy T*S    EENTRO =        -0.00000000
  eigenvalues    EBANDS =      -961.81532324
  atomic energy  EATOM  =      4370.03766925
  ---------------------------------------------------
  free energy    TOTEN  =      -348.27151335 eV

  energy without entropy =     -348.27151335  energy(sigma->0) =     -348.27151335


--------------------------------------------------------------------------------------------------------




--------------------------------------- Iteration      1(  18)  ---------------------------------------


    POTLOK:  cpu time      0.1235: real time      0.1238
    SETDIJ:  cpu time      0.2590: real time      0.2591
    TRIAL :  cpu time      4.8308: real time      4.8333
    CORREC:  cpu time      2.9115: real time      2.9129
    CHARGE:  cpu time      1.4453: real time      1.4458
    --------------------------------------------
      LOOP:  cpu time      9.5826: real time      9.6052

 eigenvalue-minimisations  :     0
 total energy-change (2. order) :-0.9288342E-06  (-0.3384045E-06)
 number of electron     132.0000001 magnetization 
 augmentation part       -0.2277130 magnetization 

 Free energy of the ion-electron system (eV)
  ---------------------------------------------------
  alpha Z        PSCENC =       124.96893152
  Ewald energy   TEWEN  =     -1948.25569466
  -Hartree energ DENC   =     -2401.64505228
  -exchange      EXHF   =         0.00000000
  -V(xc)+E(xc)   XCENC  =       386.47499801
  PAW double counting   =     76518.79401980   -76436.83316242
  entropy T*S    EENTRO =        -0.00000000
  eigenvalues    EBANDS =      -961.81322349
  atomic energy  EATOM  =      4370.03766925
  ---------------------------------------------------
  free energy    TOTEN  =      -348.27151428 eV

  energy without entropy =     -348.27151428  energy(sigma->0) =     -348.27151428


--------------------------------------------------------------------------------------------------------




--------------------------------------- Iteration      1(  19)  ---------------------------------------


    POTLOK:  cpu time      0.1250: real time      0.1250
    SETDIJ:  cpu time      0.2588: real time      0.2589
    TRIAL :  cpu time      4.8397: real time      4.8421
    CORREC:  cpu time      3.0012: real time      3.0024
    CHARGE:  cpu time      1.4395: real time      1.4403
    --------------------------------------------
      LOOP:  cpu time      9.6776: real time      9.6991

 eigenvalue-minimisations  :     0
 total energy-change (2. order) :-0.3545720E-06  (-0.1112457E-06)
 number of electron     132.0000001 magnetization 
 augmentation part       -0.2277100 magnetization 

 Free energy of the ion-electron system (eV)
  ---------------------------------------------------
  alpha Z        PSCENC =       124.96893152
  Ewald energy   TEWEN  =     -1948.25569466
  -Hartree energ DENC   =     -2401.64816360
  -exchange      EXHF   =         0.00000000
  -V(xc)+E(xc)   XCENC  =       386.47527964
  PAW double counting   =     76519.85546044   -76437.89460935
  entropy T*S    EENTRO =        -0.00000000
  eigenvalues    EBANDS =      -961.81038787
  atomic energy  EATOM  =      4370.03766925
  ---------------------------------------------------
  free energy    TOTEN  =      -348.27151464 eV

  energy without entropy =     -348.27151464  energy(sigma->0) =     -348.27151464


--------------------------------------------------------------------------------------------------------




--------------------------------------- Iteration      1(  20)  ---------------------------------------


    POTLOK:  cpu time      0.1242: real time      0.1242
    SETDIJ:  cpu time      0.2591: real time      0.2591
    TRIAL :  cpu time      4.8161: real time      4.8187
    CORREC:  cpu time     11.7366: real time     11.7413
    CHARGE:  cpu time      1.5211: real time      1.5217
    --------------------------------------------
      LOOP:  cpu time     18.4704: real time     18.4949

 eigenvalue-minimisations  :     0
 total energy-change (2. order) :-0.1093867E-06  (-0.1144648E-06)
 number of electron     132.0000001 magnetization 
 augmentation part       -0.2277070 magnetization 

 Free energy of the ion-electron system (eV)
  ---------------------------------------------------
  alpha Z        PSCENC =       124.96893152
  Ewald energy   TEWEN  =     -1948.25569466
  -Hartree energ DENC   =     -2401.64799205
  -exchange      EXHF   =         0.00000000
  -V(xc)+E(xc)   XCENC  =       386.47524926
  PAW double counting   =     76519.67335398   -76437.71251077
  entropy T*S    EENTRO =        -0.00000000
  eigenvalues    EBANDS =      -961.81052128
  atomic energy  EATOM  =      4370.03766925
  ---------------------------------------------------
  free energy    TOTEN  =      -348.27151475 eV

  energy without entropy =     -348.27151475  energy(sigma->0) =     -348.27151475


--------------------------------------------------------------------------------------------------------




--------------------------------------- Iteration      1(  21)  ---------------------------------------


    POTLOK:  cpu time      0.1244: real time      0.1244
    SETDIJ:  cpu time      0.2585: real time      0.2587
    TRIAL :  cpu time      4.8445: real time      4.8480
    CORREC:  cpu time      2.9138: real time      2.9147
    CHARGE:  cpu time      1.4303: real time      1.4309
    --------------------------------------------
      LOOP:  cpu time      9.6016: real time      9.6071

 eigenvalue-minimisations  :     0
 total energy-change (2. order) : 0.2100278E-06  (-0.2124352E-06)
 number of electron     132.0000001 magnetization 
 augmentation part       -0.2277093 magnetization 

 Free energy of the ion-electron system (eV)
  ---------------------------------------------------
  alpha Z        PSCENC =       124.96893152
  Ewald energy   TEWEN  =     -1948.25569466
  -Hartree energ DENC   =     -2401.65037720
  -exchange      EXHF   =         0.00000000
  -V(xc)+E(xc)   XCENC  =       386.47532841
  PAW double counting   =     76518.44900805   -76436.48818517
  entropy T*S    EENTRO =        -0.00000000
  eigenvalues    EBANDS =      -961.80819474
  atomic energy  EATOM  =      4370.03766925
  ---------------------------------------------------
  free energy    TOTEN  =      -348.27151454 eV

  energy without entropy =     -348.27151454  energy(sigma->0) =     -348.27151454


--------------------------------------------------------------------------------------------------------




--------------------------------------- Iteration      1(  22)  ---------------------------------------


    POTLOK:  cpu time      0.1245: real time      0.1245
    SETDIJ:  cpu time      0.2583: real time      0.2583
    TRIAL :  cpu time      4.8225: real time      4.8255
    CORREC:  cpu time      2.9089: real time      2.9102
    CHARGE:  cpu time      1.4333: real time      1.4337
    --------------------------------------------
      LOOP:  cpu time      9.5600: real time      9.5815

 eigenvalue-minimisations  :     0
 total energy-change (2. order) :-0.1964218E-06  (-0.4303569E-07)
 number of electron     132.0000001 magnetization 
 augmentation part       -0.2277103 magnetization 

 Free energy of the ion-electron system (eV)
  ---------------------------------------------------
  alpha Z        PSCENC =       124.96893152
  Ewald energy   TEWEN  =     -1948.25569466
  -Hartree energ DENC   =     -2401.64737326
  -exchange      EXHF   =         0.00000000
  -V(xc)+E(xc)   XCENC  =       386.47517601
  PAW double counting   =     76518.99094357   -76437.03010605
  entropy T*S    EENTRO =        -0.00000000
  eigenvalues    EBANDS =      -961.81106110
  atomic energy  EATOM  =      4370.03766925
  ---------------------------------------------------
  free energy    TOTEN  =      -348.27151473 eV

  energy without entropy =     -348.27151473  energy(sigma->0) =     -348.27151473


--------------------------------------------------------------------------------------------------------




--------------------------------------- Iteration      1(  23)  ---------------------------------------


    POTLOK:  cpu time      0.1244: real time      0.1246
    SETDIJ:  cpu time      0.2590: real time      0.2590
    TRIAL :  cpu time      4.8633: real time      4.8660
    CORREC:  cpu time      2.9062: real time      2.9079
    EDDIAG:  cpu time      1.1079: real time      1.1087
    CHARGE:  cpu time      1.4283: real time      1.4288
    --------------------------------------------
      LOOP:  cpu time     10.7030: real time     10.7235

 eigenvalue-minimisations  :     0
 total energy-change (2. order) :-0.4272442E-07  (-0.1355641E-07)
 number of electron     132.0000001 magnetization 
 augmentation part       -0.2277107 magnetization 

 Free energy of the ion-electron system (eV)
  ---------------------------------------------------
  alpha Z        PSCENC =       124.96893152
  Ewald energy   TEWEN  =     -1948.25569466
  -Hartree energ DENC   =     -2401.64832272
  -exchange      EXHF   =         0.00000000
  -V(xc)+E(xc)   XCENC  =       386.47525897
  PAW double counting   =     76519.36633938   -76437.40549795
  entropy T*S    EENTRO =        -0.00000000
  eigenvalues    EBANDS =      -961.81019856
  atomic energy  EATOM  =      4370.03766925
  ---------------------------------------------------
  free energy    TOTEN  =      -348.27151478 eV

  energy without entropy =     -348.27151478  energy(sigma->0) =     -348.27151478


--------------------------------------------------------------------------------------------------------


  average scaling for gradient   0.9468


 average (electrostatic) potential at core
  the test charge radii are     0.5770  0.4325
  (the norm of the test charge is              1.0000)
       1 -82.9365       2 -82.9188       3 -83.1760       4 -82.9038       5 -83.1609
       6 -82.8447       7 -82.9065       8 -83.1609       9 -82.9038      10 -83.1760
      11 -82.8447      12 -82.9188      13 -82.9065      14 -82.9365      15 -82.9365
      16 -82.9365      17 -82.9188      18 -82.9188      19 -83.1760      20 -83.1760
      21 -82.9039      22 -82.9039      23 -83.1609      24 -83.1609      25 -82.8447
      26 -82.8447      27 -82.9065      28 -82.9065      29 -41.8096      30 -41.7647
      31 -41.7026      32 -41.6425      33 -41.7355      34 -41.7026      35 -41.6425
      36 -41.7647      37 -41.7355      38 -41.8096      39 -41.8096      40 -41.8096
      41 -41.7647      42 -41.7647      43 -41.7026      44 -41.7026      45 -41.6425
      46 -41.6425      47 -41.7355      48 -41.7355



 E-fermi :   0.6165     XC(G=0):  -8.7709     alpha+bet : -7.6605

 Fermi energy:         0.6164759576

 k-point     1 :       0.0000    0.0000    0.0000
  band No.  band energies     occupation 
      1     -17.7136      2.00000
      2     -17.5553      2.00000
      3     -16.7838      2.00000
      4     -16.7692      2.00000
      5     -15.4837      2.00000
      6     -15.4555      2.00000
      7     -14.9305      2.00000
      8     -14.9216      2.00000
      9     -14.0461      2.00000
     10     -14.0433      2.00000
     11     -13.8115      2.00000
     12     -13.6954      2.00000
     13     -12.7639      2.00000
     14     -12.7107      2.00000
     15     -11.3495      2.00000
     16     -11.2346      2.00000
     17     -10.4350      2.00000
     18     -10.3649      2.00000
     19     -10.1155      2.00000
     20     -10.0099      2.00000
     21      -9.7975      2.00000
     22      -9.7483      2.00000
     23      -8.4292      2.00000
     24      -8.3258      2.00000
     25      -7.8995      2.00000
     26      -7.7065      2.00000
     27      -7.5514      2.00000
     28      -7.3652      2.00000
     29      -6.4491      2.00000
     30      -6.4409      2.00000
     31      -6.1865      2.00000
     32      -6.0816      2.00000
     33      -6.0352      2.00000
     34      -5.8253      2.00000
     35      -5.8093      2.00000
     36      -5.7513      2.00000
     37      -5.0249      2.00000
     38      -5.0071      2.00000
     39      -4.8757      2.00000
     40      -4.8248      2.00000
     41      -4.6965      2.00000
     42      -4.5835      2.00000
     43      -4.5796      2.00000
     44      -4.3558      2.00000
     45      -4.3222      2.00000
     46      -4.3177      2.00000
     47      -4.0473      2.00000
     48      -3.9987      2.00000
     49      -3.9675      2.00000
     50      -3.7211      2.00000
     51      -3.1553      2.00000
     52      -3.0733      2.00000
     53      -2.9631      2.00000
     54      -2.7319      2.00000
     55      -2.7083      2.00000
     56      -2.5472      2.00000
     57      -2.2675      2.00000
     58      -2.2565      2.00000
     59      -2.2545      2.00000
     60      -1.9474      2.00000
     61      -1.3085      2.00000
     62      -1.1105      2.00000
     63      -1.0276      2.00000
     64      -0.6648      2.00000
     65       0.3086      2.00000
     66       0.3467      2.00000
     67       2.6749      0.00000
     68       3.2563      0.00000
     69       3.8263      0.00000
     70       4.5284      0.00000
     71       4.6167      0.00000
     72       4.8901      0.00000
     73       5.4623      0.00000
     74       5.6591      0.00000
     75       5.9541      0.00000
     76       6.0106      0.00000
     77       6.1461      0.00000
     78       6.6257      0.00000
     79       7.2006      0.00000
     80       7.5556      0.00000
     81       7.7281      0.00000
     82       7.8407      0.00000
     83       8.0039      0.00000
     84       8.0493      0.00000
     85       8.1055      0.00000
     86       8.4948      0.00000
     87       8.4983      0.00000
     88       8.5725      0.00000
     89       9.0181      0.00000
     90       9.2481      0.00000
     91       9.2649      0.00000
     92       9.4047      0.00000

 k-point     2 :       0.2500    0.0000    0.0000
  band No.  band energies     occupation 
      1     -17.6916      2.00000
      2     -17.5799      2.00000
      3     -16.7827      2.00000
      4     -16.7721      2.00000
      5     -15.4759      2.00000
      6     -15.4562      2.00000
      7     -14.9280      2.00000
      8     -14.9217      2.00000
      9     -14.0484      2.00000
[...]
     10     -14.1341      2.00000
     11     -13.7863      2.00000
     12     -13.7863      2.00000
     13     -12.7941      2.00000
     14     -12.7941      2.00000
     15     -11.1954      2.00000
     16     -11.1954      2.00000
     17     -10.4446      2.00000
     18     -10.4446      2.00000
     19      -9.8170      2.00000
     20      -9.8170      2.00000
     21      -9.6761      2.00000
     22      -9.6761      2.00000
     23      -8.3510      2.00000
     24      -8.3510      2.00000
     25      -7.8410      2.00000
     26      -7.8410      2.00000
     27      -7.2574      2.00000
     28      -7.2574      2.00000
     29      -6.3513      2.00000
     30      -6.3513      2.00000
     31      -6.2413      2.00000
     32      -6.2413      2.00000
     33      -6.1067      2.00000
     34      -6.1067      2.00000
     35      -5.8013      2.00000
     36      -5.8013      2.00000
     37      -5.3213      2.00000
     38      -5.3213      2.00000
     39      -5.0012      2.00000
     40      -5.0012      2.00000
     41      -4.7654      2.00000
     42      -4.7653      2.00000
     43      -4.6687      2.00000
     44      -4.6687      2.00000
     45      -4.1977      2.00000
     46      -4.1977      2.00000
     47      -3.9873      2.00000
     48      -3.9873      2.00000
     49      -3.7847      2.00000
     50      -3.7847      2.00000
     51      -3.1292      2.00000
     52      -3.1292      2.00000
     53      -2.8061      2.00000
     54      -2.8061      2.00000
     55      -2.5177      2.00000
     56      -2.5177      2.00000
     57      -2.2597      2.00000
     58      -2.2597      2.00000
     59      -1.9352      2.00000
     60      -1.9352      2.00000
     61      -0.9824      2.00000
     62      -0.9824      2.00000
     63      -0.8526      2.00000
     64      -0.8526      2.00000
     65       0.5708      2.00000
     66       0.5708      2.00000
     67       2.8177      0.00000
     68       2.8177      0.00000
     69       4.2545      0.00000
     70       4.2545      0.00000
     71       4.4611      0.00000
     72       4.4611      0.00000
     73       5.0419      0.00000
     74       5.0419      0.00000
     75       6.1465      0.00000
     76       6.1465      0.00000
     77       6.6361      0.00000
     78       6.6361      0.00000
     79       6.7879      0.00000
     80       6.7879      0.00000
     81       7.5122      0.00000
     82       7.5125      0.00000
     83       7.9845      0.00000
     84       7.9852      0.00000
     85       8.1627      0.00000
     86       8.1657      0.00000
     87       8.4877      0.00000
     88       8.4885      0.00000
     89       8.9437      0.00000
     90       8.9836      0.00000
     91       9.2109      0.00000
     92       9.4324      0.00000

 k-point    26 :      -0.2500    0.5000    0.3333
  band No.  band energies     occupation 
      1     -17.6056      2.00000
      2     -17.6056      2.00000
      3     -16.7612      2.00000
      4     -16.7612      2.00000
      5     -15.4270      2.00000
      6     -15.4270      2.00000
      7     -15.0223      2.00000
      8     -15.0223      2.00000
      9     -14.1345      2.00000
     10     -14.1345      2.00000
     11     -13.7892      2.00000
     12     -13.7892      2.00000
     13     -12.7936      2.00000
     14     -12.7936      2.00000
     15     -11.1965      2.00000
     16     -11.1965      2.00000
     17     -10.4416      2.00000
     18     -10.4416      2.00000
     19      -9.8206      2.00000
     20      -9.8206      2.00000
     21      -9.6768      2.00000
     22      -9.6768      2.00000
     23      -8.3497      2.00000
     24      -8.3497      2.00000
     25      -7.8331      2.00000
     26      -7.8331      2.00000
     27      -7.2618      2.00000
     28      -7.2618      2.00000
     29      -6.3584      2.00000
     30      -6.3584      2.00000
     31      -6.1993      2.00000
     32      -6.1993      2.00000
     33      -6.1109      2.00000
     34      -6.1109      2.00000
     35      -5.8049      2.00000
     36      -5.8049      2.00000
     37      -5.3563      2.00000
     38      -5.3563      2.00000
     39      -5.0086      2.00000
     40      -5.0086      2.00000
     41      -4.7973      2.00000
     42      -4.7973      2.00000
     43      -4.6949      2.00000
     44      -4.6949      2.00000
     45      -4.1901      2.00000
     46      -4.1901      2.00000
     47      -3.9355      2.00000
     48      -3.9355      2.00000
     49      -3.7909      2.00000
     50      -3.7909      2.00000
     51      -3.0896      2.00000
     52      -3.0896      2.00000
     53      -2.8032      2.00000
     54      -2.8032      2.00000
     55      -2.4641      2.00000
     56      -2.4641      2.00000
     57      -2.2910      2.00000
     58      -2.2910      2.00000
     59      -1.9455      2.00000
     60      -1.9455      2.00000
     61      -0.9973      2.00000
     62      -0.9973      2.00000
     63      -0.8632      2.00000
     64      -0.8632      2.00000
     65       0.5424      2.00000
     66       0.5424      2.00000
     67       2.8239      0.00000
     68       2.8239      0.00000
     69       4.2513      0.00000
     70       4.2513      0.00000
     71       4.4467      0.00000
     72       4.4467      0.00000
     73       5.0684      0.00000
     74       5.0684      0.00000
     75       6.1545      0.00000
     76       6.1545      0.00000
     77       6.5820      0.00000
     78       6.5820      0.00000
     79       6.8755      0.00000
     80       6.8755      0.00000
     81       7.4952      0.00000
     82       7.4953      0.00000
     83       7.9813      0.00000
     84       7.9820      0.00000
     85       8.1344      0.00000
     86       8.1407      0.00000
     87       8.5086      0.00000
     88       8.5146      0.00000
     89       8.9328      0.00000
     90       8.9994      0.00000
     91       9.3494      0.00000
     92       9.6106      0.00000


--------------------------------------------------------------------------------------------------------


 soft charge-density along one line, spin component           1
         0         1         2         3         4         5         6         7         8         9
 total charge-density along one line

 pseudopotential strength for first ion, spin component:           1
 12.449  20.943  -0.002   0.000  -0.001  -0.003   0.001  -0.002
 20.943  35.232  -0.003   0.001  -0.002  -0.005   0.001  -0.003
 -0.002  -0.003  -3.161  -0.000   0.000  -5.655  -0.000   0.000
  0.000   0.001  -0.000  -3.161  -0.000  -0.000  -5.655   0.000
 -0.001  -0.002   0.000  -0.000  -3.161   0.000   0.000  -5.655
 -0.003  -0.005  -5.655  -0.000   0.000 -10.094  -0.000  -0.000
  0.001   0.001  -0.000  -5.655   0.000  -0.000 -10.095   0.000
 -0.002  -0.003   0.000   0.000  -5.655  -0.000   0.000 -10.094
 total augmentation occupancy for first ion, spin component:           1
 10.005  -3.742  -0.016  -0.763   0.390   0.017   0.352  -0.175
 -3.742   1.422   0.025   0.370  -0.180  -0.015  -0.167   0.079
 -0.016   0.025   7.584   0.438   1.774  -2.658  -0.171  -0.721
 -0.763   0.370   0.438   7.138  -1.484  -0.171  -2.450   0.590
  0.390  -0.180   1.774  -1.484   5.493  -0.721   0.590  -1.809
  0.017  -0.015  -2.658  -0.171  -0.721   0.943   0.064   0.287
  0.352  -0.167  -0.171  -2.450   0.590   0.064   0.849  -0.229
 -0.175   0.079  -0.721   0.590  -1.809   0.287  -0.229   0.606


------------------------ aborting loop because EDIFF is reached ----------------------------------------


    FORLOC:  cpu time      0.0137: real time      0.0137
    FORNL :  cpu time      1.1952: real time      1.1956
    FORCOR:  cpu time      0.3800: real time      0.3808
    OFIELD:  cpu time      0.0020: real time      0.0020

 VOLUME and BASIS-vectors are now :
 -----------------------------------------------------------------------------
  energy-cutoff  :     1000.00
  volume of cell :      456.47
      direct lattice vectors                 reciprocal lattice vectors
     8.414400000  0.000000000  0.000000000     0.118843887 -0.000000000  0.084124444
     0.000000000  5.990300000  0.000000000     0.000000000  0.166936547 -0.000000000
    -6.410400000  0.000000000  9.056070000     0.000000000  0.000000000  0.110423175

  length of vectors
     8.414400000  5.990300000 11.095297743     0.145604916  0.166936547  0.110423175


 FORCES acting on ions:
    Electron-Ion                     Ewald-Force                    Non-Local-Force
 -----------------------------------------------------------------------------------------------
   0.370E+02 -.295E+02 -.136E+03   -.363E+02 0.304E+02 0.135E+03   -.619E+00 -.844E+00 0.307E+00
   -.292E+02 -.964E+02 -.959E+02   0.287E+02 0.964E+02 0.970E+02   0.518E+00 -.619E-01 -.106E+01
   -.685E+01 -.369E+02 -.570E+02   0.737E+01 0.377E+02 0.569E+02   -.508E+00 -.768E+00 0.122E+00
   -.278E+02 -.101E+03 -.479E+02   0.280E+02 0.101E+03 0.481E+02   -.240E+00 -.631E+00 -.203E+00
   0.138E+02 0.373E+02 -.205E+02   -.138E+02 -.381E+02 0.200E+02   0.563E-01 0.785E+00 0.509E+00
   0.280E+02 0.943E+02 -.267E+02   -.289E+02 -.951E+02 0.274E+02   0.923E+00 0.895E+00 -.714E+00
   0.647E+02 0.543E+02 -.117E+03   -.646E+02 -.551E+02 0.116E+03   -.291E-01 0.827E+00 0.965E+00
   -.138E+02 -.373E+02 0.205E+02   0.138E+02 0.381E+02 -.200E+02   -.563E-01 -.785E+00 -.509E+00
   0.278E+02 0.101E+03 0.479E+02   -.280E+02 -.101E+03 -.481E+02   0.240E+00 0.631E+00 0.203E+00
   0.685E+01 0.369E+02 0.570E+02   -.737E+01 -.377E+02 -.569E+02   0.508E+00 0.768E+00 -.122E+00
   -.280E+02 -.943E+02 0.267E+02   0.289E+02 0.951E+02 -.274E+02   -.923E+00 -.895E+00 0.714E+00
   0.292E+02 0.964E+02 0.959E+02   -.287E+02 -.964E+02 -.970E+02   -.518E+00 0.619E-01 0.106E+01
   -.647E+02 -.543E+02 0.117E+03   0.646E+02 0.551E+02 -.116E+03   0.291E-01 -.827E+00 -.965E+00
   -.370E+02 0.295E+02 0.136E+03   0.363E+02 -.304E+02 -.135E+03   0.619E+00 0.844E+00 -.307E+00
   -.370E+02 -.295E+02 0.136E+03   0.363E+02 0.304E+02 -.135E+03   0.619E+00 -.844E+00 -.307E+00
   0.370E+02 0.295E+02 -.136E+03   -.363E+02 -.304E+02 0.135E+03   -.619E+00 0.844E+00 0.307E+00
   0.292E+02 -.964E+02 0.959E+02   -.287E+02 0.964E+02 -.970E+02   -.518E+00 -.619E-01 0.106E+01
   -.292E+02 0.964E+02 -.959E+02   0.287E+02 -.964E+02 0.970E+02   0.518E+00 0.619E-01 -.106E+01
   0.685E+01 -.369E+02 0.570E+02   -.737E+01 0.377E+02 -.569E+02   0.508E+00 -.768E+00 -.122E+00
   -.685E+01 0.369E+02 -.570E+02   0.737E+01 -.377E+02 0.569E+02   -.508E+00 0.768E+00 0.122E+00
   0.278E+02 -.101E+03 0.479E+02   -.280E+02 0.101E+03 -.481E+02   0.240E+00 -.631E+00 0.203E+00
   -.278E+02 0.101E+03 -.479E+02   0.280E+02 -.101E+03 0.481E+02   -.240E+00 0.631E+00 -.203E+00
   -.138E+02 0.373E+02 0.205E+02   0.138E+02 -.381E+02 -.200E+02   -.563E-01 0.785E+00 -.509E+00
   0.138E+02 -.373E+02 -.205E+02   -.138E+02 0.381E+02 0.200E+02   0.563E-01 -.785E+00 0.509E+00
   -.280E+02 0.943E+02 0.267E+02   0.289E+02 -.951E+02 -.274E+02   -.923E+00 0.895E+00 0.714E+00
   0.280E+02 -.943E+02 -.267E+02   -.289E+02 0.951E+02 0.274E+02   0.923E+00 -.895E+00 -.714E+00
   -.647E+02 0.543E+02 0.117E+03   0.646E+02 -.551E+02 -.116E+03   0.291E-01 0.827E+00 -.965E+00
   0.647E+02 -.543E+02 -.117E+03   -.646E+02 0.551E+02 0.116E+03   -.291E-01 -.827E+00 0.965E+00
   0.153E+02 -.170E+02 -.461E+02   -.169E+02 0.190E+02 0.513E+02   0.166E+01 -.199E+01 -.532E+01
   -.147E+02 -.457E+02 -.298E+02   0.165E+02 0.508E+02 0.316E+02   -.179E+01 -.531E+01 -.188E+01
   -.113E+02 -.451E+02 -.221E+02   0.130E+02 0.502E+02 0.239E+02   -.180E+01 -.531E+01 -.188E+01
   0.831E+01 0.434E+02 -.231E+00   -.101E+02 -.486E+02 -.159E+01   0.181E+01 0.538E+01 0.189E+01
   0.303E+02 0.302E+02 -.400E+02   -.337E+02 -.334E+02 0.432E+02   0.352E+01 0.335E+01 -.336E+01
   0.113E+02 0.451E+02 0.221E+02   -.130E+02 -.502E+02 -.239E+02   0.180E+01 0.531E+01 0.188E+01
   -.831E+01 -.434E+02 0.231E+00   0.101E+02 0.486E+02 0.159E+01   -.181E+01 -.538E+01 -.189E+01
   0.147E+02 0.457E+02 0.298E+02   -.165E+02 -.508E+02 -.316E+02   0.179E+01 0.531E+01 0.188E+01
   -.303E+02 -.302E+02 0.400E+02   0.337E+02 0.334E+02 -.432E+02   -.352E+01 -.335E+01 0.336E+01
   -.153E+02 0.170E+02 0.461E+02   0.169E+02 -.190E+02 -.513E+02   -.166E+01 0.199E+01 0.532E+01
   -.153E+02 -.170E+02 0.461E+02   0.169E+02 0.190E+02 -.513E+02   -.166E+01 -.199E+01 0.532E+01
   0.153E+02 0.170E+02 -.461E+02   -.169E+02 -.190E+02 0.513E+02   0.166E+01 0.199E+01 -.532E+01
   0.147E+02 -.457E+02 0.298E+02   -.165E+02 0.508E+02 -.316E+02   0.179E+01 -.531E+01 0.188E+01
   -.147E+02 0.457E+02 -.298E+02   0.165E+02 -.508E+02 0.316E+02   -.179E+01 0.531E+01 -.188E+01
   0.113E+02 -.451E+02 0.221E+02   -.130E+02 0.502E+02 -.239E+02   0.180E+01 -.531E+01 0.188E+01
   -.113E+02 0.451E+02 -.221E+02   0.130E+02 -.502E+02 0.239E+02   -.180E+01 0.531E+01 -.188E+01
   -.831E+01 0.434E+02 0.231E+00   0.101E+02 -.486E+02 0.159E+01   -.181E+01 0.538E+01 -.189E+01
   0.831E+01 -.434E+02 -.231E+00   -.101E+02 0.486E+02 -.159E+01   0.181E+01 -.538E+01 0.189E+01
   -.303E+02 0.302E+02 0.400E+02   0.337E+02 -.334E+02 -.432E+02   -.352E+01 0.335E+01 0.336E+01
   0.303E+02 -.302E+02 -.400E+02   -.337E+02 0.334E+02 0.432E+02   0.352E+01 -.335E+01 -.336E+01
 -----------------------------------------------------------------------------------------------
   -.810E-04 -.110E-03 0.340E-04   0.107E-12 0.107E-12 0.853E-13   0.133E-14 -.133E-14 -.888E-15


 POSITION                                       TOTAL-FORCE (eV/Angst)
 -----------------------------------------------------------------------------------
     -1.64279      0.15474      3.34292         0.072948      0.022661     -0.116829
     -0.82775      0.93576      2.55998        -0.070819     -0.099271      0.018169
     -0.40534      0.49190      1.27088         0.021044      0.000288     -0.030942
      0.41565      1.27146      0.44482        -0.034765     -0.083139     -0.024741
      7.58121      5.17874      0.81242         0.017719      0.000866     -0.025465
      6.73746      4.39918      1.65680         0.012887      0.085520      0.084310
      6.33623      4.86912      2.88319         0.067883      0.013869     -0.102779
     -5.57721      0.81156      8.24365        -0.017719     -0.000866      0.025465
      1.58835      4.71884      8.61125         0.034765      0.083139      0.024741
      2.40934      5.49840      7.78519        -0.021044     -0.000288      0.030942
     -4.73346      1.59112      7.39927        -0.012887     -0.085520     -0.084310
      2.83175      5.05454      6.49609         0.070819      0.099271     -0.018169
     -4.33223      1.12118      6.17288        -0.067883     -0.013869      0.102779
      3.64679      5.83556      5.71315        -0.072948     -0.022661      0.116829
     -0.56041      3.14989      5.71315        -0.072949      0.022664      0.116833
      2.56441      2.84041      3.34292         0.072949     -0.022664     -0.116833
     -1.37545      3.93091      6.49609         0.070815     -0.099271     -0.018160
      3.37945      2.05939      2.55998        -0.070815      0.099271      0.018160
     -1.79787      3.48705      7.78519        -0.021034      0.000286      0.030927
      3.80187      2.50325      1.27088         0.021034     -0.000286     -0.030927
     -2.61885      4.26661      8.61126         0.034763     -0.083134      0.024733
      4.62285      1.72369      0.44481        -0.034763      0.083134     -0.024733
     -1.37001      2.18359      8.24365        -0.017717      0.000865      0.025457
      3.37401      3.80671      0.81242         0.017717     -0.000865     -0.025457
     -0.52626      1.40403      7.39927        -0.012882      0.085524     -0.084314
      2.53026      4.58627      1.65680         0.012882     -0.085524      0.084314
     -0.12503      1.87397      6.17288        -0.067879      0.013860      0.102786
      2.12903      4.11633      2.88319         0.067879     -0.013860     -0.102786
     -1.95525      0.51409      4.32354         0.068137     -0.078116     -0.210523
     -0.49437      1.91459      2.90573        -0.068666     -0.203692     -0.073797
      0.74568      2.25281      0.79156        -0.064579     -0.202121     -0.068976
      6.41438      3.41944      1.30782         0.063723      0.204634      0.063063
      5.68509      4.25803      3.51036         0.155046      0.135361     -0.142258
      1.25832      3.73749      8.26451         0.064579      0.202121      0.068976
     -4.41038      2.57086      7.74825        -0.063723     -0.204634     -0.063063
      2.49837      4.07571      6.15034         0.068666      0.203692      0.073797
     -3.68109      1.73227      5.54571        -0.155046     -0.135361      0.142258
      3.95925      5.47621      4.73253        -0.068137      0.078116      0.210523
     -0.24795      3.50924      4.73252        -0.068135     -0.078116      0.210521
      2.25195      2.48106      4.32355         0.068135      0.078116     -0.210521
     -1.70883      4.90974      6.15034         0.068668     -0.203692      0.073796
      3.71283      1.08056      2.90573        -0.068668      0.203692     -0.073796
     -2.94888      5.24796      8.26451         0.064580     -0.202122      0.068977
      4.95288      0.74234      0.79156        -0.064580      0.202122     -0.068977
     -0.20318      0.42429      7.74824        -0.063724      0.204636     -0.063065
      2.20718      5.56601      1.30783         0.063724     -0.204636      0.063065
      0.52611      1.26288      5.54571        -0.155046      0.135363      0.142258
      1.47789      4.72742      3.51036         0.155046     -0.135363     -0.142258
 -----------------------------------------------------------------------------------
    total drift:                               -0.000081     -0.000110      0.000034


--------------------------------------------------------------------------------------------------------



  FREE ENERGIE OF THE ION-ELECTRON SYSTEM (eV)
  ---------------------------------------------------
  free  energy   TOTEN  =      -348.27151478 eV

  energy  without entropy=     -348.27151478  energy(sigma->0) =     -348.27151478



--------------------------------------------------------------------------------------------------------


    POTLOK:  cpu time      0.3862: real time      0.3862


--------------------------------------------------------------------------------------------------------


 stress matrix after NEB project (eV)
      0.00000      0.00000      0.00000
      0.00000      0.00000      0.00000
      0.00000      0.00000      0.00000
  FORCES: max atom, RMS     0.250199    0.169495
  FORCE total and by dimension    1.174294    0.210523
  Stress total and by dimension    0.000000    0.000000
     LOOP+:  cpu time    221.8958: real time    222.3331
    4ORBIT:  cpu time      0.0000: real time      0.0000

 total amount of memory used by VASP MPI-rank0    72714. kBytes
=======================================================================

   base      :      30000. kBytes
   nonl-proj :       4243. kBytes
   fftplans  :       2653. kBytes
   grid      :       5617. kBytes
   one-center:          6. kBytes
   wavefun   :      30195. kBytes

  
  
 General timing and accounting informations for this job:
 ========================================================
  
                  Total CPU time used (sec):      233.757
                            User time (sec):      217.105
                          System time (sec):       16.652
                         Elapsed time (sec):      237.998
  
                   Maximum memory used (kb):      391352.
                   Average memory used (kb):          N/A
  
                          Minor page faults:      1186313
                          Major page faults:         1062
                 Voluntary context switches:         3688
