 vasp.6.4.1 05Apr23 (build Jun  6 2023 14:36:51) complex                         
 executed on        HPECrayEX_GCC date 2024.08.20  14:58:47
 running  256 mpi-ranks, with    1 threads/rank, on    2 nodes
 distrk:  each k-point on  128 cores,    2 groups
 distr:  one band on NCORE=  32 cores,    4 groups


--------------------------------------------------------------------------------------------------------


 INCAR:
   ALGO = Conjugate
   KPAR = 2
   NCORE = 32
   ISMEAR = 0
   SIGMA = 0.01
   PREC = Accurate
   EDIFF = 1E-7
   ENCUT = 1000
   ISIF = 0
   METAGGA = SCAN
   LUSE_VDW = .TRUE.
   BPARAM = 15.7
   LASPH = .TRUE.
   SYMPREC = 1E-7
   NELM = 200
   LWAVE = .FALSE.
   LCHARGE = .FALSE.

 POTCAR:    PAW_PBE C_h 06Feb2004                 
 POTCAR:    PAW_PBE H_h 06Feb2004                 
 -----------------------------------------------------------------------------
|                                                                             |
|               ----> ADVICE to this user running VASP <----                  |
|                                                                             |
|     You have switched on vdW-DFT.                                           |
|     This routine was written and supplied by Jiri Klimes. We recommend      |
|     that you carefully read and cite the following publications:            |
|       J. Klimes, D.R. Bowler, A. Michelides                                 |
|          J. Phys.: Cond Matt. 22 022201 (2010)                              |
|       J. Klimes, D.R. Bowler, A. Michelides                                 |
|          Phys. Rev. B. 83, 195131 (2011)                                    |
|     and references therein.                                                 |
|                                                                             |
 -----------------------------------------------------------------------------

 POTCAR:    PAW_PBE C_h 06Feb2004                 
   VRHFIN =C: s2p2                                                                                  
   LEXCH  = PE                                                                                      
   EATOM  =   147.1560 eV,   10.8157 Ry                                                             
                                                                                                    
   TITEL  = PAW_PBE C_h 06Feb2004                                                                   
   LULTRA =        F    use ultrasoft PP ?                                                          
   IUNSCR =        1    unscreen: 0-lin 1-nonlin 2-no                                               
   RPACOR =    0.800    partial core radius                                                         
   POMASS =   12.011; ZVAL   =    4.000    mass and valenz                                          
   RCORE  =    1.100    outmost cutoff radius                                                       
   RWIGS  =    1.630; RWIGS  =    0.863    wigner-seitz radius (au A)                               
   ENMAX  =  700.000; ENMIN  =  500.000 eV                                                          
   ICORE  =        2    local potential                                                             
   LCOR   =        T    correct aug charges                                                         
   LPAW   =        T    paw PP                                                                      
   EAUG   =  946.768                                                                                
   DEXC   =    0.000                                                                                
   RMAX   =    1.128    core radius for proj-oper                                                   
   RAUG   =    1.300    factor for augmentation sphere                                              
   RDEP   =    1.162    radius for radial grids                                                     
   RDEPT  =    1.088    core radius for aug-charge                                                  
                                                                                                    
   Atomic configuration                                                                             
    4 entries                                                                                       
     n  l   j            E        occ.                                                              
     1  0  0.50      -273.3789   2.0000                                                             
     2  0  0.50       -13.7508   2.0000                                                             
     2  1  0.50        -5.2854   2.0000                                                             
     3  2  1.50        -5.4423   0.0000                                                             
   Description                                                                                      
     l       E           TYP  RCUT    TYP  RCUT                                                     
     0    -13.7508458     23  1.100                                                                 
     0     -8.2022199     23  1.100                                                                 
     1     -5.2854383     23  1.100                                                                 
     1      1.1560700     23  1.100                                                                 
     2     -5.4423304      7  1.100                                                                 
  local pseudopotential read in
  partial core-charges read in
  partial kinetic energy density read in
  atomic valenz-charges read in
  non local Contribution for L=           0  read in
    real space projection operators read in
  non local Contribution for L=           0  read in
    real space projection operators read in
  non local Contribution for L=           1  read in
    real space projection operators read in
  non local Contribution for L=           1  read in
    real space projection operators read in
    PAW grid and wavefunctions read in

   number of l-projection  operators is LMAX  =           4
   number of lm-projection operators is LMMAX =           8

 POTCAR:    PAW_PBE H_h 06Feb2004                 
   VRHFIN =H: ultrasoft test                                                                        
   LEXCH  = PE                                                                                      
   EATOM  =    12.4884 eV,    0.9179 Ry                                                             
                                                                                                    
   TITEL  = PAW_PBE H_h 06Feb2004                                                                   
   LULTRA =        F    use ultrasoft PP ?                                                          
   IUNSCR =        0    unscreen: 0-lin 1-nonlin 2-no                                               
   RPACOR =    0.000    partial core radius                                                         
   POMASS =    1.000; ZVAL   =    1.000    mass and valenz                                          
   RCORE  =    0.800    outmost cutoff radius                                                       
   RWIGS  =    0.700; RWIGS  =    0.370    wigner-seitz radius (au A)                               
   ENMAX  =  700.000; ENMIN  =  350.000 eV                                                          
   RCLOC  =    0.701    cutoff for local pot                                                        
   LCOR   =        T    correct aug charges                                                         
   LPAW   =        T    paw PP                                                                      
   EAUG   = 1000.000                                                                                
   RMAX   =    0.819    core radius for proj-oper                                                   
   RAUG   =    1.000    factor for augmentation sphere                                              
   RDEP   =    0.817    radius for radial grids                                                     
   RDEPT  =    0.817    core radius for aug-charge                                                  
                                                                                                    
   Atomic configuration                                                                             
    2 entries                                                                                       
     n  l   j            E        occ.                                                              
     1  0  0.50        -6.4927   1.0000                                                             
     2  1  0.50        -3.4015   0.0000                                                             
   Description                                                                                      
     l       E           TYP  RCUT    TYP  RCUT                                                     
     0     -6.4927493     23  0.800                                                                 
     0      6.8029130     23  0.800                                                                 
     1     -6.8029130     23  0.800                                                                 
  local pseudopotential read in
  atomic valenz-charges read in
  non local Contribution for L=           0  read in
    real space projection operators read in
  non local Contribution for L=           0  read in
    real space projection operators read in
  non local Contribution for L=           1  read in
    real space projection operators read in
    PAW grid and wavefunctions read in

   number of l-projection  operators is LMAX  =           3
   number of lm-projection operators is LMMAX =           5

 -----------------------------------------------------------------------------
|                                                                             |
|               ----> ADVICE to this user running VASP <----                  |
|                                                                             |
|     You have a (more or less) 'large supercell' and for larger cells it     |
|     might be more efficient to use real-space projection operators.         |
|     Therefore, try LREAL= Auto in the INCAR file.                           |
|     Mind: For very accurate calculation, you might also keep the            |
|     reciprocal projection scheme (i.e. LREAL=.FALSE.).                      |
|                                                                             |
 -----------------------------------------------------------------------------

  PAW_PBE C_h 06Feb2004                 :
 energy of atom  1       EATOM= -147.1560
 kinetic energy error for atom=    0.0031 (will be added to EATOM!!)
  PAW_PBE H_h 06Feb2004                 :
 energy of atom  2       EATOM=  -12.4884
 kinetic energy error for atom=    0.0006 (will be added to EATOM!!)


 POSCAR:  C  H
  positions in cartesian coordinates
  No initial velocities read in

 METAGGA = SCAN                                        LMAXTAU =  6    LMIXTAU =  F

 exchange correlation table for  LEXCH =        8
   RHO(1)=    0.500       N(1)  =     2000
   RHO(2)=  100.500       N(2)  =     4000

 VTST: version 4.1, (05/19/21)

 CHAIN: initializing optimizer
 
 OPT: Using VASP Dynamics algorithm
 CHAIN: Read ICHAIN            0

 POSCAR:  C  H
  positions in cartesian coordinates
  No initial velocities read in



--------------------------------------------------------------------------------------------------------


 ion  position               nearest neighbor table
   1  0.086  0.026  0.369-  29 1.09   2 1.37   7 1.42
   2  0.117  0.156  0.283-  30 1.09   1 1.37   3 1.43
   3  0.059  0.082  0.140-   4 1.40   2 1.43   5 1.45
   4  0.087  0.212  0.049-  31 1.09   3 1.40   8 1.40
   5  0.969  0.865  0.090-   9 1.40   6 1.43   3 1.45
   6  0.940  0.734  0.183-  32 1.09   7 1.37   5 1.43
   7  0.996  0.813  0.318-  33 1.09   6 1.37   1 1.42
   8  0.031  0.135  0.910-   4 1.40  11 1.43  10 1.45
   9  0.913  0.788  0.951-  34 1.09  10 1.40   5 1.40
  10  0.941  0.918  0.860-   9 1.40  12 1.43   8 1.45
  11  0.060  0.266  0.817-  35 1.09  13 1.37   8 1.43
  12  0.883  0.844  0.717-  36 1.09  14 1.37  10 1.43
  13  0.004  0.187  0.682-  37 1.09  11 1.37  14 1.42
  14  0.914  0.974  0.631-  38 1.09  12 1.37  13 1.42
  15  0.414  0.526  0.631-  39 1.09  17 1.37  27 1.42
  16  0.586  0.474  0.369-  40 1.09  18 1.37  28 1.42
  17  0.383  0.656  0.717-  41 1.09  15 1.37  19 1.43
  18  0.617  0.344  0.283-  42 1.09  16 1.37  20 1.43
  19  0.441  0.582  0.860-  21 1.40  17 1.43  23 1.45
  20  0.559  0.418  0.140-  22 1.40  18 1.43  24 1.45
  21  0.413  0.712  0.951-  43 1.09  19 1.40  24 1.40
  22  0.587  0.288  0.049-  44 1.09  20 1.40  23 1.40
  23  0.531  0.365  0.910-  22 1.40  25 1.43  19 1.45
  24  0.469  0.635  0.090-  21 1.40  26 1.43  20 1.45
  25  0.560  0.234  0.817-  45 1.09  27 1.37  23 1.43
  26  0.440  0.766  0.183-  46 1.09  28 1.37  24 1.43
  27  0.504  0.313  0.682-  47 1.09  25 1.37  15 1.42
  28  0.496  0.687  0.318-  48 1.09  26 1.37  16 1.42
  29  0.131  0.086  0.477-   1 1.09
  30  0.186  0.320  0.321-   2 1.09
  31  0.155  0.376  0.087-   4 1.09
  32  0.872  0.571  0.144-   6 1.09
  33  0.971  0.711  0.388-   7 1.09
  34  0.845  0.624  0.913-   9 1.09
  35  0.128  0.429  0.856-  11 1.09
  36  0.814  0.680  0.679-  12 1.09
  37  0.029  0.289  0.612-  13 1.09
  38  0.869  0.914  0.523-  14 1.09
  39  0.369  0.586  0.523-  15 1.09
  40  0.631  0.414  0.477-  16 1.09
  41  0.314  0.820  0.679-  17 1.09
  42  0.686  0.180  0.321-  18 1.09
  43  0.345  0.876  0.913-  21 1.09
  44  0.655  0.124  0.087-  22 1.09
  45  0.628  0.071  0.856-  25 1.09
  46  0.372  0.929  0.144-  26 1.09
  47  0.529  0.211  0.612-  27 1.09
  48  0.471  0.789  0.388-  28 1.09

  LATTYP: Found a simple monoclinic cell.
 ALAT       =     8.4144000000
 B/A-ratio  =     0.7119105343
 C/A-ratio  =     1.1022949544
 COS(beta)  =    -0.2160611803
  
  Lattice vectors:
  
 A1 = (   8.4144000000,   0.0000000000,   0.0000000000)
 A2 = (   0.0000000000,  -5.9903000000,   0.0000000000)
 A3 = (  -2.0040000000,   0.0000000000,  -9.0560700000)


Analysis of symmetry for initial positions (statically):
=====================================================================
 Subroutine PRICEL returns:
 Original cell was already a primitive cell.
 

 Routine SETGRP: Setting up the symmetry group for a 
 simple monoclinic supercell.


 Subroutine GETGRP returns: Found  2 space group operations
 (whereof  2 operations were pure point group operations)
 out of a pool of  4 trial point group operations.


The static configuration has the point symmetry S_2 .


Analysis of symmetry for dynamics (positions and initial velocities):
=====================================================================
 Subroutine PRICEL returns:
 Original cell was already a primitive cell.
 

 Routine SETGRP: Setting up the symmetry group for a 
 simple monoclinic supercell.


 Subroutine GETGRP returns: Found  2 space group operations
 (whereof  2 operations were pure point group operations)
 out of a pool of  4 trial point group operations.


The dynamic configuration has the point symmetry S_2 .


 Subroutine INISYM returns: Found  2 space group operations
 (whereof  2 operations are pure point group operations),
 and found     1 'primitive' translations


----------------------------------------------------------------------------------------

                                     Primitive cell                                     

  volume of cell :     456.4692

  direct lattice vectors                    reciprocal lattice vectors
     8.414400000  0.000000000  0.000000000     0.118843887 -0.000000000  0.084124444
     0.000000000  5.990300000  0.000000000     0.000000000  0.166936547 -0.000000000
    -6.410400000  0.000000000  9.056070000     0.000000000  0.000000000  0.110423175

  length of vectors
     8.414400000  5.990300000 11.095297743     0.145604916  0.166936547  0.110423175

  position of ions in fractional coordinates (direct lattice)
     0.085985825  0.025831008  0.369135377
     0.116983673  0.156213237  0.282680610
     0.058740714  0.082116548  0.140334910
     0.086817321  0.212252419  0.049117938
     0.969324431  0.864520228  0.089710104
     0.940083220  0.734384005  0.182949592
     0.995568798  0.812833494  0.318370592
     0.030675569  0.135479773  0.910289893
     0.913182679  0.787747581  0.950882060
     0.941259285  0.917883452  0.859665087
     0.059916780  0.265615996  0.817050406
     0.883016326  0.843786763  0.717319388
     0.004431202  0.187166506  0.681629406
     0.914014175  0.974168992  0.630864622
     0.414014116  0.525831123  0.630864594
     0.585985884  0.474168881  0.369135405
     0.383016340  0.656213351  0.717319404
     0.616983660  0.343786655  0.282680596
     0.441259308  0.582116642  0.859665128
     0.558740693  0.417883364  0.140334872
     0.413182742  0.712252453  0.950882127
     0.586817259  0.287747553  0.049117873
     0.530675547  0.364520288  0.910289874
     0.469324455  0.635479718  0.089710126
     0.559916680  0.234384050  0.817050346
     0.440083320  0.765615955  0.182949653
     0.504431080  0.312833593  0.681629338
     0.495568920  0.687166411  0.318370662
     0.131346097  0.085819810  0.477419552
     0.185689727  0.319615595  0.320859639
     0.155208983  0.376076425  0.087406183
     0.872329652  0.570829256  0.144414156
     0.970945402  0.710820674  0.387625168
     0.844791016  0.623923576  0.912593814
     0.127670348  0.429170745  0.855585842
     0.814310272  0.680384405  0.679140359
     0.029054599  0.289179325  0.612374830
     0.868653904  0.914180190  0.522580447
     0.368653816  0.585819962  0.522580425
     0.631346184  0.414180041  0.477419574
     0.314310287  0.819615716  0.679140415
     0.685689715  0.180384289  0.320859584
     0.344791067  0.876076468  0.912593904
     0.655208934  0.123923537  0.087406096
     0.627670264  0.070829297  0.855585791
     0.372329736  0.929170708  0.144414209
     0.529054471  0.210820752  0.612374761
     0.470945528  0.789179252  0.387625238

  ion indices of the primitive-cell ions
   primitive index   ion index
                 1           1
                 2           2
                 3           3
                 4           4
                 5           5
                 6           6
                 7           7
                 8           8
                 9           9
                10          10
                11          11
                12          12
                13          13
                14          14
                15          15
                16          16
                17          17
                18          18
                19          19
                20          20
                21          21
                22          22
                23          23
                24          24
                25          25
                26          26
                27          27
                28          28
                29          29
                30          30
                31          31
                32          32
                33          33
                34          34
                35          35
                36          36
                37          37
                38          38
                39          39
                40          40
                41          41
                42          42
                43          43
                44          44
                45          45
                46          46
                47          47
                48          48

----------------------------------------------------------------------------------------



 KPOINTS: auto                                    

Automatic generation of k-mesh.
 Grid dimensions read from file:
 generate k-points for:    4    4    3

 Generating k-lattice:

  Cartesian coordinates                     Fractional coordinates (reciprocal lattice)
     0.029710972 -0.000000000  0.021031111     0.250000000  0.000000000 -0.000000000
     0.000000000  0.041734137 -0.000000000     0.000000000  0.250000000  0.000000000
     0.000000000  0.000000000  0.036807725     0.000000000  0.000000000  0.333333333

  Length of vectors
     0.036401229  0.041734137  0.036807725

  Shift w.r.t. Gamma in fractional coordinates (k-lattice)
     0.000000000  0.000000000  0.000000000

 
 Subroutine IBZKPT returns following result:
 ===========================================
 
 Found     26 irreducible k-points:
 
 Following reciprocal coordinates:
            Coordinates               Weight
  0.000000  0.000000  0.000000      1.000000
  0.250000  0.000000  0.000000      2.000000
  0.500000  0.000000  0.000000      1.000000
  0.000000  0.250000  0.000000      2.000000
  0.250000  0.250000  0.000000      2.000000
 -0.250000  0.250000  0.000000      2.000000
  0.500000  0.250000  0.000000      2.000000
  0.000000  0.500000  0.000000      1.000000
  0.250000  0.500000  0.000000      2.000000
  0.500000  0.500000  0.000000      1.000000
  0.000000  0.000000  0.333333      2.000000
  0.250000  0.000000  0.333333      2.000000
  0.500000  0.000000  0.333333      2.000000
 -0.250000  0.000000  0.333333      2.000000
  0.000000  0.250000  0.333333      2.000000
  0.000000  0.250000 -0.333333      2.000000
  0.250000  0.250000  0.333333      2.000000
 -0.250000  0.250000 -0.333333      2.000000
  0.500000  0.250000  0.333333      2.000000
  0.500000  0.250000 -0.333333      2.000000
 -0.250000  0.250000  0.333333      2.000000
  0.250000  0.250000 -0.333333      2.000000
  0.000000  0.500000  0.333333      2.000000
  0.250000  0.500000  0.333333      2.000000
  0.500000  0.500000  0.333333      2.000000
 -0.250000  0.500000  0.333333      2.000000
 
 Following cartesian coordinates:
            Coordinates               Weight
  0.000000  0.000000  0.000000      1.000000
  0.029711  0.000000  0.021031      2.000000
  0.059422  0.000000  0.042062      1.000000
  0.000000  0.041734  0.000000      2.000000
  0.029711  0.041734  0.021031      2.000000
 -0.029711  0.041734 -0.021031      2.000000
  0.059422  0.041734  0.042062      2.000000
  0.000000  0.083468  0.000000      1.000000
  0.029711  0.083468  0.021031      2.000000
  0.059422  0.083468  0.042062      1.000000
  0.000000  0.000000  0.036808      2.000000
  0.029711  0.000000  0.057839      2.000000
  0.059422  0.000000  0.078870      2.000000
 -0.029711  0.000000  0.015777      2.000000
  0.000000  0.041734  0.036808      2.000000
  0.000000  0.041734 -0.036808      2.000000
  0.029711  0.041734  0.057839      2.000000
 -0.029711  0.041734 -0.057839      2.000000
  0.059422  0.041734  0.078870      2.000000
  0.059422  0.041734  0.005254      2.000000
 -0.029711  0.041734  0.015777      2.000000
  0.029711  0.041734 -0.015777      2.000000
  0.000000  0.083468  0.036808      2.000000
  0.029711  0.083468  0.057839      2.000000
  0.059422  0.083468  0.078870      2.000000
 -0.029711  0.083468  0.015777      2.000000
 


--------------------------------------------------------------------------------------------------------




 Dimension of arrays:
   k-points           NKPTS =     26   k-points in BZ     NKDIM =     26   number of bands    NBANDS=     92
   number of dos      NEDOS =    301   number of ions     NIONS =     48
   non local maximal  LDIM  =      4   non local SUM 2l+1 LMDIM =      8
   total plane-waves  NPLWV = 691200
   max r-space proj   IRMAX =      1   max aug-charges    IRDMAX=  10243
   dimension x,y,z NGX =    90 NGY =   64 NGZ =  120
   dimension x,y,z NGXF=   180 NGYF=  128 NGZF=  240
   support grid    NGXF=   180 NGYF=  128 NGZF=  240
   ions per type =              28  20
   NGX,Y,Z   is equivalent  to a cutoff of  17.78, 17.76, 17.98 a.u.
   NGXF,Y,Z  is equivalent  to a cutoff of  35.56, 35.52, 35.96 a.u.

 SYSTEM =  unknown system                          
 POSCAR =   C  H                                   

 Startparameter for this run:
   NWRITE =      2    write-flag & timer
   PREC   = accura    normal or accurate (medium, high low for compatibility)
   ISTART =      0    job   : 0-new  1-cont  2-samecut
   ICHARG =      2    charge: 1-file 2-atom 10-const
   ISPIN  =      1    spin polarized calculation?
   LNONCOLLINEAR =      F non collinear calculations
   LSORBIT =      F    spin-orbit coupling
   INIWAV =      1    electr: 0-lowe 1-rand  2-diag
   LASPH  =      T    aspherical Exc in radial PAW
 Electronic Relaxation 1
   ENCUT  = 1000.0 eV  73.50 Ry    8.57 a.u.  21.70 15.45 28.61*2*pi/ulx,y,z
   ENINI  = 1000.0     initial cutoff
   ENAUG  = 1000.0 eV  augmentation charge cutoff
   NELM   =    200;   NELMIN=  2; NELMDL= -5     # of ELM steps 
   EDIFF  = 0.1E-06   stopping-criterion for ELM
   LREAL  =      F    real-space projection
   NLSPLINE    = F    spline interpolate recip. space projectors
   LCOMPAT=      F    compatible to vasp.4.4
   GGA_COMPAT  = T    GGA compatible to vasp.4.4-vasp.4.6
   LMAXPAW     = -100 max onsite density
   LMAXMIX     =    2 max onsite mixed and CHGCAR
   VOSKOWN=      0    Vosko Wilk Nusair interpolation
   ROPT   =    0.00000   0.00000
 Ionic relaxation
   EDIFFG = 0.1E-05   stopping-criterion for IOM
   NSW    =      0    number of steps for IOM
   NBLOCK =      1;   KBLOCK =      1    inner block; outer block 
   IBRION =     -1    ionic relax: 0-MD 1-quasi-New 2-CG
   NFREE  =      0    steps in history (QN), initial steepest desc. (CG)
   ISIF   =      0    stress and relaxation
   IWAVPR =     10    prediction:  0-non 1-charg 2-wave 3-comb
   ISYM   =      2    0-nonsym 1-usesym 2-fastsym
   LCORR  =      T    Harris-Foulkes like correction to forces

   POTIM  = 0.5000    time-step for ionic-motion
   TEIN   =    0.0    initial temperature
   TEBEG  =    0.0;   TEEND  =   0.0 temperature during run
   SMASS  =  -3.00    Nose mass-parameter (am)
   estimated Nose-frequenzy (Omega)   =  0.10E-29 period in steps = 0.13E+47 mass=  -0.162E-26a.u.
   SCALEE = 1.0000    scale energy and forces
   NPACO  =    256;   APACO  = 10.0  distance and # of slots for P.C.
   PSTRESS=    0.0 pullay stress

  Mass of Ions in am
   POMASS =  12.01  1.00
  Ionic Valenz
   ZVAL   =   4.00  1.00
  Atomic Wigner-Seitz radii
   RWIGS  =  -1.00 -1.00
  virtual crystal weights 
   VCA    =   1.00  1.00
   NELECT =     132.0000    total number of electrons
   NUPDOWN=      -1.0000    fix difference up-down

 DOS related values:
   EMIN   =  10.00;   EMAX   =-10.00  energy-range for DOS
   EFERMI =   0.00;   METHOD = LEGACY      
   ISMEAR =     0;   SIGMA  =   0.01  broadening in eV -4-tet -1-fermi 0-gaus

 Electronic relaxation 2 (details)
   IALGO  =     58    algorithm
   LDIAG  =      T    sub-space diagonalisation (order eigenvalues)
   LSUBROT=      F    optimize rotation matrix (better conditioning)
   TURBO    =      0    0=normal 1=particle mesh
   IRESTART =      0    0=no restart 2=restart with 2 vectors
   NREBOOT  =      0    no. of reboots
   NMIN     =      0    reboot dimension
   EREF     =   0.00    reference energy to select bands
   IMIX   =      4    mixing-type and parameters
     AMIX     =   0.40;   BMIX     =  1.00
     AMIX_MAG =   1.60;   BMIX_MAG =  1.00
     AMIN     =   0.10
     WC   =   100.;   INIMIX=   1;  MIXPRE=   1;  MAXMIX= -45

 Intra band minimization:
   WEIMIN = 0.0000     energy-eigenvalue tresh-hold
   EBREAK =  0.27E-09  absolut break condition
   DEPER  =   0.30     relativ break condition  

   TIME   =   0.40     timestep for ELM

  volume/ion in A,a.u.               =       9.51        64.18
  Fermi-wavevector in a.u.,A,eV,Ry     =   1.082586  2.045790 15.945918  1.171992
  Thomas-Fermi vector in A             =   2.218631

 Write flags
   LWAVE        =      F    write WAVECAR
   LDOWNSAMPLE  =      F    k-point downsampling of WAVECAR
   LCHARG       =      T    write CHGCAR
   LVTOT        =      F    write LOCPOT, total local potential
   LVHAR        =      F    write LOCPOT, Hartree potential only
   LELF         =      F    write electronic localiz. function (ELF)
   LORBIT       =      0    0 simple, 1 ext, 2 COOP (PROOUT), +10 PAW based schemes


 Dipole corrections
   LMONO  =      F    monopole corrections only (constant potential shift)
   LDIPOL =      F    correct potential (dipole corrections)
   IDIPOL =      0    1-x, 2-y, 3-z, 4-all directions 
   EPSILON=  1.0000000 bulk dielectric constant

 Exchange correlation treatment:
   GGA     =    --    GGA type
   LEXCH   =     8    internal setting for exchange type
   LIBXC   =     F    Libxc                    
   VOSKOWN =     0    Vosko Wilk Nusair interpolation
   LHFCALC =     F    Hartree Fock is set to
   LHFONE  =     F    Hartree Fock one center treatment
   AEXX    =    0.0000 exact exchange contribution

 vdW DFT:
   LUSE_VDW   =     T    switch on vdW DFT
   IVDW_NL    =     2    kernel type
   LSPIN_VDW  =     F    use spin-polarized vdW DFT
   Zab_VDW    =-.8491    correlation parameter
   PARAM1     =0.1234
   PARAM2     =1.0000
   PARAM3     =0.0000
   -- rVV10 --
   BPARAM     =15.7000
   CPARAM     = 0.0093

 Linear response parameters
   LEPSILON=     F    determine dielectric tensor
   LRPA    =     F    only Hartree local field effects (RPA)
   LNABLA  =     F    use nabla operator in PAW spheres
   LVEL    =     F    velocity operator in full k-point grid
   CSHIFT  =0.1000    complex shift for real part using Kramers Kronig
   OMEGAMAX=  -1.0    maximum frequency
   DEG_THRESHOLD= 0.2000000E-02 threshold for treating states as degnerate
   RTIME   =   -0.100 relaxation time in fs
  (WPLASMAI=    0.000 imaginary part of plasma frequency in eV, 0.658/RTIME)
   DFIELD  = 0.0000000 0.0000000 0.0000000 field for delta impulse in time

  Optional k-point grid parameters
   LKPOINTS_OPT  =     F    use optional k-point grid
   KPOINTS_OPT_MODE=     1    mode for optional k-point grid

 Orbital magnetization related:
   ORBITALMAG=     F  switch on orbital magnetization
   LCHIMAG   =     F  perturbation theory with respect to B field
   DQ        =  0.001000  dq finite difference perturbation B field
   LLRAUG    =     F  two centre corrections for induced B field
   LBONE     =     F  B-component reconstruction in AE one-centre
   LVGVCALC  =     T  calculate vGv susceptibility
   LVGVAPPL  =     F  apply vGv susceptibility instead of pGv for G=0

 Random number generation:
   RANDOM_GENERATOR = DEFAULT
   PCG_SEED         = not used


--------------------------------------------------------------------------------------------------------


 Static calculation
 charge density and potential will be updated during run
 non-spin polarized calculation
 Conjugate gradient for all bands (Freysoldt, et al. PRB 79, 241103 (2009))
 preconditioned conjugated gradient                                        
 perform sub-space diagonalisation
    before iterative eigenvector-optimisation
 modified Broyden-mixing scheme, WC =      100.0
 initial mixing is a Kerker type mixing with AMIX =  0.4000 and BMIX =      1.0000
 Hartree-type preconditioning will be used
 using additional bands           26
 reciprocal scheme for non local part
 use partial core corrections
 no Harris-corrections to forces 
 use gradient corrections 
 use of overlap-Matrix (Vanderbilt PP)
 Gauss-broadening in eV      SIGMA  =   0.01


--------------------------------------------------------------------------------------------------------


  energy-cutoff  :     1000.00
  volume of cell :      456.47
      direct lattice vectors                 reciprocal lattice vectors
     8.414400000  0.000000000  0.000000000     0.118843887 -0.000000000  0.084124444
     0.000000000  5.990300000  0.000000000     0.000000000  0.166936547 -0.000000000
    -6.410400000  0.000000000  9.056070000     0.000000000  0.000000000  0.110423175

  length of vectors
     8.414400000  5.990300000 11.095297743     0.145604916  0.166936547  0.110423175



 k-points in units of 2pi/SCALE and weight: auto                                    
   0.00000000  0.00000000  0.00000000       0.021
   0.02971097  0.00000000  0.02103111       0.042
   0.05942194  0.00000000  0.04206222       0.021
   0.00000000  0.04173414  0.00000000       0.042
   0.02971097  0.04173414  0.02103111       0.042
  -0.02971097  0.04173414 -0.02103111       0.042
   0.05942194  0.04173414  0.04206222       0.042
   0.00000000  0.08346827  0.00000000       0.021
   0.02971097  0.08346827  0.02103111       0.042
   0.05942194  0.08346827  0.04206222       0.021
   0.00000000  0.00000000  0.03680772       0.042
   0.02971097  0.00000000  0.05783884       0.042
   0.05942194  0.00000000  0.07886995       0.042
  -0.02971097  0.00000000  0.01577661       0.042
   0.00000000  0.04173414  0.03680772       0.042
   0.00000000  0.04173414 -0.03680772       0.042
   0.02971097  0.04173414  0.05783884       0.042
  -0.02971097  0.04173414 -0.05783884       0.042
   0.05942194  0.04173414  0.07886995       0.042
   0.05942194  0.04173414  0.00525450       0.042
  -0.02971097  0.04173414  0.01577661       0.042
   0.02971097  0.04173414 -0.01577661       0.042
   0.00000000  0.08346827  0.03680772       0.042
   0.02971097  0.08346827  0.05783884       0.042
   0.05942194  0.08346827  0.07886995       0.042
  -0.02971097  0.08346827  0.01577661       0.042

 k-points in reciprocal lattice and weights: auto                                    
   0.00000000  0.00000000  0.00000000       0.021
   0.25000000  0.00000000  0.00000000       0.042
   0.50000000  0.00000000  0.00000000       0.021
   0.00000000  0.25000000  0.00000000       0.042
   0.25000000  0.25000000  0.00000000       0.042
  -0.25000000  0.25000000  0.00000000       0.042
   0.50000000  0.25000000  0.00000000       0.042
   0.00000000  0.50000000  0.00000000       0.021
   0.25000000  0.50000000  0.00000000       0.042
   0.50000000  0.50000000  0.00000000       0.021
   0.00000000  0.00000000  0.33333333       0.042
   0.25000000  0.00000000  0.33333333       0.042
   0.50000000  0.00000000  0.33333333       0.042
  -0.25000000  0.00000000  0.33333333       0.042
   0.00000000  0.25000000  0.33333333       0.042
   0.00000000  0.25000000 -0.33333333       0.042
   0.25000000  0.25000000  0.33333333       0.042
  -0.25000000  0.25000000 -0.33333333       0.042
   0.50000000  0.25000000  0.33333333       0.042
   0.50000000  0.25000000 -0.33333333       0.042
  -0.25000000  0.25000000  0.33333333       0.042
   0.25000000  0.25000000 -0.33333333       0.042
   0.00000000  0.50000000  0.33333333       0.042
   0.25000000  0.50000000  0.33333333       0.042
   0.50000000  0.50000000  0.33333333       0.042
  -0.25000000  0.50000000  0.33333333       0.042

 position of ions in fractional coordinates (direct lattice) 
   0.08598583  0.02583101  0.36913538
   0.11698367  0.15621324  0.28268061
   0.05874071  0.08211655  0.14033491
   0.08681732  0.21225242  0.04911794
   0.96932443  0.86452023  0.08971010
   0.94008322  0.73438401  0.18294959
   0.99556880  0.81283349  0.31837059
   0.03067557  0.13547977  0.91028989
   0.91318268  0.78774758  0.95088206
   0.94125929  0.91788345  0.85966509
   0.05991678  0.26561600  0.81705041
   0.88301633  0.84378676  0.71731939
   0.00443120  0.18716651  0.68162941
   0.91401417  0.97416899  0.63086462
   0.41401412  0.52583112  0.63086459
   0.58598588  0.47416888  0.36913540
   0.38301634  0.65621335  0.71731940
   0.61698366  0.34378665  0.28268060
   0.44125931  0.58211664  0.85966513
   0.55874069  0.41788336  0.14033487
   0.41318274  0.71225245  0.95088213
   0.58681726  0.28774755  0.04911787
   0.53067555  0.36452029  0.91028987
   0.46932445  0.63547972  0.08971013
   0.55991668  0.23438405  0.81705035
   0.44008332  0.76561596  0.18294965
   0.50443108  0.31283359  0.68162934
   0.49556892  0.68716641  0.31837066
   0.13134610  0.08581981  0.47741955
   0.18568973  0.31961560  0.32085964
   0.15520898  0.37607642  0.08740618
   0.87232965  0.57082926  0.14441416
   0.97094540  0.71082067  0.38762517
   0.84479102  0.62392358  0.91259381
   0.12767035  0.42917074  0.85558584
   0.81431027  0.68038441  0.67914036
   0.02905460  0.28917933  0.61237483
   0.86865390  0.91418019  0.52258045
   0.36865382  0.58581996  0.52258043
   0.63134618  0.41418004  0.47741957
   0.31431029  0.81961572  0.67914042
   0.68568971  0.18038429  0.32085958
   0.34479107  0.87607647  0.91259390
   0.65520893  0.12392354  0.08740610
   0.62767026  0.07082930  0.85558579
   0.37232974  0.92917071  0.14441421
   0.52905447  0.21082075  0.61237476
   0.47094553  0.78917925  0.38762524

 position of ions in cartesian coordinates  (Angst):
  -1.64278629  0.15473549  3.34291581
  -0.82774836  0.93576416  2.55997539
  -0.40533504  0.49190276  1.27088277
   0.41565004  1.27145567  0.44481548
   7.58120584  5.17873552  0.81242098
   6.73745618  4.39918051  1.65680431
   6.33623125  4.86911648  2.88318636
  -5.57720583  0.81156448  8.24364899
   1.58834997  4.71884433  8.61125450
   2.40933505  5.49839724  7.78518721
  -4.73345617  1.59111950  7.39926567
   2.83174837  5.05453585  6.49609459
  -4.33223124  1.12118352  6.17288362
   3.64678630  5.83556451  5.71315417
  -0.56041402  3.14988618  5.71315393
   2.56441402  2.84041385  3.34291606
  -1.37545161  3.93091483  6.49609473
   3.37945162  2.05938520  2.55997526
  -1.79786502  3.48705332  7.78518757
   3.80186503  2.50324672  1.27088242
  -2.61884992  4.26660587  8.61125510
   4.62284993  1.72369417  0.44481490
  -1.37000589  2.18358588  8.24364882
   3.37400590  3.80671415  0.81242118
  -0.52625663  1.40403077  7.39926513
   2.53025663  4.58626926  1.65680486
  -0.12503183  1.87396707  6.17288300
   2.12903183  4.11633295  2.88318700
  -1.95525169  0.51408641  4.32354488
  -0.49437099  1.91459330  2.90572735
   0.74568187  2.25281061  0.79155651
   6.41437812  3.41943849  1.30782470
   5.68509061  4.25802909  3.51036065
   1.25831814  3.73748940  8.26451346
  -4.41037811  2.57086151  7.74824528
   2.49837100  4.07570670  6.15034263
  -3.68109059  1.73227091  5.54570933
   3.95925171  5.47621359  4.73252511
  -0.24794889  3.50923732  4.73252491
   2.25194889  2.48106270  4.32354508
  -1.70882924  4.90974402  6.15034314
   3.71282925  1.08055601  2.90572686
  -2.94888200  5.24796087  8.26451427
   4.95288201  0.74233917  0.79155573
  -0.20317849  0.42428874  7.74824482
   2.20717849  5.56601129  1.30782518
   0.52610877  1.26287955  5.54570871
   1.47789123  4.72742047  3.51036129



--------------------------------------------------------------------------------------------------------


 k-point   1 :   0.0000 0.0000 0.0000  plane waves:   32823
 k-point   2 :   0.2500 0.0000 0.0000  plane waves:   32793
 k-point   3 :   0.5000 0.0000 0.0000  plane waves:   32784
 k-point   4 :   0.0000 0.2500 0.0000  plane waves:   32811
 k-point   5 :   0.2500 0.2500 0.0000  plane waves:   32791
 k-point   6 :  -0.2500 0.2500 0.0000  plane waves:   32791
 k-point   7 :   0.5000 0.2500 0.0000  plane waves:   32816
 k-point   8 :   0.0000 0.5000 0.0000  plane waves:   32698
 k-point   9 :   0.2500 0.5000 0.0000  plane waves:   32730
 k-point  10 :   0.5000 0.5000 0.0000  plane waves:   32776
 k-point  11 :   0.0000 0.0000 0.3333  plane waves:   32812
 k-point  12 :   0.2500 0.0000 0.3333  plane waves:   32792
 k-point  13 :   0.5000 0.0000 0.3333  plane waves:   32781
 k-point  14 :  -0.2500 0.0000 0.3333  plane waves:   32791
 k-point  15 :   0.0000 0.2500 0.3333  plane waves:   32794
 k-point  16 :   0.0000 0.2500-0.3333  plane waves:   32794
 k-point  17 :   0.2500 0.2500 0.3333  plane waves:   32791
 k-point  18 :  -0.2500 0.2500-0.3333  plane waves:   32791
 k-point  19 :   0.5000 0.2500 0.3333  plane waves:   32765
 k-point  20 :   0.5000 0.2500-0.3333  plane waves:   32765
 k-point  21 :  -0.2500 0.2500 0.3333  plane waves:   32781
 k-point  22 :   0.2500 0.2500-0.3333  plane waves:   32781
 k-point  23 :   0.0000 0.5000 0.3333  plane waves:   32782
 k-point  24 :   0.2500 0.5000 0.3333  plane waves:   32776
 k-point  25 :   0.5000 0.5000 0.3333  plane waves:   32758
 k-point  26 :  -0.2500 0.5000 0.3333  plane waves:   32732

 maximum and minimum number of plane-waves per node :      1054     1001

 maximum number of plane-waves:     32823
 maximum index in each direction: 
   IXMAX=   21   IYMAX=   15   IZMAX=   28
   IXMIN=  -22   IYMIN=  -15   IZMIN=  -28


 parallel 3D FFT for wavefunctions:
    minimum data exchange during FFTs selected (reduces bandwidth)
 parallel 3D FFT for charge:
    minimum data exchange during FFTs selected (reduces bandwidth)


 total amount of memory used by VASP MPI-rank0    72714. kBytes
=======================================================================

   base      :      30000. kBytes
   nonl-proj :       4243. kBytes
   fftplans  :       2653. kBytes
   grid      :       5617. kBytes
   one-center:          6. kBytes
   wavefun   :      30195. kBytes

     INWAV:  cpu time      0.0017: real time      0.0019
 Broyden mixing: mesh for mixing (old mesh)
   NGX = 43   NGY = 31   NGZ = 57
  (NGX  =180   NGY  =128   NGZ  =240)
  gives a total of  75981 points

 initial charge density was supplied:
 charge density of overlapping atoms calculated
 number of electron     132.0000000 magnetization 
 keeping initial charge density in first step


--------------------------------------------------------------------------------------------------------


 Maximum index for augmentation-charges          485 (set IRDMAX)


--------------------------------------------------------------------------------------------------------


 First call to EWALD:  gamma=   0.230
 Maximum number of real-space cells 3x 3x 2
 Maximum number of reciprocal cells 3x 2x 4

    FEWALD:  cpu time      0.0033: real time      0.0033


--------------------------------------- Ionic step        1  -------------------------------------------




--------------------------------------- Iteration      1(   1)  ---------------------------------------


    POTLOK:  cpu time      1.6648: real time      1.6665
    SETDIJ:  cpu time      0.3084: real time      0.3085
    TRIAL :  cpu time      6.2125: real time      6.2170
    CORREC:  cpu time      0.0016: real time      0.0017
    --------------------------------------------
      LOOP:  cpu time      8.2091: real time      8.2154

 eigenvalue-minimisations  :  4784
 total energy-change (2. order) : 0.8687905E+03  (-0.9711076E+04)
 number of electron     132.0000000 magnetization 
 augmentation part      132.0000000 magnetization 

 Free energy of the ion-electron system (eV)
  ---------------------------------------------------
  alpha Z        PSCENC =       124.96893152
  Ewald energy   TEWEN  =     -1948.25569466
  -Hartree energ DENC   =     -2028.46933119
  -exchange      EXHF   =         0.00000000
  -V(xc)+E(xc)   XCENC  =       348.47550446
  PAW double counting   =      3119.90060940    -3037.62450103
  entropy T*S    EENTRO =        -0.00032574
  eigenvalues    EBANDS =       -80.24236342
  atomic energy  EATOM  =      4370.03766925
  ---------------------------------------------------
  free energy    TOTEN  =       868.79049859 eV

  energy without entropy =      868.79082432  energy(sigma->0) =      868.79066146


--------------------------------------------------------------------------------------------------------




--------------------------------------- Iteration      1(   2)  ---------------------------------------


    TRIAL :  cpu time      7.1919: real time      7.1959
    CORREC:  cpu time      0.0004: real time      0.0004
    --------------------------------------------
      LOOP:  cpu time      7.2064: real time      7.2266

 eigenvalue-minimisations  :  6200
 total energy-change (2. order) :-0.1125881E+04  (-0.1073438E+04)
 number of electron     132.0000000 magnetization 
 augmentation part      132.0000000 magnetization 

 Free energy of the ion-electron system (eV)
  ---------------------------------------------------
  alpha Z        PSCENC =       124.96893152
  Ewald energy   TEWEN  =     -1948.25569466
  -Hartree energ DENC   =     -2028.46933119
  -exchange      EXHF   =         0.00000000
  -V(xc)+E(xc)   XCENC  =       348.47550446
  PAW double counting   =      3119.90060940    -3037.62450103
  entropy T*S    EENTRO =        -0.00000000
  eigenvalues    EBANDS =     -1206.12370514
  atomic energy  EATOM  =      4370.03766925
  ---------------------------------------------------
  free energy    TOTEN  =      -257.09051740 eV

  energy without entropy =     -257.09051740  energy(sigma->0) =     -257.09051740


--------------------------------------------------------------------------------------------------------




--------------------------------------- Iteration      1(   3)  ---------------------------------------


    TRIAL :  cpu time      6.9847: real time      6.9884
    CORREC:  cpu time      0.0004: real time      0.0004
    --------------------------------------------
      LOOP:  cpu time      6.9997: real time      7.0193

 eigenvalue-minimisations  :  5888
 total energy-change (2. order) :-0.1462716E+03  (-0.1450001E+03)
 number of electron     132.0000000 magnetization 
 augmentation part      132.0000000 magnetization 

 Free energy of the ion-electron system (eV)
  ---------------------------------------------------
  alpha Z        PSCENC =       124.96893152
  Ewald energy   TEWEN  =     -1948.25569466
  -Hartree energ DENC   =     -2028.46933119
  -exchange      EXHF   =         0.00000000
  -V(xc)+E(xc)   XCENC  =       348.47550446
  PAW double counting   =      3119.90060940    -3037.62450103
  entropy T*S    EENTRO =        -0.00000000
  eigenvalues    EBANDS =     -1352.39526470
  atomic energy  EATOM  =      4370.03766925
  ---------------------------------------------------
  free energy    TOTEN  =      -403.36207695 eV

  energy without entropy =     -403.36207695  energy(sigma->0) =     -403.36207695


--------------------------------------------------------------------------------------------------------




--------------------------------------- Iteration      1(   4)  ---------------------------------------


    TRIAL :  cpu time      7.0873: real time      7.0915
    CORREC:  cpu time      0.0004: real time      0.0004
    --------------------------------------------
      LOOP:  cpu time      7.1186: real time      7.1232

 eigenvalue-minimisations  :  6032
 total energy-change (2. order) :-0.4849722E+01  (-0.4831053E+01)
 number of electron     132.0000000 magnetization 
 augmentation part      132.0000000 magnetization 

 Free energy of the ion-electron system (eV)
  ---------------------------------------------------
  alpha Z        PSCENC =       124.96893152
  Ewald energy   TEWEN  =     -1948.25569466
  -Hartree energ DENC   =     -2028.46933119
  -exchange      EXHF   =         0.00000000
  -V(xc)+E(xc)   XCENC  =       348.47550446
  PAW double counting   =      3119.90060940    -3037.62450103
  entropy T*S    EENTRO =        -0.00000000
  eigenvalues    EBANDS =     -1357.24498684
  atomic energy  EATOM  =      4370.03766925
  ---------------------------------------------------
  free energy    TOTEN  =      -408.21179910 eV

  energy without entropy =     -408.21179910  energy(sigma->0) =     -408.21179910


--------------------------------------------------------------------------------------------------------




--------------------------------------- Iteration      1(   5)  ---------------------------------------


    TRIAL :  cpu time      7.2409: real time      7.2450
    CORREC:  cpu time      0.0004: real time      0.0004
    CHARGE:  cpu time      1.4443: real time      1.4460
    --------------------------------------------
      LOOP:  cpu time      8.6979: real time      8.7220

 eigenvalue-minimisations  :  6304
 total energy-change (2. order) :-0.1617934E+00  (-0.1616395E+00)
 number of electron     132.0000001 magnetization 
 augmentation part       -0.1760741 magnetization 

 Free energy of the ion-electron system (eV)
  ---------------------------------------------------
  alpha Z        PSCENC =       124.96893152
  Ewald energy   TEWEN  =     -1948.25569466
  -Hartree energ DENC   =     -2028.46933119
  -exchange      EXHF   =         0.00000000
  -V(xc)+E(xc)   XCENC  =       348.47550446
  PAW double counting   =      3119.90060940    -3037.62450103
  entropy T*S    EENTRO =        -0.00000000
  eigenvalues    EBANDS =     -1357.40678020
  atomic energy  EATOM  =      4370.03766925
  ---------------------------------------------------
  free energy    TOTEN  =      -408.37359246 eV

  energy without entropy =     -408.37359246  energy(sigma->0) =     -408.37359246


--------------------------------------------------------------------------------------------------------




--------------------------------------- Iteration      1(   6)  ---------------------------------------


    POTLOK:  cpu time      1.5148: real time      1.5151
    SETDIJ:  cpu time      0.3095: real time      0.3099
    TRIAL :  cpu time      4.9136: real time      4.9181
    CORREC:  cpu time      4.3313: real time      4.3332
    CHARGE:  cpu time      1.3556: real time      1.3563
    --------------------------------------------
      LOOP:  cpu time     12.4391: real time     12.4637

 eigenvalue-minimisations  :     0
 total energy-change (2. order) : 0.7630728E+02  (-0.1525971E+02)
 number of electron     132.0000001 magnetization 
 augmentation part       -0.1986491 magnetization 

 Free energy of the ion-electron system (eV)
  ---------------------------------------------------
  alpha Z        PSCENC =       124.96893152
  Ewald energy   TEWEN  =     -1948.25569466
  -Hartree energ DENC   =     -2693.86643245
  -exchange      EXHF   =         0.00000000
  -V(xc)+E(xc)   XCENC  =       401.45555773
  PAW double counting   =     53078.19385457   -52999.96834818
  entropy T*S    EENTRO =        -0.00000000
  eigenvalues    EBANDS =      -664.63185358
  atomic energy  EATOM  =      4370.03766925
  ---------------------------------------------------
  free energy    TOTEN  =      -332.06631580 eV

  energy without entropy =     -332.06631580  energy(sigma->0) =     -332.06631580


--------------------------------------------------------------------------------------------------------




--------------------------------------- Iteration      1(   7)  ---------------------------------------


    POTLOK:  cpu time      1.5211: real time      1.5217
    SETDIJ:  cpu time      0.3066: real time      0.3066
    TRIAL :  cpu time      4.7967: real time      4.8001
    CORREC:  cpu time      4.3281: real time      4.3302
    CHARGE:  cpu time      1.3463: real time      1.3473
    --------------------------------------------
      LOOP:  cpu time     12.3129: real time     12.3363

 eigenvalue-minimisations  :     0
 total energy-change (2. order) :-0.1524051E+02  (-0.1745908E+01)
 number of electron     132.0000001 magnetization 
 augmentation part       -0.2207890 magnetization 

 Free energy of the ion-electron system (eV)
  ---------------------------------------------------
  alpha Z        PSCENC =       124.96893152
  Ewald energy   TEWEN  =     -1948.25569466
  -Hartree energ DENC   =     -2425.64894832
  -exchange      EXHF   =         0.00000000
  -V(xc)+E(xc)   XCENC  =       383.33870595
  PAW double counting   =     64959.42525132   -64878.60866222
  entropy T*S    EENTRO =        -0.00000000
  eigenvalues    EBANDS =      -932.56408257
  atomic energy  EATOM  =      4370.03766925
  ---------------------------------------------------
  free energy    TOTEN  =      -347.30682973 eV

  energy without entropy =     -347.30682973  energy(sigma->0) =     -347.30682973


--------------------------------------------------------------------------------------------------------




--------------------------------------- Iteration      1(   8)  ---------------------------------------


    POTLOK:  cpu time      1.5120: real time      1.5123
    SETDIJ:  cpu time      0.3110: real time      0.3110
    TRIAL :  cpu time      4.7939: real time      4.7966
    CORREC:  cpu time      4.3092: real time      4.3117
    CHARGE:  cpu time      1.3510: real time      1.3517
    --------------------------------------------
      LOOP:  cpu time     12.2902: real time     12.3138

 eigenvalue-minimisations  :     0
 total energy-change (2. order) :-0.1741392E+01  (-0.5558831E+00)
 number of electron     132.0000001 magnetization 
 augmentation part       -0.2161189 magnetization 

 Free energy of the ion-electron system (eV)
  ---------------------------------------------------
  alpha Z        PSCENC =       124.96893152
  Ewald energy   TEWEN  =     -1948.25569466
  -Hartree energ DENC   =     -2413.70567141
  -exchange      EXHF   =         0.00000000
  -V(xc)+E(xc)   XCENC  =       382.65812399
  PAW double counting   =     70742.77847503   -70661.62340556
  entropy T*S    EENTRO =        -0.00000000
  eigenvalues    EBANDS =      -945.90664943
  atomic energy  EATOM  =      4370.03766925
  ---------------------------------------------------
  free energy    TOTEN  =      -349.04822127 eV

  energy without entropy =     -349.04822127  energy(sigma->0) =     -349.04822127


--------------------------------------------------------------------------------------------------------




--------------------------------------- Iteration      1(   9)  ---------------------------------------


    POTLOK:  cpu time      1.5125: real time      1.5129
    SETDIJ:  cpu time      0.3106: real time      0.3110
    TRIAL :  cpu time      4.8296: real time      4.8324
    CORREC:  cpu time      4.3952: real time      4.3974
    CHARGE:  cpu time      1.3446: real time      1.3453
    --------------------------------------------
      LOOP:  cpu time     12.4067: real time     12.4301

 eigenvalue-minimisations  :     0
 total energy-change (2. order) :-0.5518034E+00  (-0.1603944E+00)
 number of electron     132.0000001 magnetization 
 augmentation part       -0.2147892 magnetization 

 Free energy of the ion-electron system (eV)
  ---------------------------------------------------
  alpha Z        PSCENC =       124.96893152
  Ewald energy   TEWEN  =     -1948.25569466
  -Hartree energ DENC   =     -2405.02245085
  -exchange      EXHF   =         0.00000000
  -V(xc)+E(xc)   XCENC  =       382.20787620
  PAW double counting   =     72336.62164793   -72255.34580189
  entropy T*S    EENTRO =        -0.00000000
  eigenvalues    EBANDS =      -954.81220214
  atomic energy  EATOM  =      4370.03766925
  ---------------------------------------------------
  free energy    TOTEN  =      -349.60002464 eV

  energy without entropy =     -349.60002464  energy(sigma->0) =     -349.60002464


--------------------------------------------------------------------------------------------------------




--------------------------------------- Iteration      1(  10)  ---------------------------------------


    POTLOK:  cpu time      1.5133: real time      1.5140
    SETDIJ:  cpu time      0.3069: real time      0.3069
    TRIAL :  cpu time      4.7917: real time      4.7947
    CORREC:  cpu time      4.3219: real time      4.3240
    CHARGE:  cpu time      1.3463: real time      1.3472
    --------------------------------------------
      LOOP:  cpu time     12.3095: real time     12.3166

 eigenvalue-minimisations  :     0
 total energy-change (2. order) :-0.1596776E+00  (-0.3866325E-01)
 number of electron     132.0000001 magnetization 
 augmentation part       -0.2157004 magnetization 

 Free energy of the ion-electron system (eV)
  ---------------------------------------------------
  alpha Z        PSCENC =       124.96893152
  Ewald energy   TEWEN  =     -1948.25569466
  -Hartree energ DENC   =     -2398.95472749
  -exchange      EXHF   =         0.00000000
  -V(xc)+E(xc)   XCENC  =       381.86318708
  PAW double counting   =     71398.87691166   -71317.61504848
  entropy T*S    EENTRO =        -0.00000000
  eigenvalues    EBANDS =      -960.68093112
  atomic energy  EATOM  =      4370.03766925
  ---------------------------------------------------
  free energy    TOTEN  =      -349.75970226 eV

  energy without entropy =     -349.75970226  energy(sigma->0) =     -349.75970226


--------------------------------------------------------------------------------------------------------




--------------------------------------- Iteration      1(  11)  ---------------------------------------


    POTLOK:  cpu time      1.5124: real time      1.5127
    SETDIJ:  cpu time      0.3321: real time      0.3324
    TRIAL :  cpu time      4.8026: real time      4.8048
    CORREC:  cpu time      4.3085: real time      4.3110
    CHARGE:  cpu time      1.3452: real time      1.3462
    --------------------------------------------
      LOOP:  cpu time     12.3174: real time     12.3397

 eigenvalue-minimisations  :     0
 total energy-change (2. order) :-0.3863822E-01  (-0.7807589E-02)
 number of electron     132.0000001 magnetization 
 augmentation part       -0.2162063 magnetization 

 Free energy of the ion-electron system (eV)
  ---------------------------------------------------
  alpha Z        PSCENC =       124.96893152
  Ewald energy   TEWEN  =     -1948.25569466
  -Hartree energ DENC   =     -2399.29895963
  -exchange      EXHF   =         0.00000000
  -V(xc)+E(xc)   XCENC  =       381.78387684
  PAW double counting   =     70526.74601996   -70445.52573753
  entropy T*S    EENTRO =        -0.00000000
  eigenvalues    EBANDS =      -960.25444621
  atomic energy  EATOM  =      4370.03766925
  ---------------------------------------------------
  free energy    TOTEN  =      -349.79834047 eV

  energy without entropy =     -349.79834047  energy(sigma->0) =     -349.79834047


--------------------------------------------------------------------------------------------------------




--------------------------------------- Iteration      1(  12)  ---------------------------------------


    POTLOK:  cpu time      1.5836: real time      1.5843
    SETDIJ:  cpu time      0.2388: real time      0.2388
    TRIAL :  cpu time      4.8085: real time      4.8116
    CORREC:  cpu time      4.3610: real time      4.3630
    CHARGE:  cpu time      1.3480: real time      1.3489
    --------------------------------------------
      LOOP:  cpu time     12.3574: real time     12.3823

 eigenvalue-minimisations  :     0
 total energy-change (2. order) :-0.7813756E-02  (-0.1534922E-02)
 number of electron     132.0000001 magnetization 
 augmentation part       -0.2164030 magnetization 

 Free energy of the ion-electron system (eV)
  ---------------------------------------------------
  alpha Z        PSCENC =       124.96893152
  Ewald energy   TEWEN  =     -1948.25569466
  -Hartree energ DENC   =     -2398.53737849
  -exchange      EXHF   =         0.00000000
  -V(xc)+E(xc)   XCENC  =       381.69953586
  PAW double counting   =     70284.87242048   -70203.66153671
  entropy T*S    EENTRO =        -0.00000000
  eigenvalues    EBANDS =      -960.93010147
  atomic energy  EATOM  =      4370.03766925
  ---------------------------------------------------
  free energy    TOTEN  =      -349.80615423 eV

  energy without entropy =     -349.80615423  energy(sigma->0) =     -349.80615423


--------------------------------------------------------------------------------------------------------




--------------------------------------- Iteration      1(  13)  ---------------------------------------


    POTLOK:  cpu time      1.5124: real time      1.5130
    SETDIJ:  cpu time      0.3093: real time      0.3093
    TRIAL :  cpu time      4.8035: real time      4.8072
    CORREC:  cpu time      4.3355: real time      4.3372
    CHARGE:  cpu time      1.3463: real time      1.3475
    --------------------------------------------
      LOOP:  cpu time     12.3238: real time     12.3478

 eigenvalue-minimisations  :     0
 total energy-change (2. order) :-0.1542842E-02  (-0.3050770E-03)
 number of electron     132.0000001 magnetization 
 augmentation part       -0.2163003 magnetization 

 Free energy of the ion-electron system (eV)
  ---------------------------------------------------
  alpha Z        PSCENC =       124.96893152
  Ewald energy   TEWEN  =     -1948.25569466
  -Hartree energ DENC   =     -2398.65819493
  -exchange      EXHF   =         0.00000000
  -V(xc)+E(xc)   XCENC  =       381.69800155
  PAW double counting   =     70259.86918173   -70178.66181655
  entropy T*S    EENTRO =        -0.00000000
  eigenvalues    EBANDS =      -960.80577498
  atomic energy  EATOM  =      4370.03766925
  ---------------------------------------------------
  free energy    TOTEN  =      -349.80769707 eV

  energy without entropy =     -349.80769707  energy(sigma->0) =     -349.80769707


--------------------------------------------------------------------------------------------------------




--------------------------------------- Iteration      1(  14)  ---------------------------------------


    POTLOK:  cpu time      1.5120: real time      1.5123
    SETDIJ:  cpu time      0.3107: real time      0.3111
    TRIAL :  cpu time      4.7935: real time      4.7959
    CORREC:  cpu time      4.3244: real time      4.3266
    CHARGE:  cpu time      1.3823: real time      1.3830
    --------------------------------------------
      LOOP:  cpu time     12.3679: real time     12.3939

 eigenvalue-minimisations  :     0
 total energy-change (2. order) :-0.3092263E-03  (-0.6557297E-04)
 number of electron     132.0000001 magnetization 
 augmentation part       -0.2161521 magnetization 

 Free energy of the ion-electron system (eV)
  ---------------------------------------------------
  alpha Z        PSCENC =       124.96893152
  Ewald energy   TEWEN  =     -1948.25569466
  -Hartree energ DENC   =     -2398.75625464
  -exchange      EXHF   =         0.00000000
  -V(xc)+E(xc)   XCENC  =       381.70368596
  PAW double counting   =     70264.09116980   -70182.88420890
  entropy T*S    EENTRO =        -0.00000000
  eigenvalues    EBANDS =      -960.71330462
  atomic energy  EATOM  =      4370.03766925
  ---------------------------------------------------
  free energy    TOTEN  =      -349.80800630 eV

  energy without entropy =     -349.80800630  energy(sigma->0) =     -349.80800630


--------------------------------------------------------------------------------------------------------




--------------------------------------- Iteration      1(  15)  ---------------------------------------


    POTLOK:  cpu time      1.5129: real time      1.5136
    SETDIJ:  cpu time      0.3093: real time      0.3094
    TRIAL :  cpu time      4.7947: real time      4.7982
    CORREC:  cpu time      4.3053: real time      4.3071
    CHARGE:  cpu time      1.3468: real time      1.3477
    --------------------------------------------
      LOOP:  cpu time     12.3041: real time     12.3114

 eigenvalue-minimisations  :     0
 total energy-change (2. order) :-0.6695321E-04  (-0.1483837E-04)
 number of electron     132.0000001 magnetization 
 augmentation part       -0.2160732 magnetization 

 Free energy of the ion-electron system (eV)
  ---------------------------------------------------
  alpha Z        PSCENC =       124.96893152
  Ewald energy   TEWEN  =     -1948.25569466
  -Hartree energ DENC   =     -2398.75463568
  -exchange      EXHF   =         0.00000000
  -V(xc)+E(xc)   XCENC  =       381.70413806
  PAW double counting   =     70266.42531520   -70185.21775493
  entropy T*S    EENTRO =        -0.00000000
  eigenvalues    EBANDS =      -960.71604200
  atomic energy  EATOM  =      4370.03766925
  ---------------------------------------------------
  free energy    TOTEN  =      -349.80807325 eV

  energy without entropy =     -349.80807325  energy(sigma->0) =     -349.80807325


--------------------------------------------------------------------------------------------------------




--------------------------------------- Iteration      1(  16)  ---------------------------------------


    POTLOK:  cpu time      1.5391: real time      1.5396
    SETDIJ:  cpu time      0.3042: real time      0.3042
    TRIAL :  cpu time      4.8375: real time      4.8403
    CORREC:  cpu time      4.3144: real time      4.3162
    CHARGE:  cpu time      1.3448: real time      1.3459
    --------------------------------------------
      LOOP:  cpu time     12.3535: real time     12.3762

 eigenvalue-minimisations  :     0
 total energy-change (2. order) :-0.1530712E-04  (-0.3563338E-05)
 number of electron     132.0000001 magnetization 
 augmentation part       -0.2160504 magnetization 

 Free energy of the ion-electron system (eV)
  ---------------------------------------------------
  alpha Z        PSCENC =       124.96893152
  Ewald energy   TEWEN  =     -1948.25569466
  -Hartree energ DENC   =     -2398.79029480
  -exchange      EXHF   =         0.00000000
  -V(xc)+E(xc)   XCENC  =       381.70692436
  PAW double counting   =     70269.02394549   -70187.81624542
  entropy T*S    EENTRO =        -0.00000000
  eigenvalues    EBANDS =      -960.68332429
  atomic energy  EATOM  =      4370.03766925
  ---------------------------------------------------
  free energy    TOTEN  =      -349.80808856 eV

  energy without entropy =     -349.80808856  energy(sigma->0) =     -349.80808856


--------------------------------------------------------------------------------------------------------




--------------------------------------- Iteration      1(  17)  ---------------------------------------


    POTLOK:  cpu time      1.5120: real time      1.5123
    SETDIJ:  cpu time      0.3104: real time      0.3107
    TRIAL :  cpu time      4.7931: real time      4.7955
    CORREC:  cpu time      4.3063: real time      4.3085
    CHARGE:  cpu time      1.3488: real time      1.3495
    --------------------------------------------
      LOOP:  cpu time     12.2862: real time     12.3081

 eigenvalue-minimisations  :     0
 total energy-change (2. order) :-0.3680441E-05  (-0.7097645E-06)
 number of electron     132.0000001 magnetization 
 augmentation part       -0.2160447 magnetization 

 Free energy of the ion-electron system (eV)
  ---------------------------------------------------
  alpha Z        PSCENC =       124.96893152
  Ewald energy   TEWEN  =     -1948.25569466
  -Hartree energ DENC   =     -2398.79394351
  -exchange      EXHF   =         0.00000000
  -V(xc)+E(xc)   XCENC  =       381.70725593
  PAW double counting   =     70272.52633896   -70191.31848850
  entropy T*S    EENTRO =        -0.00000000
  eigenvalues    EBANDS =      -960.68016123
  atomic energy  EATOM  =      4370.03766925
  ---------------------------------------------------
  free energy    TOTEN  =      -349.80809224 eV

  energy without entropy =     -349.80809224  energy(sigma->0) =     -349.80809224


--------------------------------------------------------------------------------------------------------




--------------------------------------- Iteration      1(  18)  ---------------------------------------


    POTLOK:  cpu time      1.5119: real time      1.5125
    SETDIJ:  cpu time      0.3492: real time      0.3492
    TRIAL :  cpu time      4.8127: real time      4.8159
    CORREC:  cpu time      4.3089: real time      4.3110
    CHARGE:  cpu time      1.3506: real time      1.3511
    --------------------------------------------
      LOOP:  cpu time     12.3646: real time     12.3712

 eigenvalue-minimisations  :     0
 total energy-change (2. order) :-0.7499621E-06  (-0.1731377E-06)
 number of electron     132.0000001 magnetization 
 augmentation part       -0.2160432 magnetization 

 Free energy of the ion-electron system (eV)
  ---------------------------------------------------
  alpha Z        PSCENC =       124.96893152
  Ewald energy   TEWEN  =     -1948.25569466
  -Hartree energ DENC   =     -2398.79630415
  -exchange      EXHF   =         0.00000000
  -V(xc)+E(xc)   XCENC  =       381.70743542
  PAW double counting   =     70273.86117754   -70192.65330979
  entropy T*S    EENTRO =        -0.00000000
  eigenvalues    EBANDS =      -960.67799812
  atomic energy  EATOM  =      4370.03766925
  ---------------------------------------------------
  free energy    TOTEN  =      -349.80809299 eV

  energy without entropy =     -349.80809299  energy(sigma->0) =     -349.80809299


--------------------------------------------------------------------------------------------------------




--------------------------------------- Iteration      1(  19)  ---------------------------------------


    POTLOK:  cpu time      1.5126: real time      1.5136
    SETDIJ:  cpu time      0.3094: real time      0.3094
    TRIAL :  cpu time      4.8146: real time      4.8178
    CORREC:  cpu time      4.4480: real time      4.4503
    CHARGE:  cpu time      1.3470: real time      1.3476
    --------------------------------------------
      LOOP:  cpu time     12.4439: real time     12.4704

 eigenvalue-minimisations  :     0
 total energy-change (2. order) :-0.1521039E-06  (-0.6047891E-07)
 number of electron     132.0000001 magnetization 
 augmentation part       -0.2160428 magnetization 

 Free energy of the ion-electron system (eV)
  ---------------------------------------------------
  alpha Z        PSCENC =       124.96893152
  Ewald energy   TEWEN  =     -1948.25569466
  -Hartree energ DENC   =     -2398.79731793
  -exchange      EXHF   =         0.00000000
  -V(xc)+E(xc)   XCENC  =       381.70750126
  PAW double counting   =     70274.00833751   -70192.80048216
  entropy T*S    EENTRO =        -0.00000000
  eigenvalues    EBANDS =      -960.67703791
  atomic energy  EATOM  =      4370.03766925
  ---------------------------------------------------
  free energy    TOTEN  =      -349.80809314 eV

  energy without entropy =     -349.80809314  energy(sigma->0) =     -349.80809314


--------------------------------------------------------------------------------------------------------




--------------------------------------- Iteration      1(  20)  ---------------------------------------


    POTLOK:  cpu time      1.5184: real time      1.5187
    SETDIJ:  cpu time      0.3056: real time      0.3059
    TRIAL :  cpu time      4.8116: real time      4.8144
    CORREC:  cpu time      4.3842: real time      4.3860
    EDDIAG:  cpu time      1.1241: real time      1.1256
    CHARGE:  cpu time      1.3463: real time      1.3467
    --------------------------------------------
      LOOP:  cpu time     13.5047: real time     13.5286

 eigenvalue-minimisations  :     0
 total energy-change (2. order) :-0.5634502E-07  (-0.2746250E-07)
 number of electron     132.0000001 magnetization 
 augmentation part       -0.2160426 magnetization 

 Free energy of the ion-electron system (eV)
  ---------------------------------------------------
  alpha Z        PSCENC =       124.96893152
  Ewald energy   TEWEN  =     -1948.25569466
  -Hartree energ DENC   =     -2398.79724363
  -exchange      EXHF   =         0.00000000
  -V(xc)+E(xc)   XCENC  =       381.70747918
  PAW double counting   =     70273.77800922   -70192.57016482
  entropy T*S    EENTRO =        -0.00000000
  eigenvalues    EBANDS =      -960.67707926
  atomic energy  EATOM  =      4370.03766925
  ---------------------------------------------------
  free energy    TOTEN  =      -349.80809320 eV

  energy without entropy =     -349.80809320  energy(sigma->0) =     -349.80809320


--------------------------------------------------------------------------------------------------------


  average scaling for gradient   1.2391


 average (electrostatic) potential at core
  the test charge radii are     0.5770  0.4325
  (the norm of the test charge is              1.0000)
       1 -83.0469       2 -83.0249       3 -83.2840       4 -83.0067       5 -83.2698
       6 -82.9560       7 -83.0153       8 -83.2698       9 -83.0067      10 -83.2840
      11 -82.9562      12 -83.0250      13 -83.0150      14 -83.0469      15 -83.0469
      16 -83.0469      17 -83.0250      18 -83.0249      19 -83.2840      20 -83.2840
      21 -83.0067      22 -83.0067      23 -83.2698      24 -83.2698      25 -82.9562
      26 -82.9560      27 -83.0150      28 -83.0153      29 -41.5919      30 -41.5476
      31 -41.4859      32 -41.4297      33 -41.5162      34 -41.4859      35 -41.4297
      36 -41.5476      37 -41.5162      38 -41.5919      39 -41.5919      40 -41.5919
      41 -41.5476      42 -41.5476      43 -41.4859      44 -41.4859      45 -41.4297
      46 -41.4297      47 -41.5162      48 -41.5162



 E-fermi :   0.6297     XC(G=0):  -8.8613     alpha+bet : -7.6605

 Fermi energy:         0.6297475358

 k-point     1 :       0.0000    0.0000    0.0000
  band No.  band energies     occupation 
      1     -17.6280      2.00000
      2     -17.4675      2.00000
      3     -16.7045      2.00000
      4     -16.6896      2.00000
      5     -15.4178      2.00000
      6     -15.3893      2.00000
      7     -14.8644      2.00000
      8     -14.8554      2.00000
      9     -13.9862      2.00000
     10     -13.9834      2.00000
     11     -13.7502      2.00000
     12     -13.6332      2.00000
     13     -12.7192      2.00000
     14     -12.6658      2.00000
     15     -11.3145      2.00000
     16     -11.1988      2.00000
     17     -10.4086      2.00000
     18     -10.3382      2.00000
     19     -10.0874      2.00000
     20      -9.9801      2.00000
     21      -9.7728      2.00000
     22      -9.7228      2.00000
     23      -8.4179      2.00000
     24      -8.3144      2.00000
     25      -7.8887      2.00000
     26      -7.6939      2.00000
     27      -7.5358      2.00000
     28      -7.3486      2.00000
     29      -6.4649      2.00000
     30      -6.4644      2.00000
     31      -6.1986      2.00000
     32      -6.0902      2.00000
     33      -6.0448      2.00000
     34      -5.8448      2.00000
     35      -5.8264      2.00000
     36      -5.7616      2.00000
     37      -5.0468      2.00000
     38      -5.0285      2.00000
     39      -4.8819      2.00000
     40      -4.8415      2.00000
     41      -4.7267      2.00000
     42      -4.6297      2.00000
     43      -4.5947      2.00000
     44      -4.3578      2.00000
     45      -4.3538      2.00000
     46      -4.3350      2.00000
     47      -4.0953      2.00000
     48      -4.0491      2.00000
     49      -3.9558      2.00000
     50      -3.7005      2.00000
     51      -3.2123      2.00000
     52      -3.1283      2.00000
     53      -3.0006      2.00000
     54      -2.8192      2.00000
     55      -2.7980      2.00000
     56      -2.6275      2.00000
     57      -2.3043      2.00000
     58      -2.2411      2.00000
     59      -2.2406      2.00000
     60      -1.9229      2.00000
     61      -1.2955      2.00000
     62      -1.0915      2.00000
     63      -1.0025      2.00000
     64      -0.6311      2.00000
     65       0.3150      2.00000
     66       0.3496      2.00000
     67       2.6852      0.00000
     68       3.2771      0.00000
     69       3.8082      0.00000
     70       4.5326      0.00000
     71       4.6172      0.00000
     72       4.9010      0.00000
     73       5.4336      0.00000
     74       5.5051      0.00000
     75       5.9364      0.00000
     76       5.9813      0.00000
     77       6.1440      0.00000
     78       6.5408      0.00000
     79       7.0418      0.00000
     80       7.4699      0.00000
     81       7.5503      0.00000
     82       7.7100      0.00000
     83       7.9219      0.00000
     84       7.9426      0.00000
     85       7.9729      0.00000
     86       8.3651      0.00000
     87       8.4247      0.00000
     88       8.5068      0.00000
     89       8.9037      0.00000
     90       9.1693      0.00000
     91       9.2050      0.00000
     92       9.3486      0.00000

 k-point     2 :       0.2500    0.0000    0.0000
  band No.  band energies     occupation 
      1     -17.6057      2.00000
      2     -17.4924      2.00000
      3     -16.7034      2.00000
      4     -16.6926      2.00000
      5     -15.4098      2.00000
      6     -15.3898      2.00000
      7     -14.8619      2.00000
      8     -14.8554      2.00000
      9     -13.9885      2.00000
     10     -13.9864      2.00000
     11     -13.7329      2.00000
     12     -13.6503      2.00000
     13     -12.7131      2.00000
     14     -12.6752      2.00000
     15     -11.2966      2.00000
     16     -11.2148      2.00000
     17     -10.3985      2.00000
     18     -10.3487      2.00000
     19     -10.0794      2.00000
     20     -10.0036      2.00000
     21      -9.7617      2.00000
     22      -9.7258      2.00000
     23      -8.4018      2.00000
     24      -8.3287      2.00000
     25      -7.8589      2.00000
     26      -7.7256      2.00000
     27      -7.4933      2.00000
     28      -7.3669      2.00000
     29      -6.4826      2.00000
     30      -6.4592      2.00000
     31      -6.2059      2.00000
     32      -6.1307      2.00000
     33      -5.8997      2.00000
     34      -5.8369      2.00000
     35      -5.8202      2.00000
     36      -5.7270      2.00000
     37      -5.1480      2.00000
     38      -5.1251      2.00000
     39      -4.8792      2.00000
     40      -4.8375      2.00000
     41      -4.6782      2.00000
     42      -4.6430      2.00000
     43      -4.6347      2.00000
     44      -4.4564      2.00000
     45      -4.3669      2.00000
     46      -4.3215      2.00000
     47      -4.1046      2.00000
     48      -4.0695      2.00000
     49      -3.8567      2.00000
     50      -3.6576      2.00000
     51      -3.2202      2.00000
     52      -3.1513      2.00000
     53      -2.9245      2.00000
     54      -2.8144      2.00000
     55      -2.8047      2.00000
     56      -2.6570      2.00000
     57      -2.3104      2.00000
     58      -2.2325      2.00000
     59      -2.1725      2.00000
     60      -1.9974      2.00000
     61      -1.2908      2.00000
     62      -1.1511      2.00000
     63      -0.9302      2.00000
     64      -0.6763      2.00000
     65       0.3611      2.00000
     66       0.3877      2.00000
     67       2.7721      0.00000
     68       3.1918      0.00000
     69       3.8957      0.00000
     70       4.4021      0.00000
     71       4.6902      0.00000
     72       4.8616      0.00000
     73       5.2771      0.00000
     74       5.8043      0.00000
     75       5.9015      0.00000
     76       5.9711      0.00000
     77       6.1129      0.00000
     78       6.4342      0.00000
     79       6.9030      0.00000
     80       7.2905      0.00000
     81       7.4997      0.00000
     82       7.7445      0.00000
     83       7.9742      0.00000
     84       8.0340      0.00000
     85       8.1019      0.00000
     86       8.3203      0.00000
     87       8.3855      0.00000
     88       8.6844      0.00000
     89       8.7284      0.00000
     90       8.8350      0.00000
     91       9.1829      0.00000
     92       9.4992      0.00000

 k-point     3 :       0.5000    0.0000    0.0000
  band No.  band energies     occupation 
      1     -17.5504      2.00000
      2     -17.5504      2.00000
      3     -16.6989      2.00000
      4     -16.6989      2.00000
      5     -15.3961      2.00000
      6     -15.3961      2.00000
[...]
     10     -14.0752      2.00000
     11     -13.7249      2.00000
     12     -13.7249      2.00000
     13     -12.7496      2.00000
     14     -12.7496      2.00000
     15     -11.1592      2.00000
     16     -11.1592      2.00000
     17     -10.4186      2.00000
     18     -10.4186      2.00000
     19      -9.7852      2.00000
     20      -9.7852      2.00000
     21      -9.6512      2.00000
     22      -9.6512      2.00000
     23      -8.3396      2.00000
     24      -8.3396      2.00000
     25      -7.8279      2.00000
     26      -7.8279      2.00000
     27      -7.2396      2.00000
     28      -7.2396      2.00000
     29      -6.3602      2.00000
     30      -6.3602      2.00000
     31      -6.2583      2.00000
     32      -6.2582      2.00000
     33      -6.1217      2.00000
     34      -6.1217      2.00000
     35      -5.8197      2.00000
     36      -5.8197      2.00000
     37      -5.3490      2.00000
     38      -5.3490      2.00000
     39      -5.0168      2.00000
     40      -5.0167      2.00000
     41      -4.8007      2.00000
     42      -4.8007      2.00000
     43      -4.6654      2.00000
     44      -4.6654      2.00000
     45      -4.2287      2.00000
     46      -4.2287      2.00000
     47      -4.0096      2.00000
     48      -4.0095      2.00000
     49      -3.8011      2.00000
     50      -3.8010      2.00000
     51      -3.1829      2.00000
     52      -3.1829      2.00000
     53      -2.8964      2.00000
     54      -2.8964      2.00000
     55      -2.5737      2.00000
     56      -2.5737      2.00000
     57      -2.2539      2.00000
     58      -2.2538      2.00000
     59      -1.9347      2.00000
     60      -1.9347      2.00000
     61      -0.9599      2.00000
     62      -0.9599      2.00000
     63      -0.8258      2.00000
     64      -0.8258      2.00000
     65       0.5824      2.00000
     66       0.5824      2.00000
     67       2.8329      0.00000
     68       2.8329      0.00000
     69       4.2514      0.00000
     70       4.2514      0.00000
     71       4.4644      0.00000
     72       4.4644      0.00000
     73       5.0083      0.00000
     74       5.0083      0.00000
     75       6.1243      0.00000
     76       6.1243      0.00000
     77       6.4845      0.00000
     78       6.4845      0.00000
     79       6.6743      0.00000
     80       6.6743      0.00000
     81       7.3697      0.00000
     82       7.3698      0.00000
     83       7.8339      0.00000
     84       7.8372      0.00000
     85       8.0353      0.00000
     86       8.0438      0.00000
     87       8.4595      0.00000
     88       8.4634      0.00000
     89       8.8443      0.00000
     90       8.8991      0.00000
     91       9.1013      0.00000
     92       9.3545      0.00000

 k-point    26 :      -0.2500    0.5000    0.3333
  band No.  band energies     occupation 
      1     -17.5184      2.00000
      2     -17.5184      2.00000
      3     -16.6815      2.00000
      4     -16.6815      2.00000
      5     -15.3604      2.00000
      6     -15.3604      2.00000
      7     -14.9574      2.00000
      8     -14.9574      2.00000
      9     -14.0756      2.00000
     10     -14.0756      2.00000
     11     -13.7278      2.00000
     12     -13.7278      2.00000
     13     -12.7491      2.00000
     14     -12.7491      2.00000
     15     -11.1603      2.00000
     16     -11.1603      2.00000
     17     -10.4154      2.00000
     18     -10.4154      2.00000
     19      -9.7888      2.00000
     20      -9.7888      2.00000
     21      -9.6520      2.00000
     22      -9.6520      2.00000
     23      -8.3383      2.00000
     24      -8.3383      2.00000
     25      -7.8197      2.00000
     26      -7.8197      2.00000
     27      -7.2441      2.00000
     28      -7.2441      2.00000
     29      -6.3670      2.00000
     30      -6.3670      2.00000
     31      -6.2165      2.00000
     32      -6.2164      2.00000
     33      -6.1264      2.00000
     34      -6.1264      2.00000
     35      -5.8233      2.00000
     36      -5.8233      2.00000
     37      -5.3808      2.00000
     38      -5.3808      2.00000
     39      -5.0274      2.00000
     40      -5.0274      2.00000
     41      -4.8140      2.00000
     42      -4.8140      2.00000
     43      -4.7122      2.00000
     44      -4.7122      2.00000
     45      -4.2214      2.00000
     46      -4.2214      2.00000
     47      -3.9719      2.00000
     48      -3.9718      2.00000
     49      -3.7899      2.00000
     50      -3.7899      2.00000
     51      -3.1459      2.00000
     52      -3.1459      2.00000
     53      -2.8945      2.00000
     54      -2.8945      2.00000
     55      -2.5248      2.00000
     56      -2.5248      2.00000
     57      -2.2801      2.00000
     58      -2.2800      2.00000
     59      -1.9405      2.00000
     60      -1.9405      2.00000
     61      -0.9762      2.00000
     62      -0.9762      2.00000
     63      -0.8360      2.00000
     64      -0.8360      2.00000
     65       0.5522      2.00000
     66       0.5522      2.00000
     67       2.8394      0.00000
     68       2.8395      0.00000
     69       4.2473      0.00000
     70       4.2474      0.00000
     71       4.4483      0.00000
     72       4.4483      0.00000
     73       5.0386      0.00000
     74       5.0386      0.00000
     75       6.1172      0.00000
     76       6.1172      0.00000
     77       6.4502      0.00000
     78       6.4502      0.00000
     79       6.7547      0.00000
     80       6.7547      0.00000
     81       7.3591      0.00000
     82       7.3591      0.00000
     83       7.8439      0.00000
     84       7.8462      0.00000
     85       8.0153      0.00000
     86       8.0260      0.00000
     87       8.4654      0.00000
     88       8.4811      0.00000
     89       8.8094      0.00000
     90       8.9002      0.00000
     91       9.2754      0.00000
     92       9.6007      0.00000


--------------------------------------------------------------------------------------------------------


 soft charge-density along one line, spin component           1
         0         1         2         3         4         5         6         7         8         9
 total charge-density along one line

 pseudopotential strength for first ion, spin component:           1
 12.453  20.949  -0.001  -0.000  -0.000  -0.001  -0.001  -0.001
 20.949  35.240  -0.001  -0.001  -0.001  -0.002  -0.001  -0.001
 -0.001  -0.001  -3.167   0.001   0.001  -5.667   0.001   0.002
 -0.000  -0.001   0.001  -3.167  -0.001   0.001  -5.667  -0.002
 -0.000  -0.001   0.001  -0.001  -3.168   0.002  -0.002  -5.670
 -0.001  -0.002  -5.667   0.001   0.002 -10.121   0.002   0.004
 -0.001  -0.001   0.001  -5.667  -0.002   0.002 -10.120  -0.004
 -0.001  -0.001   0.002  -0.002  -5.670   0.004  -0.004 -10.126
 total augmentation occupancy for first ion, spin component:           1
  9.396  -3.453  -0.010  -0.772   0.399   0.014   0.353  -0.177
 -3.453   1.293   0.021   0.372  -0.184  -0.013  -0.167   0.080
 -0.010   0.021   7.319   0.420   1.769  -2.534  -0.162  -0.714
 -0.772   0.372   0.420   6.854  -1.467  -0.162  -2.320   0.579
  0.399  -0.184   1.769  -1.467   5.244  -0.714   0.579  -1.698
  0.014  -0.013  -2.534  -0.162  -0.714   0.889   0.060   0.281
  0.353  -0.167  -0.162  -2.320   0.579   0.060   0.794  -0.223
 -0.177   0.080  -0.714   0.579  -1.698   0.281  -0.223   0.561


------------------------ aborting loop because EDIFF is reached ----------------------------------------


    FORLOC:  cpu time      0.0127: real time      0.0127
    FORNL :  cpu time      1.1077: real time      1.1093
    FORCOR:  cpu time      1.8162: real time      1.8176
    OFIELD:  cpu time      0.0020: real time      0.0020

 VOLUME and BASIS-vectors are now :
 -----------------------------------------------------------------------------
  energy-cutoff  :     1000.00
  volume of cell :      456.47
      direct lattice vectors                 reciprocal lattice vectors
     8.414400000  0.000000000  0.000000000     0.118843887 -0.000000000  0.084124444
     0.000000000  5.990300000  0.000000000     0.000000000  0.166936547 -0.000000000
    -6.410400000  0.000000000  9.056070000     0.000000000  0.000000000  0.110423175

  length of vectors
     8.414400000  5.990300000 11.095297743     0.145604916  0.166936547  0.110423175


 FORCES acting on ions:
    Electron-Ion                     Ewald-Force                    Non-Local-Force
 -----------------------------------------------------------------------------------------------
   0.370E+02 -.296E+02 -.136E+03   -.363E+02 0.304E+02 0.135E+03   -.620E+00 -.805E+00 0.340E+00
   -.292E+02 -.965E+02 -.960E+02   0.287E+02 0.964E+02 0.970E+02   0.505E+00 -.317E-01 -.104E+01
   -.685E+01 -.369E+02 -.570E+02   0.737E+01 0.377E+02 0.569E+02   -.512E+00 -.780E+00 0.119E+00
   -.278E+02 -.101E+03 -.479E+02   0.280E+02 0.101E+03 0.481E+02   -.227E+00 -.600E+00 -.189E+00
   0.138E+02 0.373E+02 -.205E+02   -.138E+02 -.381E+02 0.200E+02   0.605E-01 0.790E+00 0.522E+00
   0.281E+02 0.944E+02 -.267E+02   -.289E+02 -.951E+02 0.274E+02   0.899E+00 0.857E+00 -.717E+00
   0.647E+02 0.543E+02 -.117E+03   -.646E+02 -.551E+02 0.116E+03   -.494E-01 0.791E+00 0.958E+00
   -.138E+02 -.373E+02 0.205E+02   0.138E+02 0.381E+02 -.200E+02   -.605E-01 -.790E+00 -.522E+00
   0.278E+02 0.101E+03 0.479E+02   -.280E+02 -.101E+03 -.481E+02   0.227E+00 0.600E+00 0.189E+00
   0.685E+01 0.369E+02 0.570E+02   -.737E+01 -.377E+02 -.569E+02   0.512E+00 0.780E+00 -.119E+00
   -.281E+02 -.944E+02 0.267E+02   0.289E+02 0.951E+02 -.274E+02   -.899E+00 -.857E+00 0.717E+00
   0.292E+02 0.965E+02 0.960E+02   -.287E+02 -.964E+02 -.970E+02   -.505E+00 0.317E-01 0.104E+01
   -.647E+02 -.543E+02 0.117E+03   0.646E+02 0.551E+02 -.116E+03   0.494E-01 -.791E+00 -.958E+00
   -.370E+02 0.296E+02 0.136E+03   0.363E+02 -.304E+02 -.135E+03   0.620E+00 0.805E+00 -.340E+00
   -.370E+02 -.296E+02 0.136E+03   0.363E+02 0.304E+02 -.135E+03   0.620E+00 -.805E+00 -.340E+00
   0.370E+02 0.296E+02 -.136E+03   -.363E+02 -.304E+02 0.135E+03   -.620E+00 0.805E+00 0.340E+00
   0.292E+02 -.965E+02 0.960E+02   -.287E+02 0.964E+02 -.970E+02   -.505E+00 -.317E-01 0.104E+01
   -.292E+02 0.965E+02 -.960E+02   0.287E+02 -.964E+02 0.970E+02   0.505E+00 0.317E-01 -.104E+01
   0.685E+01 -.369E+02 0.570E+02   -.737E+01 0.377E+02 -.569E+02   0.512E+00 -.780E+00 -.119E+00
   -.685E+01 0.369E+02 -.570E+02   0.737E+01 -.377E+02 0.569E+02   -.512E+00 0.780E+00 0.119E+00
   0.278E+02 -.101E+03 0.479E+02   -.280E+02 0.101E+03 -.481E+02   0.227E+00 -.600E+00 0.189E+00
   -.278E+02 0.101E+03 -.479E+02   0.280E+02 -.101E+03 0.481E+02   -.227E+00 0.600E+00 -.189E+00
   -.138E+02 0.373E+02 0.205E+02   0.138E+02 -.381E+02 -.200E+02   -.605E-01 0.790E+00 -.522E+00
   0.138E+02 -.373E+02 -.205E+02   -.138E+02 0.381E+02 0.200E+02   0.605E-01 -.790E+00 0.522E+00
   -.281E+02 0.944E+02 0.267E+02   0.289E+02 -.951E+02 -.274E+02   -.899E+00 0.857E+00 0.717E+00
   0.281E+02 -.944E+02 -.267E+02   -.289E+02 0.951E+02 0.274E+02   0.899E+00 -.857E+00 -.717E+00
   -.647E+02 0.543E+02 0.117E+03   0.646E+02 -.551E+02 -.116E+03   0.494E-01 0.791E+00 -.958E+00
   0.647E+02 -.543E+02 -.117E+03   -.646E+02 0.551E+02 0.116E+03   -.494E-01 -.791E+00 0.958E+00
   0.153E+02 -.170E+02 -.461E+02   -.169E+02 0.190E+02 0.513E+02   0.166E+01 -.199E+01 -.533E+01
   -.147E+02 -.457E+02 -.298E+02   0.165E+02 0.508E+02 0.316E+02   -.180E+01 -.532E+01 -.189E+01
   -.113E+02 -.451E+02 -.220E+02   0.130E+02 0.502E+02 0.239E+02   -.180E+01 -.532E+01 -.189E+01
   0.830E+01 0.434E+02 -.242E+00   -.101E+02 -.486E+02 -.159E+01   0.181E+01 0.539E+01 0.189E+01
   0.303E+02 0.301E+02 -.400E+02   -.337E+02 -.334E+02 0.432E+02   0.353E+01 0.335E+01 -.337E+01
   0.113E+02 0.451E+02 0.220E+02   -.130E+02 -.502E+02 -.239E+02   0.180E+01 0.532E+01 0.189E+01
   -.830E+01 -.434E+02 0.242E+00   0.101E+02 0.486E+02 0.159E+01   -.181E+01 -.539E+01 -.189E+01
   0.147E+02 0.457E+02 0.298E+02   -.165E+02 -.508E+02 -.316E+02   0.180E+01 0.532E+01 0.189E+01
   -.303E+02 -.301E+02 0.400E+02   0.337E+02 0.334E+02 -.432E+02   -.353E+01 -.335E+01 0.337E+01
   -.153E+02 0.170E+02 0.461E+02   0.169E+02 -.190E+02 -.513E+02   -.166E+01 0.199E+01 0.533E+01
   -.153E+02 -.170E+02 0.461E+02   0.169E+02 0.190E+02 -.513E+02   -.166E+01 -.199E+01 0.533E+01
   0.153E+02 0.170E+02 -.461E+02   -.169E+02 -.190E+02 0.513E+02   0.166E+01 0.199E+01 -.533E+01
   0.147E+02 -.457E+02 0.298E+02   -.165E+02 0.508E+02 -.316E+02   0.180E+01 -.532E+01 0.189E+01
   -.147E+02 0.457E+02 -.298E+02   0.165E+02 -.508E+02 0.316E+02   -.180E+01 0.532E+01 -.189E+01
   0.113E+02 -.451E+02 0.220E+02   -.130E+02 0.502E+02 -.239E+02   0.180E+01 -.532E+01 0.189E+01
   -.113E+02 0.451E+02 -.220E+02   0.130E+02 -.502E+02 0.239E+02   -.180E+01 0.532E+01 -.189E+01
   -.830E+01 0.434E+02 0.242E+00   0.101E+02 -.486E+02 0.159E+01   -.181E+01 0.539E+01 -.189E+01
   0.830E+01 -.434E+02 -.242E+00   -.101E+02 0.486E+02 -.159E+01   0.181E+01 -.539E+01 0.189E+01
   -.303E+02 0.301E+02 0.400E+02   0.337E+02 -.334E+02 -.432E+02   -.353E+01 0.335E+01 0.337E+01
   0.303E+02 -.301E+02 -.400E+02   -.337E+02 0.334E+02 0.432E+02   0.353E+01 -.335E+01 -.337E+01
 -----------------------------------------------------------------------------------------------
   -.808E-04 -.110E-03 0.342E-04   0.107E-12 0.107E-12 0.853E-13   0.133E-14 0.000E+00 0.355E-14


 POSITION                                       TOTAL-FORCE (eV/Angst)
 -----------------------------------------------------------------------------------
     -1.64279      0.15474      3.34292         0.099116      0.027665     -0.164602
     -0.82775      0.93576      2.55998        -0.092230     -0.145117     -0.003888
     -0.40534      0.49190      1.27088         0.014467     -0.014769     -0.045113
      0.41565      1.27146      0.44482        -0.053501     -0.135185     -0.044505
      7.58121      5.17874      0.81242         0.029398      0.019413     -0.024606
      6.73746      4.39918      1.65680         0.020788      0.131075      0.104723
      6.33623      4.86912      2.88319         0.097238      0.029634     -0.147849
     -5.57721      0.81156      8.24365        -0.029398     -0.019413      0.024606
      1.58835      4.71884      8.61125         0.053501      0.135185      0.044505
      2.40934      5.49840      7.78519        -0.014467      0.014769      0.045113
     -4.73346      1.59112      7.39927        -0.020788     -0.131075     -0.104723
      2.83175      5.05454      6.49609         0.092230      0.145117      0.003888
     -4.33223      1.12118      6.17288        -0.097238     -0.029634      0.147849
      3.64679      5.83556      5.71315        -0.099116     -0.027665      0.164602
     -0.56041      3.14989      5.71315        -0.099120      0.027670      0.164604
      2.56441      2.84041      3.34292         0.099120     -0.027670     -0.164604
     -1.37545      3.93091      6.49609         0.092226     -0.145117      0.003895
      3.37945      2.05939      2.55998        -0.092226      0.145117     -0.003895
     -1.79787      3.48705      7.78519        -0.014454     -0.014773      0.045098
      3.80187      2.50325      1.27088         0.014454      0.014773     -0.045098
     -2.61885      4.26661      8.61126         0.053500     -0.135175      0.044497
      4.62285      1.72369      0.44481        -0.053500      0.135175     -0.044497
     -1.37001      2.18359      8.24365        -0.029402      0.019410      0.024596
      3.37401      3.80671      0.81242         0.029402     -0.019410     -0.024596
     -0.52626      1.40403      7.39927        -0.020784      0.131085     -0.104728
      2.53026      4.58627      1.65680         0.020784     -0.131085      0.104728
     -0.12503      1.87397      6.17288        -0.097236      0.029624      0.147855
      2.12903      4.11633      2.88319         0.097236     -0.029624     -0.147855
     -1.95525      0.51409      4.32354         0.064302     -0.074483     -0.197635
     -0.49437      1.91459      2.90573        -0.064938     -0.189668     -0.068504
      0.74568      2.25281      0.79156        -0.057352     -0.181386     -0.062271
      6.41438      3.41944      1.30782         0.055655      0.185412      0.055986
      5.68509      4.25803      3.51036         0.147579      0.129378     -0.136107
      1.25832      3.73749      8.26451         0.057352      0.181386      0.062271
     -4.41038      2.57086      7.74825        -0.055655     -0.185412     -0.055986
      2.49837      4.07571      6.15034         0.064938      0.189668      0.068504
     -3.68109      1.73227      5.54571        -0.147579     -0.129378      0.136107
      3.95925      5.47621      4.73253        -0.064302      0.074483      0.197635
     -0.24795      3.50924      4.73252        -0.064302     -0.074484      0.197634
      2.25195      2.48106      4.32355         0.064302      0.074484     -0.197634
     -1.70883      4.90974      6.15034         0.064941     -0.189668      0.068503
      3.71283      1.08056      2.90573        -0.064941      0.189668     -0.068503
     -2.94888      5.24796      8.26451         0.057353     -0.181388      0.062271
      4.95288      0.74234      0.79156        -0.057353      0.181388     -0.062271
     -0.20318      0.42429      7.74824        -0.055655      0.185413     -0.055990
      2.20718      5.56601      1.30783         0.055655     -0.185413      0.055990
      0.52611      1.26288      5.54571        -0.147582      0.129379      0.136106
      1.47789      4.72742      3.51036         0.147582     -0.129379     -0.136106
 -----------------------------------------------------------------------------------
    total drift:                               -0.000081     -0.000110      0.000034


--------------------------------------------------------------------------------------------------------



  FREE ENERGIE OF THE ION-ELECTRON SYSTEM (eV)
  ---------------------------------------------------
  free  energy   TOTEN  =      -349.80809320 eV

  energy  without entropy=     -349.80809320  energy(sigma->0) =     -349.80809320



--------------------------------------------------------------------------------------------------------


    POTLOK:  cpu time      1.8325: real time      1.8332


--------------------------------------------------------------------------------------------------------


 stress matrix after NEB project (eV)
      0.00000      0.00000      0.00000
      0.00000      0.00000      0.00000
      0.00000      0.00000      0.00000
  FORCES: max atom, RMS     0.238840    0.179539
  FORCE total and by dimension    1.243883    0.197635
  Stress total and by dimension    0.000000    0.000000
     LOOP+:  cpu time    238.1161: real time    238.5397
    4ORBIT:  cpu time      0.0000: real time      0.0000

 total amount of memory used by VASP MPI-rank0    72714. kBytes
=======================================================================

   base      :      30000. kBytes
   nonl-proj :       4243. kBytes
   fftplans  :       2653. kBytes
   grid      :       5617. kBytes
   one-center:          6. kBytes
   wavefun   :      30195. kBytes

  
  
 General timing and accounting informations for this job:
 ========================================================
  
                  Total CPU time used (sec):      261.447
                            User time (sec):      247.970
                          System time (sec):       13.477
                         Elapsed time (sec):      265.698
  
                   Maximum memory used (kb):      434716.
                   Average memory used (kb):          N/A
  
                          Minor page faults:       849935
                          Major page faults:         1084
                 Voluntary context switches:         3266
