 vasp.6.4.1 05Apr23 (build Jun  6 2023 14:36:51) complex                         
 executed on        HPECrayEX_GCC date 2024.08.20  14:05:45
 running  256 mpi-ranks, with    1 threads/rank, on    2 nodes
 distrk:  each k-point on  128 cores,    2 groups
 distr:  one band on NCORE=  32 cores,    4 groups


--------------------------------------------------------------------------------------------------------


 INCAR:
   ALGO = Conjugate
   KPAR = 2
   NCORE = 32
   PREC = Accurate
   EDIFF = 1E-7
   ENCUT = 1000
   ISMEAR = 0
   SIGMA = 0.01
   ISIF = 0
   GGA = PE
   IVDW = 202
   LVDWEXPANSION = .TRUE.
   LWAVE = .FALSE.
   LCHARGE = .FALSE.
   SYMPREC = 1E-7
   LWAVE = .FALSE.
   LCHARGE = .FALSE.

 POTCAR:    PAW_PBE C_h 06Feb2004                 
 POTCAR:    PAW_PBE H_h 06Feb2004                 
 POTCAR:    PAW_PBE C_h 06Feb2004                 
   VRHFIN =C: s2p2                                                                                  
   LEXCH  = PE                                                                                      
   EATOM  =   147.1560 eV,   10.8157 Ry                                                             
                                                                                                    
   TITEL  = PAW_PBE C_h 06Feb2004                                                                   
   LULTRA =        F    use ultrasoft PP ?                                                          
   IUNSCR =        1    unscreen: 0-lin 1-nonlin 2-no                                               
   RPACOR =    0.800    partial core radius                                                         
   POMASS =   12.011; ZVAL   =    4.000    mass and valenz                                          
   RCORE  =    1.100    outmost cutoff radius                                                       
   RWIGS  =    1.630; RWIGS  =    0.863    wigner-seitz radius (au A)                               
   ENMAX  =  700.000; ENMIN  =  500.000 eV                                                          
   ICORE  =        2    local potential                                                             
   LCOR   =        T    correct aug charges                                                         
   LPAW   =        T    paw PP                                                                      
   EAUG   =  946.768                                                                                
   DEXC   =    0.000                                                                                
   RMAX   =    1.128    core radius for proj-oper                                                   
   RAUG   =    1.300    factor for augmentation sphere                                              
   RDEP   =    1.162    radius for radial grids                                                     
   RDEPT  =    1.088    core radius for aug-charge                                                  
                                                                                                    
   Atomic configuration                                                                             
    4 entries                                                                                       
     n  l   j            E        occ.                                                              
     1  0  0.50      -273.3789   2.0000                                                             
     2  0  0.50       -13.7508   2.0000                                                             
     2  1  0.50        -5.2854   2.0000                                                             
     3  2  1.50        -5.4423   0.0000                                                             
   Description                                                                                      
     l       E           TYP  RCUT    TYP  RCUT                                                     
     0    -13.7508458     23  1.100                                                                 
     0     -8.2022199     23  1.100                                                                 
     1     -5.2854383     23  1.100                                                                 
     1      1.1560700     23  1.100                                                                 
     2     -5.4423304      7  1.100                                                                 
  local pseudopotential read in
  partial core-charges read in
  partial kinetic energy density read in
  atomic valenz-charges read in
  non local Contribution for L=           0  read in
    real space projection operators read in
  non local Contribution for L=           0  read in
    real space projection operators read in
  non local Contribution for L=           1  read in
    real space projection operators read in
  non local Contribution for L=           1  read in
    real space projection operators read in
    PAW grid and wavefunctions read in

   number of l-projection  operators is LMAX  =           4
   number of lm-projection operators is LMMAX =           8

 POTCAR:    PAW_PBE H_h 06Feb2004                 
   VRHFIN =H: ultrasoft test                                                                        
   LEXCH  = PE                                                                                      
   EATOM  =    12.4884 eV,    0.9179 Ry                                                             
                                                                                                    
   TITEL  = PAW_PBE H_h 06Feb2004                                                                   
   LULTRA =        F    use ultrasoft PP ?                                                          
   IUNSCR =        0    unscreen: 0-lin 1-nonlin 2-no                                               
   RPACOR =    0.000    partial core radius                                                         
   POMASS =    1.000; ZVAL   =    1.000    mass and valenz                                          
   RCORE  =    0.800    outmost cutoff radius                                                       
   RWIGS  =    0.700; RWIGS  =    0.370    wigner-seitz radius (au A)                               
   ENMAX  =  700.000; ENMIN  =  350.000 eV                                                          
   RCLOC  =    0.701    cutoff for local pot                                                        
   LCOR   =        T    correct aug charges                                                         
   LPAW   =        T    paw PP                                                                      
   EAUG   = 1000.000                                                                                
   RMAX   =    0.819    core radius for proj-oper                                                   
   RAUG   =    1.000    factor for augmentation sphere                                              
   RDEP   =    0.817    radius for radial grids                                                     
   RDEPT  =    0.817    core radius for aug-charge                                                  
                                                                                                    
   Atomic configuration                                                                             
    2 entries                                                                                       
     n  l   j            E        occ.                                                              
     1  0  0.50        -6.4927   1.0000                                                             
     2  1  0.50        -3.4015   0.0000                                                             
   Description                                                                                      
     l       E           TYP  RCUT    TYP  RCUT                                                     
     0     -6.4927493     23  0.800                                                                 
     0      6.8029130     23  0.800                                                                 
     1     -6.8029130     23  0.800                                                                 
  local pseudopotential read in
  atomic valenz-charges read in
  non local Contribution for L=           0  read in
    real space projection operators read in
  non local Contribution for L=           0  read in
    real space projection operators read in
  non local Contribution for L=           1  read in
    real space projection operators read in
    PAW grid and wavefunctions read in

   number of l-projection  operators is LMAX  =           3
   number of lm-projection operators is LMMAX =           5

 -----------------------------------------------------------------------------
|                                                                             |
|               ----> ADVICE to this user running VASP <----                  |
|                                                                             |
|     You have a (more or less) 'large supercell' and for larger cells it     |
|     might be more efficient to use real-space projection operators.         |
|     Therefore, try LREAL= Auto in the INCAR file.                           |
|     Mind: For very accurate calculation, you might also keep the            |
|     reciprocal projection scheme (i.e. LREAL=.FALSE.).                      |
|                                                                             |
 -----------------------------------------------------------------------------

  PAW_PBE C_h 06Feb2004                 :
 energy of atom  1       EATOM= -147.1560
 kinetic energy error for atom=    0.0031 (will be added to EATOM!!)
  PAW_PBE H_h 06Feb2004                 :
 energy of atom  2       EATOM=  -12.4884
 kinetic energy error for atom=    0.0006 (will be added to EATOM!!)


 POSCAR:  C  H
  positions in cartesian coordinates
  No initial velocities read in
 exchange correlation table for  LEXCH =        8
   RHO(1)=    0.500       N(1)  =     2000
   RHO(2)=  100.500       N(2)  =     4000

 VTST: version 4.1, (05/19/21)

 CHAIN: initializing optimizer
 
 OPT: Using VASP Dynamics algorithm
 CHAIN: Read ICHAIN            0

 POSCAR:  C  H
  positions in cartesian coordinates
  No initial velocities read in



--------------------------------------------------------------------------------------------------------


 ion  position               nearest neighbor table
   1  0.086  0.026  0.369-  29 1.09   2 1.37   7 1.42
   2  0.117  0.156  0.283-  30 1.09   1 1.37   3 1.43
   3  0.059  0.082  0.140-   4 1.40   2 1.43   5 1.45
   4  0.087  0.212  0.049-  31 1.09   3 1.40   8 1.40
   5  0.969  0.865  0.090-   9 1.40   6 1.43   3 1.45
   6  0.940  0.734  0.183-  32 1.09   7 1.37   5 1.43
   7  0.996  0.813  0.318-  33 1.09   6 1.37   1 1.42
   8  0.031  0.135  0.910-   4 1.40  11 1.43  10 1.45
   9  0.913  0.788  0.951-  34 1.09  10 1.40   5 1.40
  10  0.941  0.918  0.860-   9 1.40  12 1.43   8 1.45
  11  0.060  0.266  0.817-  35 1.09  13 1.37   8 1.43
  12  0.883  0.844  0.717-  36 1.09  14 1.37  10 1.43
  13  0.004  0.187  0.682-  37 1.09  11 1.37  14 1.42
  14  0.914  0.974  0.631-  38 1.09  12 1.37  13 1.42
  15  0.414  0.526  0.631-  39 1.09  17 1.37  27 1.42
  16  0.586  0.474  0.369-  40 1.09  18 1.37  28 1.42
  17  0.383  0.656  0.717-  41 1.09  15 1.37  19 1.43
  18  0.617  0.344  0.283-  42 1.09  16 1.37  20 1.43
  19  0.441  0.582  0.860-  21 1.40  17 1.43  23 1.45
  20  0.559  0.418  0.140-  22 1.40  18 1.43  24 1.45
  21  0.413  0.712  0.951-  43 1.09  19 1.40  24 1.40
  22  0.587  0.288  0.049-  44 1.09  20 1.40  23 1.40
  23  0.531  0.365  0.910-  22 1.40  25 1.43  19 1.45
  24  0.469  0.635  0.090-  21 1.40  26 1.43  20 1.45
  25  0.560  0.234  0.817-  45 1.09  27 1.37  23 1.43
  26  0.440  0.766  0.183-  46 1.09  28 1.37  24 1.43
  27  0.504  0.313  0.682-  47 1.09  25 1.37  15 1.42
  28  0.496  0.687  0.318-  48 1.09  26 1.37  16 1.42
  29  0.131  0.086  0.477-   1 1.09
  30  0.186  0.320  0.321-   2 1.09
  31  0.155  0.376  0.087-   4 1.09
  32  0.872  0.571  0.144-   6 1.09
  33  0.971  0.711  0.388-   7 1.09
  34  0.845  0.624  0.913-   9 1.09
  35  0.128  0.429  0.856-  11 1.09
  36  0.814  0.680  0.679-  12 1.09
  37  0.029  0.289  0.612-  13 1.09
  38  0.869  0.914  0.523-  14 1.09
  39  0.369  0.586  0.523-  15 1.09
  40  0.631  0.414  0.477-  16 1.09
  41  0.314  0.820  0.679-  17 1.09
  42  0.686  0.180  0.321-  18 1.09
  43  0.345  0.876  0.913-  21 1.09
  44  0.655  0.124  0.087-  22 1.09
  45  0.628  0.071  0.856-  25 1.09
  46  0.372  0.929  0.144-  26 1.09
  47  0.529  0.211  0.612-  27 1.09
  48  0.471  0.789  0.388-  28 1.09

  LATTYP: Found a simple monoclinic cell.
 ALAT       =     8.4144000000
 B/A-ratio  =     0.7119105343
 C/A-ratio  =     1.1022949544
 COS(beta)  =    -0.2160611803
  
  Lattice vectors:
  
 A1 = (   8.4144000000,   0.0000000000,   0.0000000000)
 A2 = (   0.0000000000,  -5.9903000000,   0.0000000000)
 A3 = (  -2.0040000000,   0.0000000000,  -9.0560700000)


Analysis of symmetry for initial positions (statically):
=====================================================================
 Subroutine PRICEL returns:
 Original cell was already a primitive cell.
 

 Routine SETGRP: Setting up the symmetry group for a 
 simple monoclinic supercell.


 Subroutine GETGRP returns: Found  2 space group operations
 (whereof  2 operations were pure point group operations)
 out of a pool of  4 trial point group operations.


The static configuration has the point symmetry S_2 .


Analysis of symmetry for dynamics (positions and initial velocities):
=====================================================================
 Subroutine PRICEL returns:
 Original cell was already a primitive cell.
 

 Routine SETGRP: Setting up the symmetry group for a 
 simple monoclinic supercell.


 Subroutine GETGRP returns: Found  2 space group operations
 (whereof  2 operations were pure point group operations)
 out of a pool of  4 trial point group operations.


The dynamic configuration has the point symmetry S_2 .


 Subroutine INISYM returns: Found  2 space group operations
 (whereof  2 operations are pure point group operations),
 and found     1 'primitive' translations


----------------------------------------------------------------------------------------

                                     Primitive cell                                     

  volume of cell :     456.4692

  direct lattice vectors                    reciprocal lattice vectors
     8.414400000  0.000000000  0.000000000     0.118843887 -0.000000000  0.084124444
     0.000000000  5.990300000  0.000000000     0.000000000  0.166936547 -0.000000000
    -6.410400000  0.000000000  9.056070000     0.000000000  0.000000000  0.110423175

  length of vectors
     8.414400000  5.990300000 11.095297743     0.145604916  0.166936547  0.110423175

  position of ions in fractional coordinates (direct lattice)
     0.085985825  0.025831008  0.369135377
     0.116983673  0.156213237  0.282680610
     0.058740714  0.082116548  0.140334910
     0.086817321  0.212252419  0.049117938
     0.969324431  0.864520228  0.089710104
     0.940083220  0.734384005  0.182949592
     0.995568798  0.812833494  0.318370592
     0.030675569  0.135479773  0.910289893
     0.913182679  0.787747581  0.950882060
     0.941259285  0.917883452  0.859665087
     0.059916780  0.265615996  0.817050406
     0.883016326  0.843786763  0.717319388
     0.004431202  0.187166506  0.681629406
     0.914014175  0.974168992  0.630864622
     0.414014116  0.525831123  0.630864594
     0.585985884  0.474168881  0.369135405
     0.383016340  0.656213351  0.717319404
     0.616983660  0.343786655  0.282680596
     0.441259308  0.582116642  0.859665128
     0.558740693  0.417883364  0.140334872
     0.413182742  0.712252453  0.950882127
     0.586817259  0.287747553  0.049117873
     0.530675547  0.364520288  0.910289874
     0.469324455  0.635479718  0.089710126
     0.559916680  0.234384050  0.817050346
     0.440083320  0.765615955  0.182949653
     0.504431080  0.312833593  0.681629338
     0.495568920  0.687166411  0.318370662
     0.131346097  0.085819810  0.477419552
     0.185689727  0.319615595  0.320859639
     0.155208983  0.376076425  0.087406183
     0.872329652  0.570829256  0.144414156
     0.970945402  0.710820674  0.387625168
     0.844791016  0.623923576  0.912593814
     0.127670348  0.429170745  0.855585842
     0.814310272  0.680384405  0.679140359
     0.029054599  0.289179325  0.612374830
     0.868653904  0.914180190  0.522580447
     0.368653816  0.585819962  0.522580425
     0.631346184  0.414180041  0.477419574
     0.314310287  0.819615716  0.679140415
     0.685689715  0.180384289  0.320859584
     0.344791067  0.876076468  0.912593904
     0.655208934  0.123923537  0.087406096
     0.627670264  0.070829297  0.855585791
     0.372329736  0.929170708  0.144414209
     0.529054471  0.210820752  0.612374761
     0.470945528  0.789179252  0.387625238

  ion indices of the primitive-cell ions
   primitive index   ion index
                 1           1
                 2           2
                 3           3
                 4           4
                 5           5
                 6           6
                 7           7
                 8           8
                 9           9
                10          10
                11          11
                12          12
                13          13
                14          14
                15          15
                16          16
                17          17
                18          18
                19          19
                20          20
                21          21
                22          22
                23          23
                24          24
                25          25
                26          26
                27          27
                28          28
                29          29
                30          30
                31          31
                32          32
                33          33
                34          34
                35          35
                36          36
                37          37
                38          38
                39          39
                40          40
                41          41
                42          42
                43          43
                44          44
                45          45
                46          46
                47          47
                48          48

----------------------------------------------------------------------------------------



 KPOINTS: auto                                    

Automatic generation of k-mesh.
 Grid dimensions read from file:
 generate k-points for:    4    4    3

 Generating k-lattice:

  Cartesian coordinates                     Fractional coordinates (reciprocal lattice)
     0.029710972 -0.000000000  0.021031111     0.250000000  0.000000000 -0.000000000
     0.000000000  0.041734137 -0.000000000     0.000000000  0.250000000  0.000000000
     0.000000000  0.000000000  0.036807725     0.000000000  0.000000000  0.333333333

  Length of vectors
     0.036401229  0.041734137  0.036807725

  Shift w.r.t. Gamma in fractional coordinates (k-lattice)
     0.000000000  0.000000000  0.000000000

 
 Subroutine IBZKPT returns following result:
 ===========================================
 
 Found     26 irreducible k-points:
 
 Following reciprocal coordinates:
            Coordinates               Weight
  0.000000  0.000000  0.000000      1.000000
  0.250000  0.000000  0.000000      2.000000
  0.500000  0.000000  0.000000      1.000000
  0.000000  0.250000  0.000000      2.000000
  0.250000  0.250000  0.000000      2.000000
 -0.250000  0.250000  0.000000      2.000000
  0.500000  0.250000  0.000000      2.000000
  0.000000  0.500000  0.000000      1.000000
  0.250000  0.500000  0.000000      2.000000
  0.500000  0.500000  0.000000      1.000000
  0.000000  0.000000  0.333333      2.000000
  0.250000  0.000000  0.333333      2.000000
  0.500000  0.000000  0.333333      2.000000
 -0.250000  0.000000  0.333333      2.000000
  0.000000  0.250000  0.333333      2.000000
  0.000000  0.250000 -0.333333      2.000000
  0.250000  0.250000  0.333333      2.000000
 -0.250000  0.250000 -0.333333      2.000000
  0.500000  0.250000  0.333333      2.000000
  0.500000  0.250000 -0.333333      2.000000
 -0.250000  0.250000  0.333333      2.000000
  0.250000  0.250000 -0.333333      2.000000
  0.000000  0.500000  0.333333      2.000000
  0.250000  0.500000  0.333333      2.000000
  0.500000  0.500000  0.333333      2.000000
 -0.250000  0.500000  0.333333      2.000000
 
 Following cartesian coordinates:
            Coordinates               Weight
  0.000000  0.000000  0.000000      1.000000
  0.029711  0.000000  0.021031      2.000000
  0.059422  0.000000  0.042062      1.000000
  0.000000  0.041734  0.000000      2.000000
  0.029711  0.041734  0.021031      2.000000
 -0.029711  0.041734 -0.021031      2.000000
  0.059422  0.041734  0.042062      2.000000
  0.000000  0.083468  0.000000      1.000000
  0.029711  0.083468  0.021031      2.000000
  0.059422  0.083468  0.042062      1.000000
  0.000000  0.000000  0.036808      2.000000
  0.029711  0.000000  0.057839      2.000000
  0.059422  0.000000  0.078870      2.000000
 -0.029711  0.000000  0.015777      2.000000
  0.000000  0.041734  0.036808      2.000000
  0.000000  0.041734 -0.036808      2.000000
  0.029711  0.041734  0.057839      2.000000
 -0.029711  0.041734 -0.057839      2.000000
  0.059422  0.041734  0.078870      2.000000
  0.059422  0.041734  0.005254      2.000000
 -0.029711  0.041734  0.015777      2.000000
  0.029711  0.041734 -0.015777      2.000000
  0.000000  0.083468  0.036808      2.000000
  0.029711  0.083468  0.057839      2.000000
  0.059422  0.083468  0.078870      2.000000
 -0.029711  0.083468  0.015777      2.000000
 


--------------------------------------------------------------------------------------------------------




 Dimension of arrays:
   k-points           NKPTS =     26   k-points in BZ     NKDIM =     26   number of bands    NBANDS=     92
   number of dos      NEDOS =    301   number of ions     NIONS =     48
   non local maximal  LDIM  =      4   non local SUM 2l+1 LMDIM =      8
   total plane-waves  NPLWV = 691200
   max r-space proj   IRMAX =      1   max aug-charges    IRDMAX=  10243
   dimension x,y,z NGX =    90 NGY =   64 NGZ =  120
   dimension x,y,z NGXF=   180 NGYF=  128 NGZF=  240
   support grid    NGXF=   180 NGYF=  128 NGZF=  240
   ions per type =              28  20
   NGX,Y,Z   is equivalent  to a cutoff of  17.78, 17.76, 17.98 a.u.
   NGXF,Y,Z  is equivalent  to a cutoff of  35.56, 35.52, 35.96 a.u.

 SYSTEM =  unknown system                          
 POSCAR =   C  H                                   

 Startparameter for this run:
   NWRITE =      2    write-flag & timer
   PREC   = accura    normal or accurate (medium, high low for compatibility)
   ISTART =      0    job   : 0-new  1-cont  2-samecut
   ICHARG =      2    charge: 1-file 2-atom 10-const
   ISPIN  =      1    spin polarized calculation?
   LNONCOLLINEAR =      F non collinear calculations
   LSORBIT =      F    spin-orbit coupling
   INIWAV =      1    electr: 0-lowe 1-rand  2-diag
   LASPH  =      F    aspherical Exc in radial PAW
 Electronic Relaxation 1
   ENCUT  = 1000.0 eV  73.50 Ry    8.57 a.u.  21.70 15.45 28.61*2*pi/ulx,y,z
   ENINI  = 1000.0     initial cutoff
   ENAUG  = 1000.0 eV  augmentation charge cutoff
   NELM   =     60;   NELMIN=  2; NELMDL= -5     # of ELM steps 
   EDIFF  = 0.1E-06   stopping-criterion for ELM
   LREAL  =      F    real-space projection
   NLSPLINE    = F    spline interpolate recip. space projectors
   LCOMPAT=      F    compatible to vasp.4.4
   GGA_COMPAT  = T    GGA compatible to vasp.4.4-vasp.4.6
   LMAXPAW     = -100 max onsite density
   LMAXMIX     =    2 max onsite mixed and CHGCAR
   VOSKOWN=      0    Vosko Wilk Nusair interpolation
   ROPT   =    0.00000   0.00000
 Ionic relaxation
   EDIFFG = 0.1E-05   stopping-criterion for IOM
   NSW    =      0    number of steps for IOM
   NBLOCK =      1;   KBLOCK =      1    inner block; outer block 
   IBRION =     -1    ionic relax: 0-MD 1-quasi-New 2-CG
   NFREE  =      0    steps in history (QN), initial steepest desc. (CG)
   ISIF   =      0    stress and relaxation
   IWAVPR =     10    prediction:  0-non 1-charg 2-wave 3-comb
   ISYM   =      2    0-nonsym 1-usesym 2-fastsym
   LCORR  =      T    Harris-Foulkes like correction to forces

   POTIM  = 0.5000    time-step for ionic-motion
   TEIN   =    0.0    initial temperature
   TEBEG  =    0.0;   TEEND  =   0.0 temperature during run
   SMASS  =  -3.00    Nose mass-parameter (am)
   estimated Nose-frequenzy (Omega)   =  0.10E-29 period in steps = 0.13E+47 mass=  -0.162E-26a.u.
   SCALEE = 1.0000    scale energy and forces
   NPACO  =    256;   APACO  = 10.0  distance and # of slots for P.C.
   PSTRESS=    0.0 pullay stress

  Mass of Ions in am
   POMASS =  12.01  1.00
  Ionic Valenz
   ZVAL   =   4.00  1.00
  Atomic Wigner-Seitz radii
   RWIGS  =  -1.00 -1.00
  virtual crystal weights 
   VCA    =   1.00  1.00
   NELECT =     132.0000    total number of electrons
   NUPDOWN=      -1.0000    fix difference up-down

 DOS related values:
   EMIN   =  10.00;   EMAX   =-10.00  energy-range for DOS
   EFERMI =   0.00;   METHOD = LEGACY      
   ISMEAR =     0;   SIGMA  =   0.01  broadening in eV -4-tet -1-fermi 0-gaus

 Electronic relaxation 2 (details)
   IALGO  =     58    algorithm
   LDIAG  =      T    sub-space diagonalisation (order eigenvalues)
   LSUBROT=      F    optimize rotation matrix (better conditioning)
   TURBO    =      0    0=normal 1=particle mesh
   IRESTART =      0    0=no restart 2=restart with 2 vectors
   NREBOOT  =      0    no. of reboots
   NMIN     =      0    reboot dimension
   EREF     =   0.00    reference energy to select bands
   IMIX   =      4    mixing-type and parameters
     AMIX     =   0.40;   BMIX     =  1.00
     AMIX_MAG =   1.60;   BMIX_MAG =  1.00
     AMIN     =   0.10
     WC   =   100.;   INIMIX=   1;  MIXPRE=   1;  MAXMIX= -45

 Intra band minimization:
   WEIMIN = 0.0000     energy-eigenvalue tresh-hold
   EBREAK =  0.27E-09  absolut break condition
   DEPER  =   0.30     relativ break condition  

   TIME   =   0.40     timestep for ELM

  volume/ion in A,a.u.               =       9.51        64.18
  Fermi-wavevector in a.u.,A,eV,Ry     =   1.082586  2.045790 15.945918  1.171992
  Thomas-Fermi vector in A             =   2.218631

 Write flags
   LWAVE        =      F    write WAVECAR
   LDOWNSAMPLE  =      F    k-point downsampling of WAVECAR
   LCHARG       =      T    write CHGCAR
   LVTOT        =      F    write LOCPOT, total local potential
   LVHAR        =      F    write LOCPOT, Hartree potential only
   LELF         =      F    write electronic localiz. function (ELF)
   LORBIT       =      0    0 simple, 1 ext, 2 COOP (PROOUT), +10 PAW based schemes


 Dipole corrections
   LMONO  =      F    monopole corrections only (constant potential shift)
   LDIPOL =      F    correct potential (dipole corrections)
   IDIPOL =      0    1-x, 2-y, 3-z, 4-all directions 
   EPSILON=  1.0000000 bulk dielectric constant

 Exchange correlation treatment:
   GGA     =    PE    GGA type
   LEXCH   =     8    internal setting for exchange type
   LIBXC   =     F    Libxc                    
   VOSKOWN =     0    Vosko Wilk Nusair interpolation
   LHFCALC =     F    Hartree Fock is set to
   LHFONE  =     F    Hartree Fock one center treatment
   AEXX    =    0.0000 exact exchange contribution

 Linear response parameters
   LEPSILON=     F    determine dielectric tensor
   LRPA    =     F    only Hartree local field effects (RPA)
   LNABLA  =     F    use nabla operator in PAW spheres
   LVEL    =     F    velocity operator in full k-point grid
   CSHIFT  =0.1000    complex shift for real part using Kramers Kronig
   OMEGAMAX=  -1.0    maximum frequency
   DEG_THRESHOLD= 0.2000000E-02 threshold for treating states as degnerate
   RTIME   =   -0.100 relaxation time in fs
  (WPLASMAI=    0.000 imaginary part of plasma frequency in eV, 0.658/RTIME)
   DFIELD  = 0.0000000 0.0000000 0.0000000 field for delta impulse in time

  Optional k-point grid parameters
   LKPOINTS_OPT  =     F    use optional k-point grid
   KPOINTS_OPT_MODE=     1    mode for optional k-point grid

 Orbital magnetization related:
   ORBITALMAG=     F  switch on orbital magnetization
   LCHIMAG   =     F  perturbation theory with respect to B field
   DQ        =  0.001000  dq finite difference perturbation B field
   LLRAUG    =     F  two centre corrections for induced B field
   LBONE     =     F  B-component reconstruction in AE one-centre
   LVGVCALC  =     T  calculate vGv susceptibility
   LVGVAPPL  =     F  apply vGv susceptibility instead of pGv for G=0

 Random number generation:
   RANDOM_GENERATOR = DEFAULT
   PCG_SEED         = not used


--------------------------------------------------------------------------------------------------------


 Static calculation
 charge density and potential will be updated during run
 non-spin polarized calculation
 Conjugate gradient for all bands (Freysoldt, et al. PRB 79, 241103 (2009))
 preconditioned conjugated gradient                                        
 perform sub-space diagonalisation
    before iterative eigenvector-optimisation
 modified Broyden-mixing scheme, WC =      100.0
 initial mixing is a Kerker type mixing with AMIX =  0.4000 and BMIX =      1.0000
 Hartree-type preconditioning will be used
 using additional bands           26
 reciprocal scheme for non local part
 use partial core corrections
 no Harris-corrections to forces 
 use gradient corrections 
 use of overlap-Matrix (Vanderbilt PP)
 Gauss-broadening in eV      SIGMA  =   0.01


--------------------------------------------------------------------------------------------------------


  energy-cutoff  :     1000.00
  volume of cell :      456.47
      direct lattice vectors                 reciprocal lattice vectors
     8.414400000  0.000000000  0.000000000     0.118843887 -0.000000000  0.084124444
     0.000000000  5.990300000  0.000000000     0.000000000  0.166936547 -0.000000000
    -6.410400000  0.000000000  9.056070000     0.000000000  0.000000000  0.110423175

  length of vectors
     8.414400000  5.990300000 11.095297743     0.145604916  0.166936547  0.110423175



 k-points in units of 2pi/SCALE and weight: auto                                    
   0.00000000  0.00000000  0.00000000       0.021
   0.02971097  0.00000000  0.02103111       0.042
   0.05942194  0.00000000  0.04206222       0.021
   0.00000000  0.04173414  0.00000000       0.042
   0.02971097  0.04173414  0.02103111       0.042
  -0.02971097  0.04173414 -0.02103111       0.042
   0.05942194  0.04173414  0.04206222       0.042
   0.00000000  0.08346827  0.00000000       0.021
   0.02971097  0.08346827  0.02103111       0.042
   0.05942194  0.08346827  0.04206222       0.021
   0.00000000  0.00000000  0.03680772       0.042
   0.02971097  0.00000000  0.05783884       0.042
   0.05942194  0.00000000  0.07886995       0.042
  -0.02971097  0.00000000  0.01577661       0.042
   0.00000000  0.04173414  0.03680772       0.042
   0.00000000  0.04173414 -0.03680772       0.042
   0.02971097  0.04173414  0.05783884       0.042
  -0.02971097  0.04173414 -0.05783884       0.042
   0.05942194  0.04173414  0.07886995       0.042
   0.05942194  0.04173414  0.00525450       0.042
  -0.02971097  0.04173414  0.01577661       0.042
   0.02971097  0.04173414 -0.01577661       0.042
   0.00000000  0.08346827  0.03680772       0.042
   0.02971097  0.08346827  0.05783884       0.042
   0.05942194  0.08346827  0.07886995       0.042
  -0.02971097  0.08346827  0.01577661       0.042

 k-points in reciprocal lattice and weights: auto                                    
   0.00000000  0.00000000  0.00000000       0.021
   0.25000000  0.00000000  0.00000000       0.042
   0.50000000  0.00000000  0.00000000       0.021
   0.00000000  0.25000000  0.00000000       0.042
   0.25000000  0.25000000  0.00000000       0.042
  -0.25000000  0.25000000  0.00000000       0.042
   0.50000000  0.25000000  0.00000000       0.042
   0.00000000  0.50000000  0.00000000       0.021
   0.25000000  0.50000000  0.00000000       0.042
   0.50000000  0.50000000  0.00000000       0.021
   0.00000000  0.00000000  0.33333333       0.042
   0.25000000  0.00000000  0.33333333       0.042
   0.50000000  0.00000000  0.33333333       0.042
  -0.25000000  0.00000000  0.33333333       0.042
   0.00000000  0.25000000  0.33333333       0.042
   0.00000000  0.25000000 -0.33333333       0.042
   0.25000000  0.25000000  0.33333333       0.042
  -0.25000000  0.25000000 -0.33333333       0.042
   0.50000000  0.25000000  0.33333333       0.042
   0.50000000  0.25000000 -0.33333333       0.042
  -0.25000000  0.25000000  0.33333333       0.042
   0.25000000  0.25000000 -0.33333333       0.042
   0.00000000  0.50000000  0.33333333       0.042
   0.25000000  0.50000000  0.33333333       0.042
   0.50000000  0.50000000  0.33333333       0.042
  -0.25000000  0.50000000  0.33333333       0.042

 position of ions in fractional coordinates (direct lattice) 
   0.08598583  0.02583101  0.36913538
   0.11698367  0.15621324  0.28268061
   0.05874071  0.08211655  0.14033491
   0.08681732  0.21225242  0.04911794
   0.96932443  0.86452023  0.08971010
   0.94008322  0.73438401  0.18294959
   0.99556880  0.81283349  0.31837059
   0.03067557  0.13547977  0.91028989
   0.91318268  0.78774758  0.95088206
   0.94125929  0.91788345  0.85966509
   0.05991678  0.26561600  0.81705041
   0.88301633  0.84378676  0.71731939
   0.00443120  0.18716651  0.68162941
   0.91401417  0.97416899  0.63086462
   0.41401412  0.52583112  0.63086459
   0.58598588  0.47416888  0.36913540
   0.38301634  0.65621335  0.71731940
   0.61698366  0.34378665  0.28268060
   0.44125931  0.58211664  0.85966513
   0.55874069  0.41788336  0.14033487
   0.41318274  0.71225245  0.95088213
   0.58681726  0.28774755  0.04911787
   0.53067555  0.36452029  0.91028987
   0.46932445  0.63547972  0.08971013
   0.55991668  0.23438405  0.81705035
   0.44008332  0.76561596  0.18294965
   0.50443108  0.31283359  0.68162934
   0.49556892  0.68716641  0.31837066
   0.13134610  0.08581981  0.47741955
   0.18568973  0.31961560  0.32085964
   0.15520898  0.37607642  0.08740618
   0.87232965  0.57082926  0.14441416
   0.97094540  0.71082067  0.38762517
   0.84479102  0.62392358  0.91259381
   0.12767035  0.42917074  0.85558584
   0.81431027  0.68038441  0.67914036
   0.02905460  0.28917933  0.61237483
   0.86865390  0.91418019  0.52258045
   0.36865382  0.58581996  0.52258043
   0.63134618  0.41418004  0.47741957
   0.31431029  0.81961572  0.67914042
   0.68568971  0.18038429  0.32085958
   0.34479107  0.87607647  0.91259390
   0.65520893  0.12392354  0.08740610
   0.62767026  0.07082930  0.85558579
   0.37232974  0.92917071  0.14441421
   0.52905447  0.21082075  0.61237476
   0.47094553  0.78917925  0.38762524

 position of ions in cartesian coordinates  (Angst):
  -1.64278629  0.15473549  3.34291581
  -0.82774836  0.93576416  2.55997539
  -0.40533504  0.49190276  1.27088277
   0.41565004  1.27145567  0.44481548
   7.58120584  5.17873552  0.81242098
   6.73745618  4.39918051  1.65680431
   6.33623125  4.86911648  2.88318636
  -5.57720583  0.81156448  8.24364899
   1.58834997  4.71884433  8.61125450
   2.40933505  5.49839724  7.78518721
  -4.73345617  1.59111950  7.39926567
   2.83174837  5.05453585  6.49609459
  -4.33223124  1.12118352  6.17288362
   3.64678630  5.83556451  5.71315417
  -0.56041402  3.14988618  5.71315393
   2.56441402  2.84041385  3.34291606
  -1.37545161  3.93091483  6.49609473
   3.37945162  2.05938520  2.55997526
  -1.79786502  3.48705332  7.78518757
   3.80186503  2.50324672  1.27088242
  -2.61884992  4.26660587  8.61125510
   4.62284993  1.72369417  0.44481490
  -1.37000589  2.18358588  8.24364882
   3.37400590  3.80671415  0.81242118
  -0.52625663  1.40403077  7.39926513
   2.53025663  4.58626926  1.65680486
  -0.12503183  1.87396707  6.17288300
   2.12903183  4.11633295  2.88318700
  -1.95525169  0.51408641  4.32354488
  -0.49437099  1.91459330  2.90572735
   0.74568187  2.25281061  0.79155651
   6.41437812  3.41943849  1.30782470
   5.68509061  4.25802909  3.51036065
   1.25831814  3.73748940  8.26451346
  -4.41037811  2.57086151  7.74824528
   2.49837100  4.07570670  6.15034263
  -3.68109059  1.73227091  5.54570933
   3.95925171  5.47621359  4.73252511
  -0.24794889  3.50923732  4.73252491
   2.25194889  2.48106270  4.32354508
  -1.70882924  4.90974402  6.15034314
   3.71282925  1.08055601  2.90572686
  -2.94888200  5.24796087  8.26451427
   4.95288201  0.74233917  0.79155573
  -0.20317849  0.42428874  7.74824482
   2.20717849  5.56601129  1.30782518
   0.52610877  1.26287955  5.54570871
   1.47789123  4.72742047  3.51036129



--------------------------------------------------------------------------------------------------------


 k-point   1 :   0.0000 0.0000 0.0000  plane waves:   32823
 k-point   2 :   0.2500 0.0000 0.0000  plane waves:   32793
 k-point   3 :   0.5000 0.0000 0.0000  plane waves:   32784
 k-point   4 :   0.0000 0.2500 0.0000  plane waves:   32811
 k-point   5 :   0.2500 0.2500 0.0000  plane waves:   32791
 k-point   6 :  -0.2500 0.2500 0.0000  plane waves:   32791
 k-point   7 :   0.5000 0.2500 0.0000  plane waves:   32816
 k-point   8 :   0.0000 0.5000 0.0000  plane waves:   32698
 k-point   9 :   0.2500 0.5000 0.0000  plane waves:   32730
 k-point  10 :   0.5000 0.5000 0.0000  plane waves:   32776
 k-point  11 :   0.0000 0.0000 0.3333  plane waves:   32812
 k-point  12 :   0.2500 0.0000 0.3333  plane waves:   32792
 k-point  13 :   0.5000 0.0000 0.3333  plane waves:   32781
 k-point  14 :  -0.2500 0.0000 0.3333  plane waves:   32791
 k-point  15 :   0.0000 0.2500 0.3333  plane waves:   32794
 k-point  16 :   0.0000 0.2500-0.3333  plane waves:   32794
 k-point  17 :   0.2500 0.2500 0.3333  plane waves:   32791
 k-point  18 :  -0.2500 0.2500-0.3333  plane waves:   32791
 k-point  19 :   0.5000 0.2500 0.3333  plane waves:   32765
 k-point  20 :   0.5000 0.2500-0.3333  plane waves:   32765
 k-point  21 :  -0.2500 0.2500 0.3333  plane waves:   32781
 k-point  22 :   0.2500 0.2500-0.3333  plane waves:   32781
 k-point  23 :   0.0000 0.5000 0.3333  plane waves:   32782
 k-point  24 :   0.2500 0.5000 0.3333  plane waves:   32776
 k-point  25 :   0.5000 0.5000 0.3333  plane waves:   32758
 k-point  26 :  -0.2500 0.5000 0.3333  plane waves:   32732

 maximum and minimum number of plane-waves per node :      1054     1001

 maximum number of plane-waves:     32823
 maximum index in each direction: 
   IXMAX=   21   IYMAX=   15   IZMAX=   28
   IXMIN=  -22   IYMIN=  -15   IZMIN=  -28


 parallel 3D FFT for wavefunctions:
    minimum data exchange during FFTs selected (reduces bandwidth)
 parallel 3D FFT for charge:
    minimum data exchange during FFTs selected (reduces bandwidth)


 total amount of memory used by VASP MPI-rank0    71482. kBytes
=======================================================================

   base      :      30000. kBytes
   nonl-proj :       4243. kBytes
   fftplans  :       2653. kBytes
   grid      :       4385. kBytes
   one-center:          6. kBytes
   wavefun   :      30195. kBytes

     INWAV:  cpu time      0.0015: real time      0.0016
 Broyden mixing: mesh for mixing (old mesh)
   NGX = 43   NGY = 31   NGZ = 57
  (NGX  =180   NGY  =128   NGZ  =240)
  gives a total of  75981 points

 initial charge density was supplied:
 charge density of overlapping atoms calculated
 number of electron     132.0000000 magnetization 
 keeping initial charge density in first step


--------------------------------------------------------------------------------------------------------


 Maximum index for augmentation-charges          485 (set IRDMAX)


--------------------------------------------------------------------------------------------------------


 First call to EWALD:  gamma=   0.230
 Maximum number of real-space cells 3x 3x 2
 Maximum number of reciprocal cells 3x 2x 4

    FEWALD:  cpu time      0.0058: real time      0.0058


--------------------------------------- Ionic step        1  -------------------------------------------




--------------------------------------- Iteration      1(   1)  ---------------------------------------


    POTLOK:  cpu time      0.0656: real time      0.0666
    SETDIJ:  cpu time      0.0080: real time      0.0081
    TRIAL :  cpu time      2.1514: real time      2.1550
    CORREC:  cpu time      0.0037: real time      0.0037
    --------------------------------------------
      LOOP:  cpu time      2.2462: real time      2.2509

 eigenvalue-minimisations  :  4784
 total energy-change (2. order) : 0.9200784E+03  (-0.9545065E+04)
 number of electron     132.0000000 magnetization 
 augmentation part      132.0000000 magnetization 

 Free energy of the ion-electron system (eV)
  ---------------------------------------------------
  alpha Z        PSCENC =       124.96893152
  Ewald energy   TEWEN  =     -1948.25569466
  -Hartree energ DENC   =     -2028.46933119
  -exchange      EXHF   =         0.00000000
  -V(xc)+E(xc)   XCENC  =       247.61637910
  PAW double counting   =      3217.45977405    -3070.36732986
  entropy T*S    EENTRO =        -0.00018499
  eigenvalues    EBANDS =         7.08818941
  atomic energy  EATOM  =      4370.03766925
  ---------------------------------------------------
  free energy    TOTEN  =       920.07840262 eV

  energy without entropy =      920.07858761  energy(sigma->0) =      920.07849512


--------------------------------------------------------------------------------------------------------




--------------------------------------- Iteration      1(   2)  ---------------------------------------


    TRIAL :  cpu time      2.6333: real time      2.6342
    CORREC:  cpu time      0.0004: real time      0.0004
    --------------------------------------------
      LOOP:  cpu time      2.6486: real time      2.6665

 eigenvalue-minimisations  :  6200
 total energy-change (2. order) :-0.1122108E+04  (-0.1071812E+04)
 number of electron     132.0000000 magnetization 
 augmentation part      132.0000000 magnetization 

 Free energy of the ion-electron system (eV)
  ---------------------------------------------------
  alpha Z        PSCENC =       124.96893152
  Ewald energy   TEWEN  =     -1948.25569466
  -Hartree energ DENC   =     -2028.46933119
  -exchange      EXHF   =         0.00000000
  -V(xc)+E(xc)   XCENC  =       247.61637910
  PAW double counting   =      3217.45977405    -3070.36732986
  entropy T*S    EENTRO =        -0.00000000
  eigenvalues    EBANDS =     -1115.02010032
  atomic energy  EATOM  =      4370.03766925
  ---------------------------------------------------
  free energy    TOTEN  =      -202.02970212 eV

  energy without entropy =     -202.02970212  energy(sigma->0) =     -202.02970212


--------------------------------------------------------------------------------------------------------




--------------------------------------- Iteration      1(   3)  ---------------------------------------


    TRIAL :  cpu time      2.5925: real time      2.5939
    CORREC:  cpu time      0.0004: real time      0.0004
    --------------------------------------------
      LOOP:  cpu time      2.6134: real time      2.6248

 eigenvalue-minimisations  :  5952
 total energy-change (2. order) :-0.1472730E+03  (-0.1459917E+03)
 number of electron     132.0000000 magnetization 
 augmentation part      132.0000000 magnetization 

 Free energy of the ion-electron system (eV)
  ---------------------------------------------------
  alpha Z        PSCENC =       124.96893152
  Ewald energy   TEWEN  =     -1948.25569466
  -Hartree energ DENC   =     -2028.46933119
  -exchange      EXHF   =         0.00000000
  -V(xc)+E(xc)   XCENC  =       247.61637910
  PAW double counting   =      3217.45977405    -3070.36732986
  entropy T*S    EENTRO =        -0.00000000
  eigenvalues    EBANDS =     -1262.29313050
  atomic energy  EATOM  =      4370.03766925
  ---------------------------------------------------
  free energy    TOTEN  =      -349.30273230 eV

  energy without entropy =     -349.30273230  energy(sigma->0) =     -349.30273230


--------------------------------------------------------------------------------------------------------




--------------------------------------- Iteration      1(   4)  ---------------------------------------


    TRIAL :  cpu time      2.4868: real time      2.4877
    CORREC:  cpu time      0.0004: real time      0.0004
    --------------------------------------------
      LOOP:  cpu time      2.5168: real time      2.5178

 eigenvalue-minimisations  :  6072
 total energy-change (2. order) :-0.5027067E+01  (-0.5007947E+01)
 number of electron     132.0000000 magnetization 
 augmentation part      132.0000000 magnetization 

 Free energy of the ion-electron system (eV)
  ---------------------------------------------------
  alpha Z        PSCENC =       124.96893152
  Ewald energy   TEWEN  =     -1948.25569466
  -Hartree energ DENC   =     -2028.46933119
  -exchange      EXHF   =         0.00000000
  -V(xc)+E(xc)   XCENC  =       247.61637910
  PAW double counting   =      3217.45977405    -3070.36732986
  entropy T*S    EENTRO =        -0.00000000
  eigenvalues    EBANDS =     -1267.32019724
  atomic energy  EATOM  =      4370.03766925
  ---------------------------------------------------
  free energy    TOTEN  =      -354.32979904 eV

  energy without entropy =     -354.32979904  energy(sigma->0) =     -354.32979904


--------------------------------------------------------------------------------------------------------




--------------------------------------- Iteration      1(   5)  ---------------------------------------


    TRIAL :  cpu time      2.5825: real time      2.5839
    CORREC:  cpu time      0.0004: real time      0.0004
    CHARGE:  cpu time      0.2004: real time      0.2014
    --------------------------------------------
      LOOP:  cpu time      2.7948: real time      2.8151

 eigenvalue-minimisations  :  6392
 total energy-change (2. order) :-0.1746866E+00  (-0.1745298E+00)
 number of electron     132.0000001 magnetization 
 augmentation part       -0.1025964 magnetization 

 Free energy of the ion-electron system (eV)
  ---------------------------------------------------
  alpha Z        PSCENC =       124.96893152
  Ewald energy   TEWEN  =     -1948.25569466
  -Hartree energ DENC   =     -2028.46933119
  -exchange      EXHF   =         0.00000000
  -V(xc)+E(xc)   XCENC  =       247.61637910
  PAW double counting   =      3217.45977405    -3070.36732986
  entropy T*S    EENTRO =        -0.00000000
  eigenvalues    EBANDS =     -1267.49488387
  atomic energy  EATOM  =      4370.03766925
  ---------------------------------------------------
  free energy    TOTEN  =      -354.50448567 eV

  energy without entropy =     -354.50448567  energy(sigma->0) =     -354.50448567


--------------------------------------------------------------------------------------------------------




--------------------------------------- Iteration      1(   6)  ---------------------------------------


    POTLOK:  cpu time      0.0478: real time      0.0478
    SETDIJ:  cpu time      0.0021: real time      0.0021
    TRIAL :  cpu time      1.2150: real time      1.2164
    CORREC:  cpu time      0.6378: real time      0.6389
    CHARGE:  cpu time      0.1913: real time      0.1913
    --------------------------------------------
      LOOP:  cpu time      2.1056: real time      2.1240

 eigenvalue-minimisations  :     0
 total energy-change (2. order) : 0.4895512E+02  (-0.1810720E+02)
 number of electron     132.0000001 magnetization 
 augmentation part       -0.1437789 magnetization 

 Free energy of the ion-electron system (eV)
  ---------------------------------------------------
  alpha Z        PSCENC =       124.96893152
  Ewald energy   TEWEN  =     -1948.25569466
  -Hartree energ DENC   =     -2733.41690158
  -exchange      EXHF   =         0.00000000
  -V(xc)+E(xc)   XCENC  =       287.29515657
  PAW double counting   =     41905.13602816   -41762.99668458
  entropy T*S    EENTRO =        -0.00000000
  eigenvalues    EBANDS =      -548.31787116
  atomic energy  EATOM  =      4370.03766925
  ---------------------------------------------------
  free energy    TOTEN  =      -305.54936648 eV

  energy without entropy =     -305.54936648  energy(sigma->0) =     -305.54936648


--------------------------------------------------------------------------------------------------------




--------------------------------------- Iteration      1(   7)  ---------------------------------------


    POTLOK:  cpu time      0.0470: real time      0.0470
    SETDIJ:  cpu time      0.0027: real time      0.0027
    TRIAL :  cpu time      1.1490: real time      1.1496
    CORREC:  cpu time      0.6270: real time      0.6270
    CHARGE:  cpu time      0.1893: real time      0.1893
    --------------------------------------------
      LOOP:  cpu time      2.0450: real time      2.0459

 eigenvalue-minimisations  :     0
 total energy-change (2. order) :-0.1808783E+02  (-0.1932065E+01)
 number of electron     132.0000001 magnetization 
 augmentation part       -0.1780074 magnetization 

 Free energy of the ion-electron system (eV)
  ---------------------------------------------------
  alpha Z        PSCENC =       124.96893152
  Ewald energy   TEWEN  =     -1948.25569466
  -Hartree energ DENC   =     -2438.19538345
  -exchange      EXHF   =         0.00000000
  -V(xc)+E(xc)   XCENC  =       272.81364515
  PAW double counting   =     52307.63750702   -52163.37628723
  entropy T*S    EENTRO =        -0.00000000
  eigenvalues    EBANDS =      -849.26757917
  atomic energy  EATOM  =      4370.03766925
  ---------------------------------------------------
  free energy    TOTEN  =      -323.63719158 eV

  energy without entropy =     -323.63719158  energy(sigma->0) =     -323.63719158


--------------------------------------------------------------------------------------------------------




--------------------------------------- Iteration      1(   8)  ---------------------------------------


    POTLOK:  cpu time      0.0473: real time      0.0473
    SETDIJ:  cpu time      0.0023: real time      0.0023
    TRIAL :  cpu time      1.1517: real time      1.1524
    CORREC:  cpu time      0.6438: real time      0.6439
    CHARGE:  cpu time      0.2169: real time      0.2173
    --------------------------------------------
      LOOP:  cpu time      2.0739: real time      2.0909

 eigenvalue-minimisations  :     0
 total energy-change (2. order) :-0.1924193E+01  (-0.6020981E+00)
 number of electron     132.0000001 magnetization 
 augmentation part       -0.1797123 magnetization 

 Free energy of the ion-electron system (eV)
  ---------------------------------------------------
  alpha Z        PSCENC =       124.96893152
  Ewald energy   TEWEN  =     -1948.25569466
  -Hartree energ DENC   =     -2427.18769219
  -exchange      EXHF   =         0.00000000
  -V(xc)+E(xc)   XCENC  =       272.57562483
  PAW double counting   =     55452.81746447   -55308.29330729
  entropy T*S    EENTRO =        -0.00000000
  eigenvalues    EBANDS =      -862.22438093
  atomic energy  EATOM  =      4370.03766925
  ---------------------------------------------------
  free energy    TOTEN  =      -325.56138501 eV

  energy without entropy =     -325.56138501  energy(sigma->0) =     -325.56138501


--------------------------------------------------------------------------------------------------------




--------------------------------------- Iteration      1(   9)  ---------------------------------------


    POTLOK:  cpu time      0.0469: real time      0.0469
    SETDIJ:  cpu time      0.0023: real time      0.0023
    TRIAL :  cpu time      1.1494: real time      1.1497
    CORREC:  cpu time      0.6271: real time      0.6271
    CHARGE:  cpu time      0.1896: real time      0.1899
    --------------------------------------------
      LOOP:  cpu time      2.0281: real time      2.0451

 eigenvalue-minimisations  :     0
 total energy-change (2. order) :-0.5951534E+00  (-0.1724836E+00)
 number of electron     132.0000001 magnetization 
 augmentation part       -0.1805745 magnetization 

 Free energy of the ion-electron system (eV)
  ---------------------------------------------------
  alpha Z        PSCENC =       124.96893152
  Ewald energy   TEWEN  =     -1948.25569466
  -Hartree energ DENC   =     -2416.38943842
  -exchange      EXHF   =         0.00000000
  -V(xc)+E(xc)   XCENC  =       272.21514522
  PAW double counting   =     55388.23094209   -55243.61398667
  entropy T*S    EENTRO =        -0.00000000
  eigenvalues    EBANDS =      -873.35010672
  atomic energy  EATOM  =      4370.03766925
  ---------------------------------------------------
  free energy    TOTEN  =      -326.15653838 eV

  energy without entropy =     -326.15653838  energy(sigma->0) =     -326.15653838


--------------------------------------------------------------------------------------------------------




--------------------------------------- Iteration      1(  10)  ---------------------------------------


    POTLOK:  cpu time      0.0470: real time      0.0470
    SETDIJ:  cpu time      0.0022: real time      0.0022
    TRIAL :  cpu time      1.1544: real time      1.1548
    CORREC:  cpu time      0.6283: real time      0.6283
    CHARGE:  cpu time      0.1948: real time      0.1952
    --------------------------------------------
      LOOP:  cpu time      2.0549: real time      2.0559

 eigenvalue-minimisations  :     0
 total energy-change (2. order) :-0.1713622E+00  (-0.3985887E-01)
 number of electron     132.0000001 magnetization 
 augmentation part       -0.1814896 magnetization 

 Free energy of the ion-electron system (eV)
  ---------------------------------------------------
  alpha Z        PSCENC =       124.96893152
  Ewald energy   TEWEN  =     -1948.25569466
  -Hartree energ DENC   =     -2410.55738433
  -exchange      EXHF   =         0.00000000
  -V(xc)+E(xc)   XCENC  =       271.97876210
  PAW double counting   =     54335.67819562   -54191.08623602
  entropy T*S    EENTRO =        -0.00000000
  eigenvalues    EBANDS =      -879.09214407
  atomic energy  EATOM  =      4370.03766925
  ---------------------------------------------------
  free energy    TOTEN  =      -326.32790060 eV

  energy without entropy =     -326.32790060  energy(sigma->0) =     -326.32790060


--------------------------------------------------------------------------------------------------------




--------------------------------------- Iteration      1(  11)  ---------------------------------------


    POTLOK:  cpu time      0.0470: real time      0.0470
    SETDIJ:  cpu time      0.0026: real time      0.0026
    TRIAL :  cpu time      1.1501: real time      1.1505
    CORREC:  cpu time      0.6256: real time      0.6256
    CHARGE:  cpu time      0.1917: real time      0.1920
    --------------------------------------------
      LOOP:  cpu time      2.0297: real time      2.0486

 eigenvalue-minimisations  :     0
 total energy-change (2. order) :-0.3980061E-01  (-0.7822700E-02)
 number of electron     132.0000001 magnetization 
 augmentation part       -0.1816924 magnetization 

 Free energy of the ion-electron system (eV)
  ---------------------------------------------------
  alpha Z        PSCENC =       124.96893152
  Ewald energy   TEWEN  =     -1948.25569466
  -Hartree energ DENC   =     -2411.44983453
  -exchange      EXHF   =         0.00000000
  -V(xc)+E(xc)   XCENC  =       271.93311746
  PAW double counting   =     53917.16290729   -53772.60511864
  entropy T*S    EENTRO =        -0.00000000
  eigenvalues    EBANDS =      -878.15967890
  atomic energy  EATOM  =      4370.03766925
  ---------------------------------------------------
  free energy    TOTEN  =      -326.36770121 eV

  energy without entropy =     -326.36770121  energy(sigma->0) =     -326.36770121


--------------------------------------------------------------------------------------------------------




--------------------------------------- Iteration      1(  12)  ---------------------------------------


    POTLOK:  cpu time      0.0467: real time      0.0467
    SETDIJ:  cpu time      0.0028: real time      0.0029
    TRIAL :  cpu time      1.1861: real time      1.1865
    CORREC:  cpu time      0.6839: real time      0.6842
    CHARGE:  cpu time      0.1918: real time      0.1918
    --------------------------------------------
      LOOP:  cpu time      2.1231: real time      2.1402

 eigenvalue-minimisations  :     0
 total energy-change (2. order) :-0.7818682E-02  (-0.1662605E-02)
 number of electron     132.0000001 magnetization 
 augmentation part       -0.1815764 magnetization 

 Free energy of the ion-electron system (eV)
  ---------------------------------------------------
  alpha Z        PSCENC =       124.96893152
  Ewald energy   TEWEN  =     -1948.25569466
  -Hartree energ DENC   =     -2410.46675025
  -exchange      EXHF   =         0.00000000
  -V(xc)+E(xc)   XCENC  =       271.86997378
  PAW double counting   =     53961.98018824   -53817.42567589
  entropy T*S    EENTRO =        -0.00000000
  eigenvalues    EBANDS =      -879.08416188
  atomic energy  EATOM  =      4370.03766925
  ---------------------------------------------------
  free energy    TOTEN  =      -326.37551989 eV

  energy without entropy =     -326.37551989  energy(sigma->0) =     -326.37551989


--------------------------------------------------------------------------------------------------------




--------------------------------------- Iteration      1(  13)  ---------------------------------------


    POTLOK:  cpu time      0.0471: real time      0.0471
    SETDIJ:  cpu time      0.0019: real time      0.0019
    TRIAL :  cpu time      1.1823: real time      1.1828
    CORREC:  cpu time      0.6255: real time      0.6258
    CHARGE:  cpu time      0.1882: real time      0.1883
    --------------------------------------------
      LOOP:  cpu time      2.0596: real time      2.0748

 eigenvalue-minimisations  :     0
 total energy-change (2. order) :-0.1662436E-02  (-0.3438491E-03)
 number of electron     132.0000001 magnetization 
 augmentation part       -0.1813396 magnetization 

 Free energy of the ion-electron system (eV)
  ---------------------------------------------------
  alpha Z        PSCENC =       124.96893152
  Ewald energy   TEWEN  =     -1948.25569466
  -Hartree energ DENC   =     -2410.93447090
  -exchange      EXHF   =         0.00000000
  -V(xc)+E(xc)   XCENC  =       271.87741202
  PAW double counting   =     54025.40211417   -53880.84996580
  entropy T*S    EENTRO =        -0.00000000
  eigenvalues    EBANDS =      -878.62317792
  atomic energy  EATOM  =      4370.03766925
  ---------------------------------------------------
  free energy    TOTEN  =      -326.37718233 eV

  energy without entropy =     -326.37718233  energy(sigma->0) =     -326.37718233


--------------------------------------------------------------------------------------------------------




--------------------------------------- Iteration      1(  14)  ---------------------------------------


    POTLOK:  cpu time      0.0467: real time      0.0467
    SETDIJ:  cpu time      0.0026: real time      0.0026
    TRIAL :  cpu time      1.1498: real time      1.1501
    CORREC:  cpu time      0.6247: real time      0.6250
    CHARGE:  cpu time      0.1888: real time      0.1889
    --------------------------------------------
      LOOP:  cpu time      2.0253: real time      2.0418

 eigenvalue-minimisations  :     0
 total energy-change (2. order) :-0.3454540E-03  (-0.7581229E-04)
 number of electron     132.0000001 magnetization 
 augmentation part       -0.1811532 magnetization 

 Free energy of the ion-electron system (eV)
  ---------------------------------------------------
  alpha Z        PSCENC =       124.96893152
  Ewald energy   TEWEN  =     -1948.25569466
  -Hartree energ DENC   =     -2410.89716432
  -exchange      EXHF   =         0.00000000
  -V(xc)+E(xc)   XCENC  =       271.87648658
  PAW double counting   =     54039.21879729   -53894.66615202
  entropy T*S    EENTRO =        -0.00000000
  eigenvalues    EBANDS =      -878.66040141
  atomic energy  EATOM  =      4370.03766925
  ---------------------------------------------------
  free energy    TOTEN  =      -326.37752778 eV

  energy without entropy =     -326.37752778  energy(sigma->0) =     -326.37752778


--------------------------------------------------------------------------------------------------------




--------------------------------------- Iteration      1(  15)  ---------------------------------------


    POTLOK:  cpu time      0.0469: real time      0.0469
    SETDIJ:  cpu time      0.0020: real time      0.0020
    TRIAL :  cpu time      1.1498: real time      1.1502
    CORREC:  cpu time      0.6319: real time      0.6324
    CHARGE:  cpu time      0.1917: real time      0.1917
    --------------------------------------------
      LOOP:  cpu time      2.0518: real time      2.0528

 eigenvalue-minimisations  :     0
 total energy-change (2. order) :-0.7682328E-04  (-0.1939690E-04)
 number of electron     132.0000001 magnetization 
 augmentation part       -0.1810825 magnetization 

 Free energy of the ion-electron system (eV)
  ---------------------------------------------------
  alpha Z        PSCENC =       124.96893152
  Ewald energy   TEWEN  =     -1948.25569466
  -Hartree energ DENC   =     -2410.97616700
  -exchange      EXHF   =         0.00000000
  -V(xc)+E(xc)   XCENC  =       271.87733129
  PAW double counting   =     54034.82971217   -53890.27679752
  entropy T*S    EENTRO =        -0.00000000
  eigenvalues    EBANDS =      -878.58258964
  atomic energy  EATOM  =      4370.03766925
  ---------------------------------------------------
  free energy    TOTEN  =      -326.37760460 eV

  energy without entropy =     -326.37760460  energy(sigma->0) =     -326.37760460


--------------------------------------------------------------------------------------------------------




--------------------------------------- Iteration      1(  16)  ---------------------------------------


    POTLOK:  cpu time      0.0471: real time      0.0471
    SETDIJ:  cpu time      0.0020: real time      0.0020
    TRIAL :  cpu time      1.1516: real time      1.1519
    CORREC:  cpu time      0.6253: real time      0.6257
    CHARGE:  cpu time      0.1905: real time      0.1905
    --------------------------------------------
      LOOP:  cpu time      2.0284: real time      2.0465

 eigenvalue-minimisations  :     0
 total energy-change (2. order) :-0.1966657E-04  (-0.5513736E-05)
 number of electron     132.0000001 magnetization 
 augmentation part       -0.1810712 magnetization 

 Free energy of the ion-electron system (eV)
  ---------------------------------------------------
  alpha Z        PSCENC =       124.96893152
  Ewald energy   TEWEN  =     -1948.25569466
  -Hartree energ DENC   =     -2410.97064750
  -exchange      EXHF   =         0.00000000
  -V(xc)+E(xc)   XCENC  =       271.87884865
  PAW double counting   =     54033.64093943   -53889.08793530
  entropy T*S    EENTRO =        -0.00000000
  eigenvalues    EBANDS =      -878.58973567
  atomic energy  EATOM  =      4370.03766925
  ---------------------------------------------------
  free energy    TOTEN  =      -326.37762427 eV

  energy without entropy =     -326.37762427  energy(sigma->0) =     -326.37762427


--------------------------------------------------------------------------------------------------------




--------------------------------------- Iteration      1(  17)  ---------------------------------------


    POTLOK:  cpu time      0.0467: real time      0.0467
    SETDIJ:  cpu time      0.0023: real time      0.0023
    TRIAL :  cpu time      1.2092: real time      1.2096
    CORREC:  cpu time      0.6244: real time      0.6248
    CHARGE:  cpu time      0.1906: real time      0.1906
    --------------------------------------------
      LOOP:  cpu time      2.0848: real time      2.1035

 eigenvalue-minimisations  :     0
 total energy-change (2. order) :-0.5561567E-05  (-0.1720686E-05)
 number of electron     132.0000001 magnetization 
 augmentation part       -0.1810759 magnetization 

 Free energy of the ion-electron system (eV)
  ---------------------------------------------------
  alpha Z        PSCENC =       124.96893152
  Ewald energy   TEWEN  =     -1948.25569466
  -Hartree energ DENC   =     -2410.99765673
  -exchange      EXHF   =         0.00000000
  -V(xc)+E(xc)   XCENC  =       271.87937632
  PAW double counting   =     54035.64151807   -53891.08842870
  entropy T*S    EENTRO =        -0.00000000
  eigenvalues    EBANDS =      -878.56334490
  atomic energy  EATOM  =      4370.03766925
  ---------------------------------------------------
  free energy    TOTEN  =      -326.37762983 eV

  energy without entropy =     -326.37762983  energy(sigma->0) =     -326.37762983


--------------------------------------------------------------------------------------------------------




--------------------------------------- Iteration      1(  18)  ---------------------------------------


    POTLOK:  cpu time      0.0468: real time      0.0468
    SETDIJ:  cpu time      0.0020: real time      0.0020
    TRIAL :  cpu time      1.1600: real time      1.1604
    CORREC:  cpu time      0.6445: real time      0.6448
    CHARGE:  cpu time      0.1881: real time      0.1882
    --------------------------------------------
      LOOP:  cpu time      2.0709: real time      2.0717

 eigenvalue-minimisations  :     0
 total energy-change (2. order) :-0.1702101E-05  (-0.5715799E-06)
 number of electron     132.0000001 magnetization 
 augmentation part       -0.1810761 magnetization 

 Free energy of the ion-electron system (eV)
  ---------------------------------------------------
  alpha Z        PSCENC =       124.96893152
  Ewald energy   TEWEN  =     -1948.25569466
  -Hartree energ DENC   =     -2410.98673070
  -exchange      EXHF   =         0.00000000
  -V(xc)+E(xc)   XCENC  =       271.87946355
  PAW double counting   =     54037.11302630   -53892.55988878
  entropy T*S    EENTRO =        -0.00000000
  eigenvalues    EBANDS =      -878.57440801
  atomic energy  EATOM  =      4370.03766925
  ---------------------------------------------------
  free energy    TOTEN  =      -326.37763154 eV

  energy without entropy =     -326.37763154  energy(sigma->0) =     -326.37763154


--------------------------------------------------------------------------------------------------------




--------------------------------------- Iteration      1(  19)  ---------------------------------------


    POTLOK:  cpu time      0.0471: real time      0.0471
    SETDIJ:  cpu time      0.0018: real time      0.0018
    TRIAL :  cpu time      1.1488: real time      1.1494
    CORREC:  cpu time      0.6238: real time      0.6243
    CHARGE:  cpu time      0.1888: real time      0.1889
    --------------------------------------------
      LOOP:  cpu time      2.0247: real time      2.0410

 eigenvalue-minimisations  :     0
 total energy-change (2. order) :-0.5279799E-06  (-0.1244784E-06)
 number of electron     132.0000001 magnetization 
 augmentation part       -0.1810767 magnetization 

 Free energy of the ion-electron system (eV)
  ---------------------------------------------------
  alpha Z        PSCENC =       124.96893152
  Ewald energy   TEWEN  =     -1948.25569466
  -Hartree energ DENC   =     -2410.99898901
  -exchange      EXHF   =         0.00000000
  -V(xc)+E(xc)   XCENC  =       271.87981020
  PAW double counting   =     54036.33592450   -53891.78284814
  entropy T*S    EENTRO =        -0.00000000
  eigenvalues    EBANDS =      -878.56243572
  atomic energy  EATOM  =      4370.03766925
  ---------------------------------------------------
  free energy    TOTEN  =      -326.37763206 eV

  energy without entropy =     -326.37763206  energy(sigma->0) =     -326.37763206


--------------------------------------------------------------------------------------------------------




--------------------------------------- Iteration      1(  20)  ---------------------------------------


    POTLOK:  cpu time      0.0465: real time      0.0465
    SETDIJ:  cpu time      0.0024: real time      0.0024
    TRIAL :  cpu time      1.1830: real time      1.1833
    CORREC:  cpu time      0.6251: real time      0.6256
    CHARGE:  cpu time      0.2003: real time      0.2003
    --------------------------------------------
      LOOP:  cpu time      2.0693: real time      2.0875

 eigenvalue-minimisations  :     0
 total energy-change (2. order) :-0.1260996E-06  (-0.4943685E-07)
 number of electron     132.0000001 magnetization 
 augmentation part       -0.1810768 magnetization 

 Free energy of the ion-electron system (eV)
  ---------------------------------------------------
  alpha Z        PSCENC =       124.96893152
  Ewald energy   TEWEN  =     -1948.25569466
  -Hartree energ DENC   =     -2410.99146694
  -exchange      EXHF   =         0.00000000
  -V(xc)+E(xc)   XCENC  =       271.87960970
  PAW double counting   =     54035.59816987   -53891.04509063
  entropy T*S    EENTRO =        -0.00000000
  eigenvalues    EBANDS =      -878.56976029
  atomic energy  EATOM  =      4370.03766925
  ---------------------------------------------------
  free energy    TOTEN  =      -326.37763219 eV

  energy without entropy =     -326.37763219  energy(sigma->0) =     -326.37763219


--------------------------------------------------------------------------------------------------------




--------------------------------------- Iteration      1(  21)  ---------------------------------------


    POTLOK:  cpu time      0.0466: real time      0.0466
    SETDIJ:  cpu time      0.0028: real time      0.0028
    TRIAL :  cpu time      1.1807: real time      1.1814
    CORREC:  cpu time      0.6257: real time      0.6258
    EDDIAG:  cpu time      0.4071: real time      0.4083
    CHARGE:  cpu time      0.1888: real time      0.1888
    --------------------------------------------
      LOOP:  cpu time      2.4813: real time      2.4834

 eigenvalue-minimisations  :     0
 total energy-change (2. order) :-0.5042966E-07  (-0.4422917E-07)
 number of electron     132.0000001 magnetization 
 augmentation part       -0.1810778 magnetization 

 Free energy of the ion-electron system (eV)
  ---------------------------------------------------
  alpha Z        PSCENC =       124.96893152
  Ewald energy   TEWEN  =     -1948.25569466
  -Hartree energ DENC   =     -2410.99127722
  -exchange      EXHF   =         0.00000000
  -V(xc)+E(xc)   XCENC  =       271.87953872
  PAW double counting   =     54035.14898438   -53890.59590932
  entropy T*S    EENTRO =        -0.00000000
  eigenvalues    EBANDS =      -878.56987490
  atomic energy  EATOM  =      4370.03766925
  ---------------------------------------------------
  free energy    TOTEN  =      -326.37763224 eV

  energy without entropy =     -326.37763224  energy(sigma->0) =     -326.37763224


--------------------------------------------------------------------------------------------------------


  average scaling for gradient   0.9253


 average (electrostatic) potential at core
  the test charge radii are     0.5770  0.4325
  (the norm of the test charge is              1.0000)
       1 -80.5834       2 -80.5667       3 -80.8249       4 -80.5558       5 -80.8109
       6 -80.4950       7 -80.5560       8 -80.8109       9 -80.5558      10 -80.8249
      11 -80.4950      12 -80.5667      13 -80.5560      14 -80.5834      15 -80.5834
      16 -80.5834      17 -80.5667      18 -80.5667      19 -80.8249      20 -80.8249
      21 -80.5558      22 -80.5558      23 -80.8109      24 -80.8109      25 -80.4950
      26 -80.4950      27 -80.5560      28 -80.5560      29 -39.4343      30 -39.3957
      31 -39.3443      32 -39.2718      33 -39.3710      34 -39.3443      35 -39.2718
      36 -39.3957      37 -39.3710      38 -39.4343      39 -39.4343      40 -39.4343
      41 -39.3957      42 -39.3957      43 -39.3443      44 -39.3443      45 -39.2718
      46 -39.2718      47 -39.3710      48 -39.3710



 E-fermi :   0.7738     XC(G=0):  -8.2624     alpha+bet : -7.6605

 Fermi energy:         0.7738429212

 k-point     1 :       0.0000    0.0000    0.0000
  band No.  band energies     occupation 
      1     -16.4677      2.00000
      2     -16.3092      2.00000
      3     -15.5792      2.00000
      4     -15.5643      2.00000
      5     -14.3455      2.00000
      6     -14.3174      2.00000
      7     -13.7899      2.00000
      8     -13.7816      2.00000
      9     -12.9515      2.00000
     10     -12.9487      2.00000
     11     -12.7319      2.00000
     12     -12.6142      2.00000
     13     -11.7410      2.00000
     14     -11.6873      2.00000
     15     -10.4594      2.00000
     16     -10.3516      2.00000
     17      -9.5994      2.00000
     18      -9.5304      2.00000
     19      -9.3534      2.00000
     20      -9.2540      2.00000
     21      -8.9920      2.00000
     22      -8.9423      2.00000
     23      -7.6922      2.00000
     24      -7.5903      2.00000
     25      -7.3149      2.00000
     26      -7.1270      2.00000
     27      -6.9702      2.00000
     28      -6.7973      2.00000
     29      -5.8959      2.00000
     30      -5.8844      2.00000
     31      -5.5944      2.00000
     32      -5.5097      2.00000
     33      -5.4709      2.00000
     34      -5.3284      2.00000
     35      -5.3094      2.00000
     36      -5.2139      2.00000
     37      -4.5416      2.00000
     38      -4.5261      2.00000
     39      -4.3944      2.00000
     40      -4.3505      2.00000
     41      -4.2344      2.00000
     42      -4.1223      2.00000
     43      -4.1152      2.00000
     44      -3.9220      2.00000
     45      -3.8813      2.00000
     46      -3.8748      2.00000
     47      -3.6103      2.00000
     48      -3.5669      2.00000
     49      -3.5639      2.00000
     50      -3.3307      2.00000
     51      -2.7739      2.00000
     52      -2.6940      2.00000
     53      -2.6129      2.00000
     54      -2.3687      2.00000
     55      -2.3455      2.00000
     56      -2.1963      2.00000
     57      -1.9391      2.00000
     58      -1.9374      2.00000
     59      -1.9364      2.00000
     60      -1.6481      2.00000
     61      -1.0463      2.00000
     62      -0.8575      2.00000
     63      -0.7923      2.00000
     64      -0.4452      2.00000
     65       0.4805      2.00000
     66       0.5158      2.00000
     67       2.6964      0.00000
     68       3.2428      0.00000
     69       3.7859      0.00000
     70       4.4362      0.00000
     71       4.5195      0.00000
     72       4.7778      0.00000
     73       5.3233      0.00000
     74       5.5225      0.00000
     75       5.7846      0.00000
     76       5.8418      0.00000
     77       5.9662      0.00000
     78       6.4507      0.00000
     79       7.0267      0.00000
     80       7.3367      0.00000
     81       7.5159      0.00000
     82       7.6238      0.00000
     83       7.7650      0.00000
     84       7.8580      0.00000
     85       7.8817      0.00000
     86       8.1793      0.00000
     87       8.2418      0.00000
     88       8.3213      0.00000
     89       8.7281      0.00000
     90       8.9543      0.00000
     91       8.9719      0.00000
     92       9.1449      0.00000

 k-point     2 :       0.2500    0.0000    0.0000
  band No.  band energies     occupation 
      1     -16.4457      2.00000
      2     -16.3338      2.00000
      3     -15.5782      2.00000
      4     -15.5673      2.00000
      5     -14.3375      2.00000
      6     -14.3178      2.00000
      7     -13.7874      2.00000
      8     -13.7814      2.00000
      9     -12.9540      2.00000
     10     -12.9518      2.00000
     11     -12.7145      2.00000
     12     -12.6314      2.00000
     13     -11.7349      2.00000
     14     -11.6969      2.00000
     15     -10.4424      2.00000
     16     -10.3662      2.00000
     17      -9.5895      2.00000
     18      -9.5406      2.00000
     19      -9.3468      2.00000
     20      -9.2766      2.00000
     21      -8.9807      2.00000
     22      -8.9451      2.00000
     23      -7.6763      2.00000
     24      -7.6043      2.00000
     25      -7.2862      2.00000
     26      -7.1576      2.00000
     27      -6.9303      2.00000
     28      -6.8139      2.00000
     29      -5.9069      2.00000
     30      -5.8915      2.00000
     31      -5.5982      2.00000
     32      -5.5116      2.00000
     33      -5.3602      2.00000
     34      -5.3203      2.00000
     35      -5.3055      2.00000
     36      -5.1746      2.00000
     37      -4.6508      2.00000
     38      -4.6253      2.00000
     39      -4.3938      2.00000
     40      -4.3457      2.00000
     41      -4.1915      2.00000
     42      -4.1531      2.00000
     43      -4.1363      2.00000
     44      -4.0194      2.00000
     45      -3.8900      2.00000
     46      -3.8614      2.00000
     47      -3.6135      2.00000
     48      -3.5976      2.00000
     49      -3.4572      2.00000
     50      -3.2899      2.00000
     51      -2.7785      2.00000
     52      -2.7176      2.00000
     53      -2.5257      2.00000
     54      -2.3653      2.00000
     55      -2.3519      2.00000
     56      -2.2270      2.00000
     57      -1.9723      2.00000
     58      -1.9339      2.00000
     59      -1.8532      2.00000
     60      -1.7095      2.00000
     61      -1.0418      2.00000
     62      -0.9136      2.00000
     63      -0.7240      2.00000
     64      -0.4872      2.00000
     65       0.5228      2.00000
     66       0.5496      2.00000
     67       2.7764      0.00000
     68       3.1635      0.00000
     69       3.8650      0.00000
     70       4.3203      0.00000
     71       4.5837      0.00000
     72       4.7448      0.00000
     73       5.2265      0.00000
     74       5.6642      0.00000
     75       5.8306      0.00000
     76       5.8470      0.00000
     77       5.9397      0.00000
     78       6.3401      0.00000
     79       6.9256      0.00000
     80       7.1972      0.00000
     81       7.4723      0.00000
     82       7.6461      0.00000
     83       7.8665      0.00000
     84       7.8796      0.00000
     85       7.9431      0.00000
     86       8.1177      0.00000
     87       8.1877      0.00000
     88       8.5069      0.00000
     89       8.5836      0.00000
     90       8.6312      0.00000
     91       8.9442      0.00000
     92       9.3804      0.00000

 k-point     3 :       0.5000    0.0000    0.0000
  band No.  band energies     occupation 
      1     -16.3911      2.00000
      2     -16.3911      2.00000
      3     -15.5737      2.00000
      4     -15.5737      2.00000
      5     -14.3239      2.00000
      6     -14.3239      2.00000
[...]
    FORNL :  cpu time      1.1092: real time      1.1098
    FORCOR:  cpu time      0.0507: real time      0.0507
    OFIELD:  cpu time      0.0032: real time      0.0035

  Hirshfeld charges:
            ion         q(e)     
   ------------------------------
      1     C       -0.04286955
      2     C       -0.03920948
      3     C        0.00300296
      4     C       -0.03609095
      5     C        0.00196675
      6     C       -0.03960242
      7     C       -0.04238073
      8     C        0.00196675
      9     C       -0.03609095
     10     C        0.00300296
     11     C       -0.03960242
     12     C       -0.03920947
     13     C       -0.04238072
     14     C       -0.04286952
     15     C       -0.04286951
     16     C       -0.04286952
     17     C       -0.03920972
     18     C       -0.03920976
     19     C        0.00300301
     20     C        0.00300301
     21     C       -0.03609095
     22     C       -0.03609098
     23     C        0.00196704
     24     C        0.00196705
     25     C       -0.03960194
     26     C       -0.03960192
     27     C       -0.04238061
     28     C       -0.04238060
     29     H        0.03866533
     30     H        0.04031728
     31     H        0.03996793
     32     H        0.03449683
     33     H        0.04173579
     34     H        0.03996793
     35     H        0.03449683
     36     H        0.04031728
     37     H        0.04173581
     38     H        0.03866535
     39     H        0.03866533
     40     H        0.03866531
     41     H        0.04031723
     42     H        0.04031719
     43     H        0.03996789
     44     H        0.03996784
     45     H        0.03449681
     46     H        0.03449685
     47     H        0.04173567
     48     H        0.04173569

  Atomic reference data used in the T-S method for vdW correction:
            C6at              R0at           ALPHAat      REFSTATE
            (au)              (au)            (au)                
   ---------------------------------------------------------------
   C          46.600          3.590         12.000         0
   H           6.500          3.099          4.500         0
 
 Nth order contribution to Edisp (eV)
 Edisp(N=2):  -3.8310119733628367     
 Edisp(N=3):  0.43570636737499657     
 Edisp(N=4): -0.29109762130220246     
 Edisp(N=5):  0.10300889943125642     
 Edisp(N=6):  -6.2343181056786684E-002
 Edisp(N=inf):  -3.6262263537010959     

  Tkatchenko/Scheffler method for vdW energy calculation
  ---------------------------------------------------------------------------------------------

  Parameters of vdW forcefield:
            C6ts              R0ts          ALPHAts         R0scs        ALPHAscs        RELVOL 
            (au)              (au)           (au)            (au)          (au)                 
   ---------------------------------------------------------------------------------------------
   C          32.151          3.375          9.967          3.369          9.912          0.831
   C          32.450          3.380         10.014          3.296          9.283          0.834
   C          34.203          3.410         10.281          3.181          8.343          0.857
   C          33.196          3.393         10.128          3.377          9.983          0.844
   C          34.361          3.413         10.304          3.168          8.241          0.859
   C          33.052          3.391         10.106          3.288          9.219          0.842
   C          32.333          3.378          9.996          3.360          9.836          0.833
   C          34.361          3.413         10.304          3.168          8.241          0.859
   C          33.196          3.393         10.128          3.377          9.983          0.844
   C          34.203          3.410         10.281          3.181          8.343          0.857
   C          33.052          3.391         10.106          3.288          9.219          0.842
   C          32.450          3.380         10.014          3.296          9.283          0.834
   C          32.333          3.378          9.996          3.360          9.836          0.833
   C          32.151          3.375          9.967          3.369          9.912          0.831
   C          32.151          3.375          9.967          3.369          9.912          0.831
   C          32.151          3.375          9.967          3.369          9.912          0.831
   C          32.450          3.380         10.014          3.296          9.283          0.834
   C          32.450          3.380         10.014          3.296          9.283          0.834
   C          34.203          3.410         10.281          3.181          8.343          0.857
   C          34.203          3.410         10.281          3.181          8.343          0.857
   C          33.196          3.393         10.128          3.377          9.983          0.844
   C          33.196          3.393         10.128          3.377          9.983          0.844
   C          34.361          3.413         10.304          3.168          8.241          0.859
   C          34.361          3.413         10.304          3.168          8.241          0.859
   C          33.052          3.391         10.106          3.288          9.219          0.842
   C          33.052          3.391         10.106          3.288          9.219          0.842
   C          32.333          3.378          9.996          3.360          9.836          0.833
   C          32.333          3.378          9.996          3.360          9.836          0.833
   H           3.435          2.787          3.272          2.535          2.463          0.727
   H           3.513          2.797          3.308          2.496          2.349          0.735
   H           3.767          2.830          3.426          2.450          2.224          0.761
   H           3.824          2.837          3.452          2.492          2.339          0.767
   H           3.367          2.777          3.239          2.523          2.428          0.720
   H           3.767          2.830          3.426          2.450          2.224          0.761
   H           3.824          2.837          3.452          2.492          2.339          0.767
   H           3.513          2.797          3.308          2.496          2.349          0.735
   H           3.367          2.777          3.239          2.523          2.428          0.720
   H           3.435          2.787          3.272          2.535          2.463          0.727
   H           3.435          2.787          3.272          2.535          2.463          0.727
   H           3.435          2.787          3.272          2.535          2.463          0.727
   H           3.513          2.797          3.308          2.496          2.349          0.735
   H           3.513          2.797          3.308          2.496          2.349          0.735
   H           3.767          2.830          3.426          2.450          2.224          0.761
   H           3.767          2.830          3.426          2.450          2.224          0.761
   H           3.824          2.837          3.452          2.492          2.339          0.767
   H           3.824          2.837          3.452          2.492          2.339          0.767
   H           3.367          2.777          3.239          2.523          2.428          0.720
   H           3.367          2.777          3.239          2.523          2.428          0.720

  vdW correction parametrized for the method pbe       

  IVDW = 202
  VDW_RADIUS =    50.000 A
  VDW_SR =     0.830
  VDW_D =     6.000
  SCSRAD =   120.000 A
  LVDWSCS = T
  LSCSGRAD = T
  LSCALER0 = T
  ITIM = -1
  Edisp (eV):   -3.62623
    FORVDW:  cpu time    166.1185: real time    166.2054

 VOLUME and BASIS-vectors are now :
 -----------------------------------------------------------------------------
  energy-cutoff  :     1000.00
  volume of cell :      456.47
      direct lattice vectors                 reciprocal lattice vectors
     8.414400000  0.000000000  0.000000000     0.118843887 -0.000000000  0.084124444
     0.000000000  5.990300000  0.000000000     0.000000000  0.166936547 -0.000000000
    -6.410400000  0.000000000  9.056070000     0.000000000  0.000000000  0.110423175

  length of vectors
     8.414400000  5.990300000 11.095297743     0.145604916  0.166936547  0.110423175


 FORCES acting on ions:
    Electron-Ion                     Ewald-Force                    Non-Local-Force
 -----------------------------------------------------------------------------------------------
   0.369E+02 -.296E+02 -.136E+03   -.363E+02 0.304E+02 0.135E+03   -.618E+00 -.897E+00 0.276E+00
   -.292E+02 -.963E+02 -.960E+02   0.287E+02 0.964E+02 0.970E+02   0.524E+00 -.871E-01 -.111E+01
   -.688E+01 -.369E+02 -.570E+02   0.737E+01 0.377E+02 0.569E+02   -.514E+00 -.815E+00 0.139E+00
   -.277E+02 -.101E+03 -.479E+02   0.280E+02 0.101E+03 0.481E+02   -.221E+00 -.674E+00 -.204E+00
   0.138E+02 0.373E+02 -.204E+02   -.138E+02 -.381E+02 0.200E+02   0.495E-01 0.815E+00 0.542E+00
   0.281E+02 0.942E+02 -.267E+02   -.289E+02 -.951E+02 0.274E+02   0.938E+00 0.925E+00 -.737E+00
   0.646E+02 0.542E+02 -.117E+03   -.646E+02 -.551E+02 0.116E+03   0.431E-02 0.876E+00 0.980E+00
   -.138E+02 -.373E+02 0.204E+02   0.138E+02 0.381E+02 -.200E+02   -.495E-01 -.815E+00 -.542E+00
   0.277E+02 0.101E+03 0.479E+02   -.280E+02 -.101E+03 -.481E+02   0.221E+00 0.674E+00 0.204E+00
   0.688E+01 0.369E+02 0.570E+02   -.737E+01 -.377E+02 -.569E+02   0.514E+00 0.815E+00 -.139E+00
   -.281E+02 -.942E+02 0.267E+02   0.289E+02 0.951E+02 -.274E+02   -.938E+00 -.925E+00 0.737E+00
   0.292E+02 0.963E+02 0.960E+02   -.287E+02 -.964E+02 -.970E+02   -.524E+00 0.871E-01 0.111E+01
   -.646E+02 -.542E+02 0.117E+03   0.646E+02 0.551E+02 -.116E+03   -.431E-02 -.876E+00 -.980E+00
   -.369E+02 0.296E+02 0.136E+03   0.363E+02 -.304E+02 -.135E+03   0.618E+00 0.897E+00 -.276E+00
   -.369E+02 -.296E+02 0.136E+03   0.363E+02 0.304E+02 -.135E+03   0.618E+00 -.897E+00 -.276E+00
   0.369E+02 0.296E+02 -.136E+03   -.363E+02 -.304E+02 0.135E+03   -.618E+00 0.897E+00 0.276E+00
   0.292E+02 -.963E+02 0.960E+02   -.287E+02 0.964E+02 -.970E+02   -.524E+00 -.871E-01 0.111E+01
   -.292E+02 0.963E+02 -.960E+02   0.287E+02 -.964E+02 0.970E+02   0.524E+00 0.871E-01 -.111E+01
   0.688E+01 -.369E+02 0.570E+02   -.737E+01 0.377E+02 -.569E+02   0.514E+00 -.815E+00 -.139E+00
   -.688E+01 0.369E+02 -.570E+02   0.737E+01 -.377E+02 0.569E+02   -.514E+00 0.815E+00 0.139E+00
   0.277E+02 -.101E+03 0.479E+02   -.280E+02 0.101E+03 -.481E+02   0.221E+00 -.674E+00 0.204E+00
   -.277E+02 0.101E+03 -.479E+02   0.280E+02 -.101E+03 0.481E+02   -.221E+00 0.674E+00 -.204E+00
   -.138E+02 0.373E+02 0.204E+02   0.138E+02 -.381E+02 -.200E+02   -.495E-01 0.815E+00 -.542E+00
   0.138E+02 -.373E+02 -.204E+02   -.138E+02 0.381E+02 0.200E+02   0.495E-01 -.815E+00 0.542E+00
   -.281E+02 0.942E+02 0.267E+02   0.289E+02 -.951E+02 -.274E+02   -.938E+00 0.925E+00 0.737E+00
   0.281E+02 -.942E+02 -.267E+02   -.289E+02 0.951E+02 0.274E+02   0.938E+00 -.925E+00 -.737E+00
   -.646E+02 0.542E+02 0.117E+03   0.646E+02 -.551E+02 -.116E+03   -.431E-02 0.876E+00 -.980E+00
   0.646E+02 -.542E+02 -.117E+03   -.646E+02 0.551E+02 0.116E+03   0.431E-02 -.876E+00 0.980E+00
   0.153E+02 -.170E+02 -.461E+02   -.169E+02 0.190E+02 0.513E+02   0.162E+01 -.194E+01 -.518E+01
   -.147E+02 -.457E+02 -.298E+02   0.165E+02 0.508E+02 0.316E+02   -.175E+01 -.518E+01 -.183E+01
   -.113E+02 -.451E+02 -.220E+02   0.130E+02 0.502E+02 0.239E+02   -.176E+01 -.519E+01 -.184E+01
   0.829E+01 0.434E+02 -.247E+00   -.101E+02 -.486E+02 -.159E+01   0.176E+01 0.525E+01 0.184E+01
   0.302E+02 0.301E+02 -.400E+02   -.337E+02 -.334E+02 0.432E+02   0.343E+01 0.326E+01 -.327E+01
   0.113E+02 0.451E+02 0.220E+02   -.130E+02 -.502E+02 -.239E+02   0.176E+01 0.519E+01 0.184E+01
   -.829E+01 -.434E+02 0.247E+00   0.101E+02 0.486E+02 0.159E+01   -.176E+01 -.525E+01 -.184E+01
   0.147E+02 0.457E+02 0.298E+02   -.165E+02 -.508E+02 -.316E+02   0.175E+01 0.518E+01 0.183E+01
   -.302E+02 -.301E+02 0.400E+02   0.337E+02 0.334E+02 -.432E+02   -.343E+01 -.326E+01 0.327E+01
   -.153E+02 0.170E+02 0.461E+02   0.169E+02 -.190E+02 -.513E+02   -.162E+01 0.194E+01 0.518E+01
   -.153E+02 -.170E+02 0.461E+02   0.169E+02 0.190E+02 -.513E+02   -.162E+01 -.194E+01 0.518E+01
   0.153E+02 0.170E+02 -.461E+02   -.169E+02 -.190E+02 0.513E+02   0.162E+01 0.194E+01 -.518E+01
   0.147E+02 -.457E+02 0.298E+02   -.165E+02 0.508E+02 -.316E+02   0.175E+01 -.518E+01 0.183E+01
   -.147E+02 0.457E+02 -.298E+02   0.165E+02 -.508E+02 0.316E+02   -.175E+01 0.518E+01 -.183E+01
   0.113E+02 -.451E+02 0.220E+02   -.130E+02 0.502E+02 -.239E+02   0.176E+01 -.519E+01 0.184E+01
   -.113E+02 0.451E+02 -.220E+02   0.130E+02 -.502E+02 0.239E+02   -.176E+01 0.519E+01 -.184E+01
   -.829E+01 0.434E+02 0.247E+00   0.101E+02 -.486E+02 0.159E+01   -.176E+01 0.525E+01 -.184E+01
   0.829E+01 -.434E+02 -.247E+00   -.101E+02 0.486E+02 -.159E+01   0.176E+01 -.525E+01 0.184E+01
   -.302E+02 0.301E+02 0.400E+02   0.337E+02 -.334E+02 -.432E+02   -.343E+01 0.326E+01 0.327E+01
   0.302E+02 -.301E+02 -.400E+02   -.337E+02 0.334E+02 0.432E+02   0.343E+01 -.326E+01 -.327E+01
 -----------------------------------------------------------------------------------------------
   -.809E-04 -.110E-03 0.342E-04   0.107E-12 0.107E-12 0.853E-13   -.888E-15 0.888E-15 0.000E+00


 POSITION                                       TOTAL-FORCE (eV/Angst)
 -----------------------------------------------------------------------------------
     -1.64279      0.15474      3.34292         0.005742     -0.043481     -0.058008
     -0.82775      0.93576      2.55998        -0.017399     -0.054485     -0.041806
     -0.40534      0.49190      1.27088         0.014947      0.027358      0.007039
      0.41565      1.27146      0.44482        -0.024425     -0.080566     -0.020874
      7.58121      5.17874      0.81242        -0.010825     -0.034583     -0.011461
      6.73746      4.39918      1.65680         0.041272      0.062638      0.007434
      6.33623      4.86912      2.88319         0.039802      0.057813     -0.002567
     -5.57721      0.81156      8.24365         0.010825      0.034583      0.011461
      1.58835      4.71884      8.61125         0.024425      0.080566      0.020874
      2.40934      5.49840      7.78519        -0.014947     -0.027358     -0.007039
     -4.73346      1.59112      7.39927        -0.041272     -0.062638     -0.007434
      2.83175      5.05454      6.49609         0.017399      0.054485      0.041806
     -4.33223      1.12118      6.17288        -0.039802     -0.057813      0.002567
      3.64679      5.83556      5.71315        -0.005742      0.043481      0.058008
     -0.56041      3.14989      5.71315        -0.005755     -0.043460      0.058004
      2.56441      2.84041      3.34292         0.005755      0.043460     -0.058004
     -1.37545      3.93091      6.49609         0.017383     -0.054470      0.041806
      3.37945      2.05939      2.55998        -0.017383      0.054470     -0.041806
     -1.79787      3.48705      7.78519        -0.014944      0.027376     -0.007067
      3.80187      2.50325      1.27088         0.014944     -0.027376      0.007067
     -2.61885      4.26661      8.61126         0.024427     -0.080548      0.020850
      4.62285      1.72369      0.44481        -0.024427      0.080548     -0.020850
     -1.37001      2.18359      8.24365         0.010815     -0.034579      0.011466
      3.37401      3.80671      0.81242        -0.010815      0.034579     -0.011466
     -0.52626      1.40403      7.39927        -0.041262      0.062629     -0.007437
      2.53026      4.58627      1.65680         0.041262     -0.062629      0.007437
     -0.12503      1.87397      6.17288        -0.039786      0.057805      0.002550
      2.12903      4.11633      2.88319         0.039786     -0.057805     -0.002550
     -1.95525      0.51409      4.32354        -0.005243      0.003718      0.021021
     -0.49437      1.91459      2.90573         0.004734      0.022840      0.009664
      0.74568      2.25281      0.79156         0.008396      0.017465      0.005353
      6.41438      3.41944      1.30782        -0.019822     -0.024763     -0.014161
      5.68509      4.25803      3.51036        -0.001281      0.001121      0.004983
      1.25832      3.73749      8.26451        -0.008396     -0.017465     -0.005353
     -4.41038      2.57086      7.74825         0.019822      0.024763      0.014161
      2.49837      4.07571      6.15034        -0.004734     -0.022840     -0.009664
     -3.68109      1.73227      5.54571         0.001281     -0.001121     -0.004983
      3.95925      5.47621      4.73253         0.005243     -0.003718     -0.021021
     -0.24795      3.50924      4.73252         0.005242      0.003722     -0.021024
      2.25195      2.48106      4.32355        -0.005242     -0.003722      0.021024
     -1.70883      4.90974      6.15034        -0.004732      0.022835     -0.009665
      3.71283      1.08056      2.90573         0.004732     -0.022835      0.009665
     -2.94888      5.24796      8.26451        -0.008395      0.017467     -0.005354
      4.95288      0.74234      0.79156         0.008395     -0.017467      0.005354
     -0.20318      0.42429      7.74824         0.019826     -0.024771      0.014163
      2.20718      5.56601      1.30783        -0.019826      0.024771     -0.014163
      0.52611      1.26288      5.54571         0.001284      0.001119     -0.004987
      1.47789      4.72742      3.51036        -0.001284     -0.001119      0.004987
 -----------------------------------------------------------------------------------
    total drift:                               -0.000081     -0.000110      0.000034


--------------------------------------------------------------------------------------------------------



  FREE ENERGIE OF THE ION-ELECTRON SYSTEM (eV)
  ---------------------------------------------------
  free  energy   TOTEN  =      -330.00385859 eV

  energy  without entropy=     -330.00385859  energy(sigma->0) =     -330.00385859



--------------------------------------------------------------------------------------------------------


    POTLOK:  cpu time      0.4301: real time      0.4308


--------------------------------------------------------------------------------------------------------


 stress matrix after NEB project (eV)
     -4.00863      0.00001     -0.37171
      0.00001     -3.29207      0.00000
     -0.37171      0.00000     -3.40036
  FORCES: max atom, RMS     0.086736    0.052967
  FORCE total and by dimension    0.366965    0.080566
  Stress total and by dimension    6.224600    4.008633
     LOOP+:  cpu time    222.6101: real time    222.9735
    4ORBIT:  cpu time      0.0000: real time      0.0000

 total amount of memory used by VASP MPI-rank0    71482. kBytes
=======================================================================

   base      :      30000. kBytes
   nonl-proj :       4243. kBytes
   fftplans  :       2653. kBytes
   grid      :       4385. kBytes
   one-center:          6. kBytes
   wavefun   :      30195. kBytes

  
  
 General timing and accounting informations for this job:
 ========================================================
  
                  Total CPU time used (sec):      246.148
                            User time (sec):      242.407
                          System time (sec):        3.742
                         Elapsed time (sec):      250.358
  
                   Maximum memory used (kb):      271144.
                   Average memory used (kb):          N/A
  
                          Minor page faults:       213377
                          Major page faults:          881
                 Voluntary context switches:         3359
