 vasp.6.4.1 05Apr23 (build Jun  6 2023 14:46:38) gamma-only                      
 executed on        HPECrayEX_GCC date 2024.08.22  04:09:50
 running  512 mpi-ranks, with    1 threads/rank, on    4 nodes
 distrk:  each k-point on  512 cores,    1 groups
 distr:  one band on NCORE= 128 cores,    4 groups


--------------------------------------------------------------------------------------------------------


 INCAR:
   ALGO = Conjugate
   NPAR = 4
   ISMEAR = 0
   SIGMA = 0.01
   PREC = Accurate
   EDIFF = 1E-7
   ENCUT = 1000
   ISIF = 0
   GGA = MK
   PARAM1 = 0.1234
   PARAM2 = 1.0000
   LUSE_VDW = .TRUE.
   AGGAC = 0.0000
   LASPH = .TRUE.
   SYMPREC = 1E-7
   LWAVE = .FALSE.
   LCHARG = .FALSE.

 POTCAR:    PAW_PBE C_h 06Feb2004                 
 POTCAR:    PAW_PBE H_h 06Feb2004                 
 POTCAR:    PAW_PBE N_h 06Feb2004                 
 -----------------------------------------------------------------------------
|                                                                             |
|               ----> ADVICE to this user running VASP <----                  |
|                                                                             |
|     You have switched on vdW-DFT.                                           |
|     This routine was written and supplied by Jiri Klimes. We recommend      |
|     that you carefully read and cite the following publications:            |
|       J. Klimes, D.R. Bowler, A. Michelides                                 |
|          J. Phys.: Cond Matt. 22 022201 (2010)                              |
|       J. Klimes, D.R. Bowler, A. Michelides                                 |
|          Phys. Rev. B. 83, 195131 (2011)                                    |
|     and references therein.                                                 |
|                                                                             |
 -----------------------------------------------------------------------------

 POTCAR:    PAW_PBE C_h 06Feb2004                 
   VRHFIN =C: s2p2                                                                                  
   LEXCH  = PE                                                                                      
   EATOM  =   147.1560 eV,   10.8157 Ry                                                             
                                                                                                    
   TITEL  = PAW_PBE C_h 06Feb2004                                                                   
   LULTRA =        F    use ultrasoft PP ?                                                          
   IUNSCR =        1    unscreen: 0-lin 1-nonlin 2-no                                               
   RPACOR =    0.800    partial core radius                                                         
   POMASS =   12.011; ZVAL   =    4.000    mass and valenz                                          
   RCORE  =    1.100    outmost cutoff radius                                                       
   RWIGS  =    1.630; RWIGS  =    0.863    wigner-seitz radius (au A)                               
   ENMAX  =  700.000; ENMIN  =  500.000 eV                                                          
   ICORE  =        2    local potential                                                             
   LCOR   =        T    correct aug charges                                                         
   LPAW   =        T    paw PP                                                                      
   EAUG   =  946.768                                                                                
   DEXC   =    0.000                                                                                
   RMAX   =    1.128    core radius for proj-oper                                                   
   RAUG   =    1.300    factor for augmentation sphere                                              
   RDEP   =    1.162    radius for radial grids                                                     
   RDEPT  =    1.088    core radius for aug-charge                                                  
                                                                                                    
   Atomic configuration                                                                             
    4 entries                                                                                       
     n  l   j            E        occ.                                                              
     1  0  0.50      -273.3789   2.0000                                                             
     2  0  0.50       -13.7508   2.0000                                                             
     2  1  0.50        -5.2854   2.0000                                                             
     3  2  1.50        -5.4423   0.0000                                                             
   Description                                                                                      
     l       E           TYP  RCUT    TYP  RCUT                                                     
     0    -13.7508458     23  1.100                                                                 
     0     -8.2022199     23  1.100                                                                 
     1     -5.2854383     23  1.100                                                                 
     1      1.1560700     23  1.100                                                                 
     2     -5.4423304      7  1.100                                                                 
  local pseudopotential read in
  partial core-charges read in
  partial kinetic energy density read in
  atomic valenz-charges read in
  non local Contribution for L=           0  read in
    real space projection operators read in
  non local Contribution for L=           0  read in
    real space projection operators read in
  non local Contribution for L=           1  read in
    real space projection operators read in
  non local Contribution for L=           1  read in
    real space projection operators read in
    PAW grid and wavefunctions read in

   number of l-projection  operators is LMAX  =           4
   number of lm-projection operators is LMMAX =           8

 POTCAR:    PAW_PBE H_h 06Feb2004                 
   VRHFIN =H: ultrasoft test                                                                        
   LEXCH  = PE                                                                                      
   EATOM  =    12.4884 eV,    0.9179 Ry                                                             
                                                                                                    
   TITEL  = PAW_PBE H_h 06Feb2004                                                                   
   LULTRA =        F    use ultrasoft PP ?                                                          
   IUNSCR =        0    unscreen: 0-lin 1-nonlin 2-no                                               
   RPACOR =    0.000    partial core radius                                                         
   POMASS =    1.000; ZVAL   =    1.000    mass and valenz                                          
   RCORE  =    0.800    outmost cutoff radius                                                       
   RWIGS  =    0.700; RWIGS  =    0.370    wigner-seitz radius (au A)                               
   ENMAX  =  700.000; ENMIN  =  350.000 eV                                                          
   RCLOC  =    0.701    cutoff for local pot                                                        
   LCOR   =        T    correct aug charges                                                         
   LPAW   =        T    paw PP                                                                      
   EAUG   = 1000.000                                                                                
   RMAX   =    0.819    core radius for proj-oper                                                   
   RAUG   =    1.000    factor for augmentation sphere                                              
   RDEP   =    0.817    radius for radial grids                                                     
   RDEPT  =    0.817    core radius for aug-charge                                                  
                                                                                                    
   Atomic configuration                                                                             
    2 entries                                                                                       
     n  l   j            E        occ.                                                              
     1  0  0.50        -6.4927   1.0000                                                             
     2  1  0.50        -3.4015   0.0000                                                             
   Description                                                                                      
     l       E           TYP  RCUT    TYP  RCUT                                                     
     0     -6.4927493     23  0.800                                                                 
     0      6.8029130     23  0.800                                                                 
     1     -6.8029130     23  0.800                                                                 
  local pseudopotential read in
  atomic valenz-charges read in
  non local Contribution for L=           0  read in
    real space projection operators read in
  non local Contribution for L=           0  read in
    real space projection operators read in
  non local Contribution for L=           1  read in
    real space projection operators read in
    PAW grid and wavefunctions read in

   number of l-projection  operators is LMAX  =           3
   number of lm-projection operators is LMMAX =           5

 POTCAR:    PAW_PBE N_h 06Feb2004                 
   VRHFIN =N: s2p3                                                                                  
   LEXCH  = PE                                                                                      
   EATOM  =   264.5486 eV,   19.4438 Ry                                                             
                                                                                                    
   TITEL  = PAW_PBE N_h 06Feb2004                                                                   
   LULTRA =        F    use ultrasoft PP ?                                                          
   IUNSCR =        1    unscreen: 0-lin 1-nonlin 2-no                                               
   RPACOR =    0.800    partial core radius                                                         
   POMASS =   14.001; ZVAL   =    5.000    mass and valenz                                          
   RCORE  =    1.100    outmost cutoff radius                                                       
   RWIGS  =    1.480; RWIGS  =    0.783    wigner-seitz radius (au A)                               
   ENMAX  =  700.000; ENMIN  =  500.000 eV                                                          
   ICORE  =        2    local potential                                                             
   LCOR   =        T    correct aug charges                                                         
   LPAW   =        T    paw PP                                                                      
   EAUG   =  904.640                                                                                
   DEXC   =    0.000                                                                                
   RMAX   =    1.127    core radius for proj-oper                                                   
   RAUG   =    1.300    factor for augmentation sphere                                              
   RDEP   =    1.115    radius for radial grids                                                     
   RDEPT  =    1.106    core radius for aug-charge                                                  
                                                                                                    
   Atomic configuration                                                                             
    4 entries                                                                                       
     n  l   j            E        occ.                                                              
     1  0  0.50      -384.7179   2.0000                                                             
     2  0  0.50       -18.5828   2.0000                                                             
     2  1  0.50        -7.0898   3.0000                                                             
     3  2  1.50        -6.8029   0.0000                                                             
   Description                                                                                      
     l       E           TYP  RCUT    TYP  RCUT                                                     
     0    -18.5828117     23  1.100                                                                 
     0    -15.0750597     23  1.100                                                                 
     1     -7.0897851     23  1.100                                                                 
     1     -1.9663412     23  1.100                                                                 
     2     -6.8029130      7  1.100                                                                 
  local pseudopotential read in
  partial core-charges read in
  partial kinetic energy density read in
  kinetic energy density of atom read in
  atomic valenz-charges read in
  non local Contribution for L=           0  read in
    real space projection operators read in
  non local Contribution for L=           0  read in
    real space projection operators read in
  non local Contribution for L=           1  read in
    real space projection operators read in
  non local Contribution for L=           1  read in
    real space projection operators read in
    PAW grid and wavefunctions read in

   number of l-projection  operators is LMAX  =           4
   number of lm-projection operators is LMMAX =           8

 -----------------------------------------------------------------------------
|                                                                             |
|               ----> ADVICE to this user running VASP <----                  |
|                                                                             |
|     You enforced a specific xc type in the INCAR file but a different       |
|     type was found in the POTCAR file.                                      |
|     I HOPE YOU KNOW WHAT YOU ARE DOING!                                     |
|                                                                             |
 -----------------------------------------------------------------------------

  PAW_PBE C_h 06Feb2004                 :
 energy of atom  1       EATOM= -147.1560
 kinetic energy error for atom=    0.0031 (will be added to EATOM!!)
  PAW_PBE H_h 06Feb2004                 :
 energy of atom  2       EATOM=  -12.4884
 kinetic energy error for atom=    0.0006 (will be added to EATOM!!)
  PAW_PBE N_h 06Feb2004                 :
 energy of atom  3       EATOM= -264.5486
 kinetic energy error for atom=    0.0081 (will be added to EATOM!!)


 POSCAR:  C  H  N
  positions in cartesian coordinates
  No initial velocities read in
 exchange correlation table for  LEXCH =       43
   RHO(1)=    0.500       N(1)  =     2000
   RHO(2)=  100.500       N(2)  =     4000

 VTST: version 4.1, (05/19/21)

 CHAIN: initializing optimizer
 
 OPT: Using VASP Dynamics algorithm
 CHAIN: Read ICHAIN            0

 POSCAR:  C  H  N
  positions in cartesian coordinates
  No initial velocities read in



--------------------------------------------------------------------------------------------------------


 ion  position               nearest neighbor table
   1  0.501  0.540  0.530-   6 1.08   9 1.34   2 1.41
   2  0.461  0.495  0.507-   5 1.08   3 1.38   1 1.41
   3  0.494  0.464  0.465-   4 1.08   8 1.36   2 1.38
   4  0.483  0.426  0.436-   3 1.08
   5  0.414  0.487  0.520-   2 1.08
   6  0.492  0.574  0.564-   1 1.08
   7  0.586  0.479  0.438-   8 1.01
   8  0.550  0.490  0.464-   7 1.01   9 1.35   3 1.36
   9  0.555  0.537  0.504-   1 1.34   8 1.35

  LATTYP: Found a simple cubic cell.
 ALAT       =    22.0000000000
  
  Lattice vectors:
  
 A1 = (  22.0000000000,   0.0000000000,   0.0000000000)
 A2 = (   0.0000000000,  22.0000000000,   0.0000000000)
 A3 = (   0.0000000000,   0.0000000000,  22.0000000000)


Analysis of symmetry for initial positions (statically):
=====================================================================
 Subroutine PRICEL returns:
 Original cell was already a primitive cell.
 

 Routine SETGRP: Setting up the symmetry group for a 
 simple cubic supercell.


 Subroutine GETGRP returns: Found  1 space group operations
 (whereof  1 operations were pure point group operations)
 out of a pool of 48 trial point group operations.


The static configuration has the point symmetry C_1 .


Analysis of symmetry for dynamics (positions and initial velocities):
=====================================================================
 Subroutine PRICEL returns:
 Original cell was already a primitive cell.
 

 Routine SETGRP: Setting up the symmetry group for a 
 simple cubic supercell.


 Subroutine GETGRP returns: Found  1 space group operations
 (whereof  1 operations were pure point group operations)
 out of a pool of 48 trial point group operations.


The dynamic configuration has the point symmetry C_1 .


 Subroutine INISYM returns: Found  1 space group operations
 (whereof  1 operations are pure point group operations),
 and found     1 'primitive' translations


----------------------------------------------------------------------------------------

                                     Primitive cell                                     

  volume of cell :   10648.0000

  direct lattice vectors                    reciprocal lattice vectors
    22.000000000  0.000000000  0.000000000     0.045454545  0.000000000  0.000000000
     0.000000000 22.000000000  0.000000000     0.000000000  0.045454545  0.000000000
     0.000000000  0.000000000 22.000000000     0.000000000  0.000000000  0.045454545

  length of vectors
    22.000000000 22.000000000 22.000000000     0.045454545  0.045454545  0.045454545

  position of ions in fractional coordinates (direct lattice)
     0.500723409  0.539918864  0.530078409
     0.460527955  0.495318409  0.507461591
     0.494072955  0.463760227  0.464720227
     0.482814318  0.425784318  0.435610682
     0.413793409  0.487232500  0.520281136
     0.492382955  0.574215682  0.564389318
     0.586206591  0.478577045  0.438121136
     0.550024318  0.489972045  0.464075682
     0.555375227  0.536772045  0.503662500

  ion indices of the primitive-cell ions
   primitive index   ion index
                 1           1
                 2           2
                 3           3
                 4           4
                 5           5
                 6           6
                 7           7
                 8           8
                 9           9

----------------------------------------------------------------------------------------



 KPOINTS: auto                                    

Automatic generation of k-mesh.
 Grid dimensions read from file:
 generate k-points for:    1    1    1

 Generating k-lattice:

  Cartesian coordinates                     Fractional coordinates (reciprocal lattice)
     0.045454545  0.000000000  0.000000000     1.000000000  0.000000000  0.000000000
     0.000000000  0.045454545  0.000000000     0.000000000  1.000000000  0.000000000
     0.000000000  0.000000000  0.045454545     0.000000000  0.000000000  1.000000000

  Length of vectors
     0.045454545  0.045454545  0.045454545

  Shift w.r.t. Gamma in fractional coordinates (k-lattice)
     0.000000000  0.000000000  0.000000000

 
 Subroutine IBZKPT returns following result:
 ===========================================
 
 Found      1 irreducible k-points:
 
 Following reciprocal coordinates:
            Coordinates               Weight
  0.000000  0.000000  0.000000      1.000000
 
 Following cartesian coordinates:
            Coordinates               Weight
  0.000000  0.000000  0.000000      1.000000
 


--------------------------------------------------------------------------------------------------------




 Dimension of arrays:
   k-points           NKPTS =      1   k-points in BZ     NKDIM =      1   number of bands    NBANDS=     20
   number of dos      NEDOS =    301   number of ions     NIONS =      9
   non local maximal  LDIM  =      4   non local SUM 2l+1 LMDIM =      8
   total plane-waves  NPLWV = ******
   max r-space proj   IRMAX =      1   max aug-charges    IRDMAX=   9419
   dimension x,y,z NGX =   240 NGY =  240 NGZ =  240
   dimension x,y,z NGXF=   480 NGYF=  480 NGZF=  480
   support grid    NGXF=   480 NGYF=  480 NGZF=  480
   ions per type =               3   4   2
   NGX,Y,Z   is equivalent  to a cutoff of  18.14, 18.14, 18.14 a.u.
   NGXF,Y,Z  is equivalent  to a cutoff of  36.27, 36.27, 36.27 a.u.

 SYSTEM =  unknown system                          
 POSCAR =   C  H  N                                

 Startparameter for this run:
   NWRITE =      2    write-flag & timer
   PREC   = accura    normal or accurate (medium, high low for compatibility)
   ISTART =      0    job   : 0-new  1-cont  2-samecut
   ICHARG =      2    charge: 1-file 2-atom 10-const
   ISPIN  =      1    spin polarized calculation?
   LNONCOLLINEAR =      F non collinear calculations
   LSORBIT =      F    spin-orbit coupling
   INIWAV =      1    electr: 0-lowe 1-rand  2-diag
   LASPH  =      T    aspherical Exc in radial PAW
 Electronic Relaxation 1
   ENCUT  = 1000.0 eV  73.50 Ry    8.57 a.u.  56.73 56.73 56.73*2*pi/ulx,y,z
   ENINI  = 1000.0     initial cutoff
   ENAUG  = 1000.0 eV  augmentation charge cutoff
   NELM   =     60;   NELMIN=  2; NELMDL= -5     # of ELM steps 
   EDIFF  = 0.1E-06   stopping-criterion for ELM
   LREAL  =      F    real-space projection
   NLSPLINE    = F    spline interpolate recip. space projectors
   LCOMPAT=      F    compatible to vasp.4.4
   GGA_COMPAT  = T    GGA compatible to vasp.4.4-vasp.4.6
   LMAXPAW     = -100 max onsite density
   LMAXMIX     =    2 max onsite mixed and CHGCAR
   VOSKOWN=      0    Vosko Wilk Nusair interpolation
   ROPT   =    0.00000   0.00000   0.00000
 Ionic relaxation
   EDIFFG = 0.1E-05   stopping-criterion for IOM
   NSW    =      0    number of steps for IOM
   NBLOCK =      1;   KBLOCK =      1    inner block; outer block 
   IBRION =     -1    ionic relax: 0-MD 1-quasi-New 2-CG
   NFREE  =      0    steps in history (QN), initial steepest desc. (CG)
   ISIF   =      0    stress and relaxation
   IWAVPR =     10    prediction:  0-non 1-charg 2-wave 3-comb
   ISYM   =      2    0-nonsym 1-usesym 2-fastsym
   LCORR  =      T    Harris-Foulkes like correction to forces

   POTIM  = 0.5000    time-step for ionic-motion
   TEIN   =    0.0    initial temperature
   TEBEG  =    0.0;   TEEND  =   0.0 temperature during run
   SMASS  =  -3.00    Nose mass-parameter (am)
   estimated Nose-frequenzy (Omega)   =  0.10E-29 period in steps = 0.13E+47 mass=  -0.111E-25a.u.
   SCALEE = 1.0000    scale energy and forces
   NPACO  =    256;   APACO  = 10.0  distance and # of slots for P.C.
   PSTRESS=    0.0 pullay stress

  Mass of Ions in am
   POMASS =  12.01  1.00 14.00
  Ionic Valenz
   ZVAL   =   4.00  1.00  5.00
  Atomic Wigner-Seitz radii
   RWIGS  =  -1.00 -1.00 -1.00
  virtual crystal weights 
   VCA    =   1.00  1.00  1.00
   NELECT =      26.0000    total number of electrons
   NUPDOWN=      -1.0000    fix difference up-down

 DOS related values:
   EMIN   =  10.00;   EMAX   =-10.00  energy-range for DOS
   EFERMI =   0.00;   METHOD = LEGACY      
   ISMEAR =     0;   SIGMA  =   0.01  broadening in eV -4-tet -1-fermi 0-gaus

 Electronic relaxation 2 (details)
   IALGO  =     58    algorithm
   LDIAG  =      T    sub-space diagonalisation (order eigenvalues)
   LSUBROT=      F    optimize rotation matrix (better conditioning)
   TURBO    =      0    0=normal 1=particle mesh
   IRESTART =      0    0=no restart 2=restart with 2 vectors
   NREBOOT  =      0    no. of reboots
   NMIN     =      0    reboot dimension
   EREF     =   0.00    reference energy to select bands
   IMIX   =      4    mixing-type and parameters
     AMIX     =   0.40;   BMIX     =  1.00
     AMIX_MAG =   1.60;   BMIX_MAG =  1.00
     AMIN     =   0.10
     WC   =   100.;   INIMIX=   1;  MIXPRE=   1;  MAXMIX= -45

 Intra band minimization:
   WEIMIN = 0.0000     energy-eigenvalue tresh-hold
   EBREAK =  0.13E-08  absolut break condition
   DEPER  =   0.30     relativ break condition  

   TIME   =   0.40     timestep for ELM

  volume/ion in A,a.u.               =    1183.11      7984.03
  Fermi-wavevector in a.u.,A,eV,Ry     =   0.220450  0.416590  0.661218  0.048598
  Thomas-Fermi vector in A             =   1.001172

 Write flags
   LWAVE        =      F    write WAVECAR
   LDOWNSAMPLE  =      F    k-point downsampling of WAVECAR
   LCHARG       =      F    write CHGCAR
   LVTOT        =      F    write LOCPOT, total local potential
   LVHAR        =      F    write LOCPOT, Hartree potential only
   LELF         =      F    write electronic localiz. function (ELF)
   LORBIT       =      0    0 simple, 1 ext, 2 COOP (PROOUT), +10 PAW based schemes


 Dipole corrections
   LMONO  =      F    monopole corrections only (constant potential shift)
   LDIPOL =      F    correct potential (dipole corrections)
   IDIPOL =      0    1-x, 2-y, 3-z, 4-all directions 
   EPSILON=  1.0000000 bulk dielectric constant

 Exchange correlation treatment:
   GGA     =    MK    GGA type
   LEXCH   =    43    internal setting for exchange type
   LIBXC   =     F    Libxc                    
   VOSKOWN =     0    Vosko Wilk Nusair interpolation
   LHFCALC =     F    Hartree Fock is set to
   LHFONE  =     F    Hartree Fock one center treatment
   AEXX    =    0.0000 exact exchange contribution

 vdW DFT:
   LUSE_VDW   =     T    switch on vdW DFT
   IVDW_NL    =     1    kernel type
   LSPIN_VDW  =     F    use spin-polarized vdW DFT
   Zab_VDW    =-.8491    correlation parameter
   PARAM1     =0.1234
   PARAM2     =1.0000
   PARAM3     =0.0000
   -- rVV10 --
   BPARAM     = 6.3000
   CPARAM     = 0.0093

 Linear response parameters
   LEPSILON=     F    determine dielectric tensor
   LRPA    =     F    only Hartree local field effects (RPA)
   LNABLA  =     F    use nabla operator in PAW spheres
   LVEL    =     F    velocity operator in full k-point grid
   CSHIFT  =0.1000    complex shift for real part using Kramers Kronig
   OMEGAMAX=  -1.0    maximum frequency
   DEG_THRESHOLD= 0.2000000E-02 threshold for treating states as degnerate
   RTIME   =   -0.100 relaxation time in fs
  (WPLASMAI=    0.000 imaginary part of plasma frequency in eV, 0.658/RTIME)
   DFIELD  = 0.0000000 0.0000000 0.0000000 field for delta impulse in time

  Optional k-point grid parameters
   LKPOINTS_OPT  =     F    use optional k-point grid
   KPOINTS_OPT_MODE=     1    mode for optional k-point grid

 Orbital magnetization related:
   ORBITALMAG=     F  switch on orbital magnetization
   LCHIMAG   =     F  perturbation theory with respect to B field
   DQ        =  0.001000  dq finite difference perturbation B field
   LLRAUG    =     F  two centre corrections for induced B field
   LBONE     =     F  B-component reconstruction in AE one-centre
   LVGVCALC  =     T  calculate vGv susceptibility
   LVGVAPPL  =     F  apply vGv susceptibility instead of pGv for G=0

 Random number generation:
   RANDOM_GENERATOR = DEFAULT
   PCG_SEED         = not used


--------------------------------------------------------------------------------------------------------


 Static calculation
 charge density and potential will be updated during run
 non-spin polarized calculation
 Conjugate gradient for all bands (Freysoldt, et al. PRB 79, 241103 (2009))
 preconditioned conjugated gradient                                        
 perform sub-space diagonalisation
    before iterative eigenvector-optimisation
 modified Broyden-mixing scheme, WC =      100.0
 initial mixing is a Kerker type mixing with AMIX =  0.4000 and BMIX =      1.0000
 Hartree-type preconditioning will be used
 using additional bands            7
 reciprocal scheme for non local part
 use partial core corrections
 no Harris-corrections to forces 
 use gradient corrections 
 use of overlap-Matrix (Vanderbilt PP)
 Gauss-broadening in eV      SIGMA  =   0.01


--------------------------------------------------------------------------------------------------------


  energy-cutoff  :     1000.00
  volume of cell :    10648.00
      direct lattice vectors                 reciprocal lattice vectors
    22.000000000  0.000000000  0.000000000     0.045454545  0.000000000  0.000000000
     0.000000000 22.000000000  0.000000000     0.000000000  0.045454545  0.000000000
     0.000000000  0.000000000 22.000000000     0.000000000  0.000000000  0.045454545

  length of vectors
    22.000000000 22.000000000 22.000000000     0.045454545  0.045454545  0.045454545



 k-points in units of 2pi/SCALE and weight: auto                                    
   0.00000000  0.00000000  0.00000000       1.000

 k-points in reciprocal lattice and weights: auto                                    
   0.00000000  0.00000000  0.00000000       1.000

 position of ions in fractional coordinates (direct lattice) 
   0.50072341  0.53991886  0.53007841
   0.46052795  0.49531841  0.50746159
   0.49407295  0.46376023  0.46472023
   0.48281432  0.42578432  0.43561068
   0.41379341  0.48723250  0.52028114
   0.49238295  0.57421568  0.56438932
   0.58620659  0.47857705  0.43812114
   0.55002432  0.48997205  0.46407568
   0.55537523  0.53677205  0.50366250

 position of ions in cartesian coordinates  (Angst):
  11.01591500 11.87821500 11.66172500
  10.13161500 10.89700500 11.16415500
  10.86960500 10.20272500 10.22384500
  10.62191500  9.36725500  9.58343500
   9.10345500 10.71911500 11.44618500
  10.83242500 12.63274500 12.41656500
  12.89654500 10.52869500  9.63866500
  12.10053500 10.77938500 10.20966500
  12.21825500 11.80898500 11.08057500



--------------------------------------------------------------------------------------------------------


 use parallel FFT for orbitals z direction half grid
 k-point   1 :   0.0000 0.0000 0.0000  plane waves:  381993

 maximum and minimum number of plane-waves per node :      2992     2977

 maximum number of plane-waves:    381993
 maximum index in each direction: 
   IXMAX=   56   IYMAX=   56   IZMAX=   56
   IXMIN=  -56   IYMIN=  -56   IZMIN=    0


 parallel 3D FFT for wavefunctions:
    minimum data exchange during FFTs selected (reduces bandwidth)
 parallel 3D FFT for charge:
    minimum data exchange during FFTs selected (reduces bandwidth)


 total amount of memory used by VASP MPI-rank0    61522. kBytes
=======================================================================

   base      :      30000. kBytes
   nonl-proj :       1002. kBytes
   fftplans  :      10395. kBytes
   grid      :      19407. kBytes
   one-center:          1. kBytes
   wavefun   :        717. kBytes

     INWAV:  cpu time      0.0000: real time      0.0000
 Broyden mixing: mesh for mixing (old mesh)
   NGX =113   NGY =113   NGZ =113
  (NGX  =480   NGY  =480   NGZ  =480)
  gives a total of ****** points

 initial charge density was supplied:
 charge density of overlapping atoms calculated
 number of electron      26.0000000 magnetization 
 keeping initial charge density in first step


--------------------------------------------------------------------------------------------------------


 Maximum index for augmentation-charges            0 (set IRDMAX)


--------------------------------------------------------------------------------------------------------


 First call to EWALD:  gamma=   0.081
 Maximum number of real-space cells 3x 3x 3
 Maximum number of reciprocal cells 3x 3x 3

    FEWALD:  cpu time      0.0030: real time      0.0033


--------------------------------------- Ionic step        1  -------------------------------------------




--------------------------------------- Iteration      1(   1)  ---------------------------------------


vdW kernel read from vdw_kernel.bindat
  0.0000  0.2424  0.5071  0.7962  1.1119  1.4567  1.8333  2.2446  2.6937  3.1842
  3.7199  4.3049  4.9438  5.6415  6.4036  7.2358  8.1446  9.1372 10.2212 11.4050
 12.6979 14.1099 15.6519 17.3360 19.1751 21.1837 23.3773 25.7729 28.3892 31.2465
 34.3669 37.7748 41.4965 45.5611 50.0000

    POTLOK:  cpu time     11.1267: real time     11.1321
    SETDIJ:  cpu time      0.0789: real time      0.0793
    TRIAL :  cpu time      0.2660: real time      0.2685
    CORREC:  cpu time      0.0020: real time      0.0020
    --------------------------------------------
      LOOP:  cpu time     11.4789: real time     11.4873

 eigenvalue-minimisations  :    56
 total energy-change (2. order) : 0.2566932E+03  (-0.6331369E+03)
 number of electron      26.0000000 magnetization 
 augmentation part       26.0000000 magnetization 

 Free energy of the ion-electron system (eV)
  ---------------------------------------------------
  alpha Z        PSCENC =         0.19661355
  Ewald energy   TEWEN  =      1675.06761068
  -Hartree energ DENC   =     -2384.33129516
  -exchange      EXHF   =         0.00000000
  -V(xc)+E(xc)   XCENC  =        63.07758713
  PAW double counting   =       763.29002882     -742.02974500
  entropy T*S    EENTRO =        -0.00043664
  eigenvalues    EBANDS =      -144.23029739
  atomic energy  EATOM  =      1025.65316803
  ---------------------------------------------------
  free energy    TOTEN  =       256.69323400 eV

  energy without entropy =      256.69367065  energy(sigma->0) =      256.69345232


--------------------------------------------------------------------------------------------------------




--------------------------------------- Iteration      1(   2)  ---------------------------------------


    TRIAL :  cpu time      0.2822: real time      0.2822
    CORREC:  cpu time      0.0001: real time      0.0001
    --------------------------------------------
      LOOP:  cpu time      0.2958: real time      0.3104

 eigenvalue-minimisations  :    76
 total energy-change (2. order) :-0.1760224E+03  (-0.1750655E+03)
 number of electron      26.0000000 magnetization 
 augmentation part       26.0000000 magnetization 

 Free energy of the ion-electron system (eV)
  ---------------------------------------------------
  alpha Z        PSCENC =         0.19661355
  Ewald energy   TEWEN  =      1675.06761068
  -Hartree energ DENC   =     -2384.33129516
  -exchange      EXHF   =         0.00000000
  -V(xc)+E(xc)   XCENC  =        63.07758713
  PAW double counting   =       763.29002882     -742.02974500
  entropy T*S    EENTRO =        -0.00000000
  eigenvalues    EBANDS =      -320.25315779
  atomic energy  EATOM  =      1025.65316803
  ---------------------------------------------------
  free energy    TOTEN  =        80.67081025 eV

  energy without entropy =       80.67081025  energy(sigma->0) =       80.67081025


--------------------------------------------------------------------------------------------------------




--------------------------------------- Iteration      1(   3)  ---------------------------------------


    TRIAL :  cpu time      0.2694: real time      0.2698
    CORREC:  cpu time      0.0001: real time      0.0001
    --------------------------------------------
      LOOP:  cpu time      0.2830: real time      0.3006

 eigenvalue-minimisations  :    72
 total energy-change (2. order) :-0.1063089E+03  (-0.1055899E+03)
 number of electron      26.0000000 magnetization 
 augmentation part       26.0000000 magnetization 

 Free energy of the ion-electron system (eV)
  ---------------------------------------------------
  alpha Z        PSCENC =         0.19661355
  Ewald energy   TEWEN  =      1675.06761068
  -Hartree energ DENC   =     -2384.33129516
  -exchange      EXHF   =         0.00000000
  -V(xc)+E(xc)   XCENC  =        63.07758713
  PAW double counting   =       763.29002882     -742.02974500
  entropy T*S    EENTRO =        -0.00000000
  eigenvalues    EBANDS =      -426.56209384
  atomic energy  EATOM  =      1025.65316803
  ---------------------------------------------------
  free energy    TOTEN  =       -25.63812580 eV

  energy without entropy =      -25.63812580  energy(sigma->0) =      -25.63812580


--------------------------------------------------------------------------------------------------------




--------------------------------------- Iteration      1(   4)  ---------------------------------------


    TRIAL :  cpu time      0.2009: real time      0.2009
    CORREC:  cpu time      0.0001: real time      0.0001
    --------------------------------------------
      LOOP:  cpu time      0.2300: real time      0.2302

 eigenvalue-minimisations  :    48
 total energy-change (2. order) :-0.2877575E+02  (-0.2876832E+02)
 number of electron      26.0000000 magnetization 
 augmentation part       26.0000000 magnetization 

 Free energy of the ion-electron system (eV)
  ---------------------------------------------------
  alpha Z        PSCENC =         0.19661355
  Ewald energy   TEWEN  =      1675.06761068
  -Hartree energ DENC   =     -2384.33129516
  -exchange      EXHF   =         0.00000000
  -V(xc)+E(xc)   XCENC  =        63.07758713
  PAW double counting   =       763.29002882     -742.02974500
  entropy T*S    EENTRO =        -0.00000000
  eigenvalues    EBANDS =      -455.33784657
  atomic energy  EATOM  =      1025.65316803
  ---------------------------------------------------
  free energy    TOTEN  =       -54.41387853 eV

  energy without entropy =      -54.41387853  energy(sigma->0) =      -54.41387853


--------------------------------------------------------------------------------------------------------




--------------------------------------- Iteration      1(   5)  ---------------------------------------


    TRIAL :  cpu time      0.2008: real time      0.2009
    CORREC:  cpu time      0.0001: real time      0.0001
    CHARGE:  cpu time      0.0706: real time      0.0720
    --------------------------------------------
      LOOP:  cpu time      0.2860: real time      0.3047

 eigenvalue-minimisations  :    48
 total energy-change (2. order) :-0.1329354E+01  (-0.1312569E+01)
 number of electron      26.0000000 magnetization 
 augmentation part       -0.0507015 magnetization 

 Free energy of the ion-electron system (eV)
  ---------------------------------------------------
  alpha Z        PSCENC =         0.19661355
  Ewald energy   TEWEN  =      1675.06761068
  -Hartree energ DENC   =     -2384.33129516
  -exchange      EXHF   =         0.00000000
  -V(xc)+E(xc)   XCENC  =        63.07758713
  PAW double counting   =       763.29002882     -742.02974500
  entropy T*S    EENTRO =        -0.00000000
  eigenvalues    EBANDS =      -456.66720027
  atomic energy  EATOM  =      1025.65316803
  ---------------------------------------------------
  free energy    TOTEN  =       -55.74323223 eV

  energy without entropy =      -55.74323223  energy(sigma->0) =      -55.74323223


--------------------------------------------------------------------------------------------------------




--------------------------------------- Iteration      1(   6)  ---------------------------------------


    POTLOK:  cpu time     10.7809: real time     10.7838
    SETDIJ:  cpu time      0.0712: real time      0.0712
    TRIAL :  cpu time      0.1241: real time      0.1254
    CORREC:  cpu time     10.8957: real time     10.8986
    CHARGE:  cpu time      0.0424: real time      0.0424
    --------------------------------------------
      LOOP:  cpu time     21.9317: real time     21.9513

 eigenvalue-minimisations  :     0
 total energy-change (2. order) : 0.1029401E+02  (-0.4258937E+01)
 number of electron      26.0000000 magnetization 
 augmentation part       -0.0563870 magnetization 

 Free energy of the ion-electron system (eV)
  ---------------------------------------------------
  alpha Z        PSCENC =         0.19661355
  Ewald energy   TEWEN  =      1675.06761068
  -Hartree energ DENC   =     -2601.56823246
  -exchange      EXHF   =         0.00000000
  -V(xc)+E(xc)   XCENC  =        71.51038080
  PAW double counting   =      7855.28034612    -7834.80731445
  entropy T*S    EENTRO =        -0.00000000
  eigenvalues    EBANDS =      -236.78179533
  atomic energy  EATOM  =      1025.65316803
  ---------------------------------------------------
  free energy    TOTEN  =       -45.44922306 eV

  energy without entropy =      -45.44922306  energy(sigma->0) =      -45.44922306


--------------------------------------------------------------------------------------------------------




--------------------------------------- Iteration      1(   7)  ---------------------------------------


    POTLOK:  cpu time     10.6202: real time     10.6233
    SETDIJ:  cpu time      0.0713: real time      0.0713
    TRIAL :  cpu time      0.1038: real time      0.1038
    CORREC:  cpu time     10.9496: real time     10.9525
    CHARGE:  cpu time      0.0434: real time      0.0434
    --------------------------------------------
      LOOP:  cpu time     21.8016: real time     21.8249

 eigenvalue-minimisations  :     0
 total energy-change (2. order) :-0.4303296E+01  (-0.4262435E+00)
 number of electron      26.0000000 magnetization 
 augmentation part       -0.0630291 magnetization 

 Free energy of the ion-electron system (eV)
  ---------------------------------------------------
  alpha Z        PSCENC =         0.19661355
  Ewald energy   TEWEN  =      1675.06761068
  -Hartree energ DENC   =     -2501.15487845
  -exchange      EXHF   =         0.00000000
  -V(xc)+E(xc)   XCENC  =        68.00990978
  PAW double counting   =      9631.12398529    -9610.26864984
  entropy T*S    EENTRO =        -0.00000000
  eigenvalues    EBANDS =      -338.38027848
  atomic energy  EATOM  =      1025.65316803
  ---------------------------------------------------
  free energy    TOTEN  =       -49.75251943 eV

  energy without entropy =      -49.75251943  energy(sigma->0) =      -49.75251943


--------------------------------------------------------------------------------------------------------




--------------------------------------- Iteration      1(   8)  ---------------------------------------


    POTLOK:  cpu time     10.7462: real time     10.7488
    SETDIJ:  cpu time      0.0715: real time      0.0715
    TRIAL :  cpu time      0.1039: real time      0.1039
    CORREC:  cpu time     10.7920: real time     10.7945
    CHARGE:  cpu time      0.0437: real time      0.0437
    --------------------------------------------
      LOOP:  cpu time     21.7699: real time     21.7924

 eigenvalue-minimisations  :     0
 total energy-change (2. order) :-0.4279421E+00  (-0.1702047E+00)
 number of electron      26.0000000 magnetization 
 augmentation part       -0.0635567 magnetization 

 Free energy of the ion-electron system (eV)
  ---------------------------------------------------
  alpha Z        PSCENC =         0.19661355
  Ewald energy   TEWEN  =      1675.06761068
  -Hartree energ DENC   =     -2505.36991619
  -exchange      EXHF   =         0.00000000
  -V(xc)+E(xc)   XCENC  =        68.20411399
  PAW double counting   =     10152.14437902   -10131.26877662
  entropy T*S    EENTRO =        -0.00000000
  eigenvalues    EBANDS =      -334.80765403
  atomic energy  EATOM  =      1025.65316803
  ---------------------------------------------------
  free energy    TOTEN  =       -50.18046157 eV

  energy without entropy =      -50.18046157  energy(sigma->0) =      -50.18046157


--------------------------------------------------------------------------------------------------------




--------------------------------------- Iteration      1(   9)  ---------------------------------------


    POTLOK:  cpu time     10.8641: real time     10.8669
    SETDIJ:  cpu time      0.0710: real time      0.0710
    TRIAL :  cpu time      0.1039: real time      0.1039
    CORREC:  cpu time     10.8037: real time     10.8066
    CHARGE:  cpu time      0.0430: real time      0.0430
    --------------------------------------------
      LOOP:  cpu time     21.9117: real time     21.9223

 eigenvalue-minimisations  :     0
 total energy-change (2. order) :-0.1694237E+00  (-0.7853062E-01)
 number of electron      26.0000000 magnetization 
 augmentation part       -0.0639767 magnetization 

 Free energy of the ion-electron system (eV)
  ---------------------------------------------------
  alpha Z        PSCENC =         0.19661355
  Ewald energy   TEWEN  =      1675.06761068
  -Hartree energ DENC   =     -2502.24906880
  -exchange      EXHF   =         0.00000000
  -V(xc)+E(xc)   XCENC  =        68.09869201
  PAW double counting   =     10485.34727892   -10464.44056273
  entropy T*S    EENTRO =        -0.00000000
  eigenvalues    EBANDS =      -338.02361695
  atomic energy  EATOM  =      1025.65316803
  ---------------------------------------------------
  free energy    TOTEN  =       -50.34988528 eV

  energy without entropy =      -50.34988528  energy(sigma->0) =      -50.34988528


--------------------------------------------------------------------------------------------------------




--------------------------------------- Iteration      1(  10)  ---------------------------------------


    POTLOK:  cpu time     10.7561: real time     10.7585
    SETDIJ:  cpu time      0.0711: real time      0.0711
    TRIAL :  cpu time      0.1034: real time      0.1036
    CORREC:  cpu time     10.9147: real time     10.9170
    CHARGE:  cpu time      0.0429: real time      0.0430
    --------------------------------------------
      LOOP:  cpu time     21.9001: real time     21.9238

 eigenvalue-minimisations  :     0
 total energy-change (2. order) :-0.7759889E-01  (-0.2880574E-01)
 number of electron      26.0000000 magnetization 
 augmentation part       -0.0639559 magnetization 

 Free energy of the ion-electron system (eV)
  ---------------------------------------------------
  alpha Z        PSCENC =         0.19661355
  Ewald energy   TEWEN  =      1675.06761068
  -Hartree energ DENC   =     -2499.43642951
  -exchange      EXHF   =         0.00000000
  -V(xc)+E(xc)   XCENC  =        68.00840702
  PAW double counting   =     10457.38166895   -10436.46693714
  entropy T*S    EENTRO =        -0.00000000
  eigenvalues    EBANDS =      -340.83158575
  atomic energy  EATOM  =      1025.65316803
  ---------------------------------------------------
  free energy    TOTEN  =       -50.42748417 eV

  energy without entropy =      -50.42748417  energy(sigma->0) =      -50.42748417


--------------------------------------------------------------------------------------------------------




--------------------------------------- Iteration      1(  11)  ---------------------------------------


    POTLOK:  cpu time     10.5865: real time     10.5888
    SETDIJ:  cpu time      0.0711: real time      0.0711
    TRIAL :  cpu time      0.1032: real time      0.1032
    CORREC:  cpu time     11.0285: real time     11.0314
    CHARGE:  cpu time      0.0427: real time      0.0427
    --------------------------------------------
      LOOP:  cpu time     21.8574: real time     21.8683

 eigenvalue-minimisations  :     0
 total energy-change (2. order) :-0.2865420E-01  (-0.8766698E-02)
 number of electron      26.0000000 magnetization 
 augmentation part       -0.0637413 magnetization 

 Free energy of the ion-electron system (eV)
  ---------------------------------------------------
  alpha Z        PSCENC =         0.19661355
  Ewald energy   TEWEN  =      1675.06761068
  -Hartree energ DENC   =     -2499.80488087
  -exchange      EXHF   =         0.00000000
  -V(xc)+E(xc)   XCENC  =        68.02852943
  PAW double counting   =     10275.47806768   -10254.57495589
  entropy T*S    EENTRO =        -0.00000000
  eigenvalues    EBANDS =      -340.50029098
  atomic energy  EATOM  =      1025.65316803
  ---------------------------------------------------
  free energy    TOTEN  =       -50.45613837 eV

  energy without entropy =      -50.45613837  energy(sigma->0) =      -50.45613837


--------------------------------------------------------------------------------------------------------




--------------------------------------- Iteration      1(  12)  ---------------------------------------


    POTLOK:  cpu time     10.7854: real time     10.7879
    SETDIJ:  cpu time      0.0710: real time      0.0710
    TRIAL :  cpu time      0.1042: real time      0.1042
    CORREC:  cpu time     10.8024: real time     10.8051
    CHARGE:  cpu time      0.0431: real time      0.0431
    --------------------------------------------
      LOOP:  cpu time     21.8366: real time     21.8421

 eigenvalue-minimisations  :     0
 total energy-change (2. order) :-0.8754395E-02  (-0.2803282E-02)
 number of electron      26.0000000 magnetization 
 augmentation part       -0.0636447 magnetization 

 Free energy of the ion-electron system (eV)
  ---------------------------------------------------
  alpha Z        PSCENC =         0.19661355
  Ewald energy   TEWEN  =      1675.06761068
  -Hartree energ DENC   =     -2499.38793722
  -exchange      EXHF   =         0.00000000
  -V(xc)+E(xc)   XCENC  =        68.01236607
  PAW double counting   =     10184.55108955   -10163.65296634
  entropy T*S    EENTRO =        -0.00000000
  eigenvalues    EBANDS =      -340.90483708
  atomic energy  EATOM  =      1025.65316803
  ---------------------------------------------------
  free energy    TOTEN  =       -50.46489277 eV

  energy without entropy =      -50.46489277  energy(sigma->0) =      -50.46489277


--------------------------------------------------------------------------------------------------------




--------------------------------------- Iteration      1(  13)  ---------------------------------------


    POTLOK:  cpu time     10.8566: real time     10.8593
    SETDIJ:  cpu time      0.0713: real time      0.0713
    TRIAL :  cpu time      0.1030: real time      0.1030
    CORREC:  cpu time     10.8382: real time     10.8408
    CHARGE:  cpu time      0.0423: real time      0.0423
    --------------------------------------------
      LOOP:  cpu time     21.9296: real time     21.9474

 eigenvalue-minimisations  :     0
 total energy-change (2. order) :-0.2803135E-02  (-0.1059215E-02)
 number of electron      26.0000000 magnetization 
 augmentation part       -0.0635383 magnetization 

 Free energy of the ion-electron system (eV)
  ---------------------------------------------------
  alpha Z        PSCENC =         0.19661355
  Ewald energy   TEWEN  =      1675.06761068
  -Hartree energ DENC   =     -2499.08979909
  -exchange      EXHF   =         0.00000000
  -V(xc)+E(xc)   XCENC  =        67.99875387
  PAW double counting   =     10162.91516427   -10142.01881444
  entropy T*S    EENTRO =        -0.00000000
  eigenvalues    EBANDS =      -341.19039277
  atomic energy  EATOM  =      1025.65316803
  ---------------------------------------------------
  free energy    TOTEN  =       -50.46769590 eV

  energy without entropy =      -50.46769590  energy(sigma->0) =      -50.46769590


--------------------------------------------------------------------------------------------------------




--------------------------------------- Iteration      1(  14)  ---------------------------------------


    POTLOK:  cpu time     10.7486: real time     10.7513
    SETDIJ:  cpu time      0.0710: real time      0.0710
    TRIAL :  cpu time      0.1048: real time      0.1048
    CORREC:  cpu time     10.8760: real time     10.8789
    CHARGE:  cpu time      0.0431: real time      0.0431
    --------------------------------------------
      LOOP:  cpu time     21.8591: real time     21.8838

 eigenvalue-minimisations  :     0
 total energy-change (2. order) :-0.1058831E-02  (-0.4835973E-03)
 number of electron      26.0000000 magnetization 
 augmentation part       -0.0634974 magnetization 

 Free energy of the ion-electron system (eV)
  ---------------------------------------------------
  alpha Z        PSCENC =         0.19661355
  Ewald energy   TEWEN  =      1675.06761068
  -Hartree energ DENC   =     -2499.26488365
  -exchange      EXHF   =         0.00000000
  -V(xc)+E(xc)   XCENC  =        68.00269777
  PAW double counting   =     10169.15164075   -10148.25660155
  entropy T*S    EENTRO =        -0.00000000
  eigenvalues    EBANDS =      -341.01900032
  atomic energy  EATOM  =      1025.65316803
  ---------------------------------------------------
  free energy    TOTEN  =       -50.46875473 eV

  energy without entropy =      -50.46875473  energy(sigma->0) =      -50.46875473


--------------------------------------------------------------------------------------------------------




--------------------------------------- Iteration      1(  15)  ---------------------------------------


    POTLOK:  cpu time     10.5491: real time     10.5519
    SETDIJ:  cpu time      0.0710: real time      0.0710
    TRIAL :  cpu time      0.1034: real time      0.1034
    CORREC:  cpu time     10.8897: real time     10.8924
    CHARGE:  cpu time      0.0434: real time      0.0434
    --------------------------------------------
      LOOP:  cpu time     21.6711: real time     21.6931

 eigenvalue-minimisations  :     0
 total energy-change (2. order) :-0.4845272E-03  (-0.2354963E-03)
 number of electron      26.0000000 magnetization 
 augmentation part       -0.0634599 magnetization 

 Free energy of the ion-electron system (eV)
  ---------------------------------------------------
  alpha Z        PSCENC =         0.19661355
  Ewald energy   TEWEN  =      1675.06761068
  -Hartree energ DENC   =     -2499.31368151
  -exchange      EXHF   =         0.00000000
  -V(xc)+E(xc)   XCENC  =        68.00304701
  PAW double counting   =     10186.74824555   -10165.85276686
  entropy T*S    EENTRO =        -0.00000000
  eigenvalues    EBANDS =      -340.97147572
  atomic energy  EATOM  =      1025.65316803
  ---------------------------------------------------
  free energy    TOTEN  =       -50.46923926 eV

  energy without entropy =      -50.46923926  energy(sigma->0) =      -50.46923926


--------------------------------------------------------------------------------------------------------




--------------------------------------- Iteration      1(  16)  ---------------------------------------


    POTLOK:  cpu time     10.7294: real time     10.7319
    SETDIJ:  cpu time      0.0711: real time      0.0713
    TRIAL :  cpu time      0.1037: real time      0.1037
    CORREC:  cpu time     10.7466: real time     10.7491
    CHARGE:  cpu time      0.0428: real time      0.0428
    --------------------------------------------
      LOOP:  cpu time     21.7078: real time     21.7305

 eigenvalue-minimisations  :     0
 total energy-change (2. order) :-0.2352573E-03  (-0.9036417E-04)
 number of electron      26.0000000 magnetization 
 augmentation part       -0.0634215 magnetization 

 Free energy of the ion-electron system (eV)
  ---------------------------------------------------
  alpha Z        PSCENC =         0.19661355
  Ewald energy   TEWEN  =      1675.06761068
  -Hartree energ DENC   =     -2499.38605327
  -exchange      EXHF   =         0.00000000
  -V(xc)+E(xc)   XCENC  =        68.00537048
  PAW double counting   =     10196.74866419   -10175.85276873
  entropy T*S    EENTRO =        -0.00000000
  eigenvalues    EBANDS =      -340.90207946
  atomic energy  EATOM  =      1025.65316803
  ---------------------------------------------------
  free energy    TOTEN  =       -50.46947452 eV

  energy without entropy =      -50.46947452  energy(sigma->0) =      -50.46947452


--------------------------------------------------------------------------------------------------------




--------------------------------------- Iteration      1(  17)  ---------------------------------------


    POTLOK:  cpu time     10.7882: real time     10.7909
    SETDIJ:  cpu time      0.0711: real time      0.0711
    TRIAL :  cpu time      0.1037: real time      0.1037
    CORREC:  cpu time     10.7953: real time     10.7981
    CHARGE:  cpu time      0.0428: real time      0.0428
    --------------------------------------------
      LOOP:  cpu time     21.8136: real time     21.8389

 eigenvalue-minimisations  :     0
 total energy-change (2. order) :-0.9042536E-04  (-0.3004274E-04)
 number of electron      26.0000000 magnetization 
 augmentation part       -0.0634116 magnetization 

 Free energy of the ion-electron system (eV)
  ---------------------------------------------------
  alpha Z        PSCENC =         0.19661355
  Ewald energy   TEWEN  =      1675.06761068
  -Hartree energ DENC   =     -2499.43700330
  -exchange      EXHF   =         0.00000000
  -V(xc)+E(xc)   XCENC  =        68.00744597
  PAW double counting   =     10196.87388756   -10175.97788220
  entropy T*S    EENTRO =        -0.00000000
  eigenvalues    EBANDS =      -340.85340523
  atomic energy  EATOM  =      1025.65316803
  ---------------------------------------------------
  free energy    TOTEN  =       -50.46956494 eV

  energy without entropy =      -50.46956494  energy(sigma->0) =      -50.46956494


--------------------------------------------------------------------------------------------------------




--------------------------------------- Iteration      1(  18)  ---------------------------------------


    POTLOK:  cpu time     10.6669: real time     10.6696
    SETDIJ:  cpu time      0.0711: real time      0.0711
    TRIAL :  cpu time      0.1041: real time      0.1041
    CORREC:  cpu time     10.9065: real time     10.9094
    CHARGE:  cpu time      0.0430: real time      0.0430
    --------------------------------------------
      LOOP:  cpu time     21.8248: real time     21.8306

 eigenvalue-minimisations  :     0
 total energy-change (2. order) :-0.3013415E-04  (-0.1094607E-04)
 number of electron      26.0000000 magnetization 
 augmentation part       -0.0634083 magnetization 

 Free energy of the ion-electron system (eV)
  ---------------------------------------------------
  alpha Z        PSCENC =         0.19661355
  Ewald energy   TEWEN  =      1675.06761068
  -Hartree energ DENC   =     -2499.42731215
  -exchange      EXHF   =         0.00000000
  -V(xc)+E(xc)   XCENC  =        68.00737552
  PAW double counting   =     10194.90318808   -10174.00705394
  entropy T*S    EENTRO =        -0.00000000
  eigenvalues    EBANDS =      -340.86318486
  atomic energy  EATOM  =      1025.65316803
  ---------------------------------------------------
  free energy    TOTEN  =       -50.46959508 eV

  energy without entropy =      -50.46959508  energy(sigma->0) =      -50.46959508


--------------------------------------------------------------------------------------------------------




--------------------------------------- Iteration      1(  19)  ---------------------------------------


    POTLOK:  cpu time     10.5204: real time     10.5229
    SETDIJ:  cpu time      0.0712: real time      0.0712
    TRIAL :  cpu time      0.1040: real time      0.1040
    CORREC:  cpu time     10.9325: real time     10.9352
    CHARGE:  cpu time      0.0431: real time      0.0432
    --------------------------------------------
      LOOP:  cpu time     21.6859: real time     21.7067

 eigenvalue-minimisations  :     0
 total energy-change (2. order) :-0.1091704E-04  (-0.4345367E-05)
 number of electron      26.0000000 magnetization 
 augmentation part       -0.0634191 magnetization 

 Free energy of the ion-electron system (eV)
  ---------------------------------------------------
  alpha Z        PSCENC =         0.19661355
  Ewald energy   TEWEN  =      1675.06761068
  -Hartree energ DENC   =     -2499.43495301
  -exchange      EXHF   =         0.00000000
  -V(xc)+E(xc)   XCENC  =        68.00787921
  PAW double counting   =     10193.07249547   -10172.17643432
  entropy T*S    EENTRO =        -0.00000000
  eigenvalues    EBANDS =      -340.85598561
  atomic energy  EATOM  =      1025.65316803
  ---------------------------------------------------
  free energy    TOTEN  =       -50.46960600 eV

  energy without entropy =      -50.46960600  energy(sigma->0) =      -50.46960600


--------------------------------------------------------------------------------------------------------




--------------------------------------- Iteration      1(  20)  ---------------------------------------


    POTLOK:  cpu time     10.7664: real time     10.7690
    SETDIJ:  cpu time      0.0710: real time      0.0710
    TRIAL :  cpu time      0.1037: real time      0.1038
    CORREC:  cpu time     10.7352: real time     10.7378
    CHARGE:  cpu time      0.0426: real time      0.0426
    --------------------------------------------
      LOOP:  cpu time     21.7346: real time     21.7560

 eigenvalue-minimisations  :     0
 total energy-change (2. order) :-0.4306381E-05  (-0.1675296E-05)
 number of electron      26.0000000 magnetization 
 augmentation part       -0.0634286 magnetization 

 Free energy of the ion-electron system (eV)
  ---------------------------------------------------
  alpha Z        PSCENC =         0.19661355
  Ewald energy   TEWEN  =      1675.06761068
  -Hartree energ DENC   =     -2499.42037254
  -exchange      EXHF   =         0.00000000
  -V(xc)+E(xc)   XCENC  =        68.00744153
  PAW double counting   =     10192.47042266   -10171.57435054
  entropy T*S    EENTRO =        -0.00000000
  eigenvalues    EBANDS =      -340.87014366
  atomic energy  EATOM  =      1025.65316803
  ---------------------------------------------------
  free energy    TOTEN  =       -50.46961030 eV

  energy without entropy =      -50.46961030  energy(sigma->0) =      -50.46961030


--------------------------------------------------------------------------------------------------------




--------------------------------------- Iteration      1(  21)  ---------------------------------------


    POTLOK:  cpu time     10.8107: real time     10.8130
    SETDIJ:  cpu time      0.0712: real time      0.0712
    TRIAL :  cpu time      0.1035: real time      0.1038
    CORREC:  cpu time     10.7437: real time     10.7459
    CHARGE:  cpu time      0.0433: real time      0.0433
    --------------------------------------------
      LOOP:  cpu time     21.7850: real time     21.8072

 eigenvalue-minimisations  :     0
 total energy-change (2. order) :-0.1633493E-05  (-0.5966581E-06)
 number of electron      26.0000000 magnetization 
 augmentation part       -0.0634342 magnetization 

 Free energy of the ion-electron system (eV)
  ---------------------------------------------------
  alpha Z        PSCENC =         0.19661355
  Ewald energy   TEWEN  =      1675.06761068
  -Hartree energ DENC   =     -2499.42111911
  -exchange      EXHF   =         0.00000000
  -V(xc)+E(xc)   XCENC  =        68.00744289
  PAW double counting   =     10192.40651159   -10171.51045069
  entropy T*S    EENTRO =        -0.00000000
  eigenvalues    EBANDS =      -340.86938888
  atomic energy  EATOM  =      1025.65316803
  ---------------------------------------------------
  free energy    TOTEN  =       -50.46961194 eV

  energy without entropy =      -50.46961194  energy(sigma->0) =      -50.46961194


--------------------------------------------------------------------------------------------------------




--------------------------------------- Iteration      1(  22)  ---------------------------------------


    POTLOK:  cpu time     10.6453: real time     10.6482
    SETDIJ:  cpu time      0.0714: real time      0.0714
    TRIAL :  cpu time      0.1036: real time      0.1036
    CORREC:  cpu time     10.9633: real time     10.9661
    CHARGE:  cpu time      0.0428: real time      0.0428
    --------------------------------------------
      LOOP:  cpu time     21.8402: real time     21.8624

 eigenvalue-minimisations  :     0
 total energy-change (2. order) :-0.5838774E-06  (-0.2261562E-06)
 number of electron      26.0000000 magnetization 
 augmentation part       -0.0634374 magnetization 

 Free energy of the ion-electron system (eV)
  ---------------------------------------------------
  alpha Z        PSCENC =         0.19661355
  Ewald energy   TEWEN  =      1675.06761068
  -Hartree energ DENC   =     -2499.41795952
  -exchange      EXHF   =         0.00000000
  -V(xc)+E(xc)   XCENC  =        68.00730828
  PAW double counting   =     10192.42044125   -10171.52438428
  entropy T*S    EENTRO =        -0.00000000
  eigenvalues    EBANDS =      -340.87241051
  atomic energy  EATOM  =      1025.65316803
  ---------------------------------------------------
  free energy    TOTEN  =       -50.46961252 eV

  energy without entropy =      -50.46961252  energy(sigma->0) =      -50.46961252


--------------------------------------------------------------------------------------------------------




--------------------------------------- Iteration      1(  23)  ---------------------------------------


    POTLOK:  cpu time     10.5240: real time     10.5268
    SETDIJ:  cpu time      0.0711: real time      0.0711
    TRIAL :  cpu time      0.1034: real time      0.1034
    CORREC:  cpu time     10.9020: real time     10.9051
    CHARGE:  cpu time      0.0426: real time      0.0426
    --------------------------------------------
      LOOP:  cpu time     21.6574: real time     21.6804

 eigenvalue-minimisations  :     0
 total energy-change (2. order) :-0.2220422E-06  (-0.8554427E-07)
 number of electron      26.0000000 magnetization 
 augmentation part       -0.0634375 magnetization 

 Free energy of the ion-electron system (eV)
  ---------------------------------------------------
  alpha Z        PSCENC =         0.19661355
  Ewald energy   TEWEN  =      1675.06761068
  -Hartree energ DENC   =     -2499.41643766
  -exchange      EXHF   =         0.00000000
  -V(xc)+E(xc)   XCENC  =        68.00722499
  PAW double counting   =     10192.48105689   -10171.58499249
  entropy T*S    EENTRO =        -0.00000000
  eigenvalues    EBANDS =      -340.87385673
  atomic energy  EATOM  =      1025.65316803
  ---------------------------------------------------
  free energy    TOTEN  =       -50.46961274 eV

  energy without entropy =      -50.46961274  energy(sigma->0) =      -50.46961274


--------------------------------------------------------------------------------------------------------




--------------------------------------- Iteration      1(  24)  ---------------------------------------


    POTLOK:  cpu time     10.6479: real time     10.6511
    SETDIJ:  cpu time      0.0715: real time      0.0715
    TRIAL :  cpu time      0.1049: real time      0.1049
    CORREC:  cpu time     10.7330: real time     10.7359
    EDDIAG:  cpu time      0.0584: real time      0.0595
    CHARGE:  cpu time      0.0442: real time      0.0442
    --------------------------------------------
      LOOP:  cpu time     21.6808: real time     21.7023

 eigenvalue-minimisations  :     0
 total energy-change (2. order) :-0.8395000E-07  (-0.2543315E-07)
 number of electron      26.0000000 magnetization 
 augmentation part       -0.0634375 magnetization 

 Free energy of the ion-electron system (eV)
  ---------------------------------------------------
  alpha Z        PSCENC =         0.19661355
  Ewald energy   TEWEN  =      1675.06761068
  -Hartree energ DENC   =     -2499.41871646
  -exchange      EXHF   =         0.00000000
  -V(xc)+E(xc)   XCENC  =        68.00728909
  PAW double counting   =     10192.49296740   -10171.59691079
  entropy T*S    EENTRO =        -0.00000000
  eigenvalues    EBANDS =      -340.87163433
  atomic energy  EATOM  =      1025.65316803
  ---------------------------------------------------
  free energy    TOTEN  =       -50.46961283 eV

  energy without entropy =      -50.46961283  energy(sigma->0) =      -50.46961283


--------------------------------------------------------------------------------------------------------


  average scaling for gradient   0.9348


 average (electrostatic) potential at core
  the test charge radii are     0.5770  0.4325  0.5902
  (the norm of the test charge is              1.0000)
       1 -86.7587       2 -86.2816       3 -87.3268       4 -46.2592       5 -45.6515
       6 -45.5459       7 -48.2279       8-105.8187       9-104.0129



 E-fermi :  -6.1409     XC(G=0):  -0.1927     alpha+bet : -0.0573

 Fermi energy:        -6.1408541928

 k-point     1 :       0.0000    0.0000    0.0000
  band No.  band energies     occupation 
      1     -26.1483      2.00000
      2     -20.2908      2.00000
      3     -19.3107      2.00000
      4     -15.1338      2.00000
      5     -14.7206      2.00000
      6     -13.4418      2.00000
      7     -10.9253      2.00000
      8     -10.7793      2.00000
      9     -10.4796      2.00000
     10      -9.7213      2.00000
     11      -6.8553      2.00000
     12      -6.4368      2.00000
     13      -6.1927      2.00000
     14      -0.8840      0.00000
     15      -0.8057      0.00000
     16      -0.3119      0.00000
     17      -0.1193      0.00000
     18       0.0032      0.00000
     19       0.1322      0.00000
     20       0.3268      0.00000


--------------------------------------------------------------------------------------------------------


 soft charge-density along one line, spin component           1
         0         1         2         3         4         5         6         7         8         9
 total charge-density along one line

 pseudopotential strength for first ion, spin component:           1
 12.749  21.455  -0.000  -0.003   0.006  -0.000  -0.005   0.011
 21.455  36.105  -0.000  -0.005   0.011  -0.001  -0.009   0.019
 -0.000  -0.000  -3.208   0.001   0.000  -5.750   0.001   0.001
 -0.003  -0.005   0.001  -3.208   0.000   0.001  -5.750   0.000
  0.006   0.011   0.000   0.000  -3.208   0.001   0.000  -5.751
 -0.000  -0.001  -5.750   0.001   0.001 -10.284   0.002   0.001
 -0.005  -0.009   0.001  -5.750   0.000   0.002 -10.285   0.001
  0.011   0.019   0.001   0.000  -5.751   0.001   0.001 -10.286
 total augmentation occupancy for first ion, spin component:           1
  7.667  -2.684  -0.575  -0.917   0.928   0.264   0.432  -0.452
 -2.684   0.992   0.277   0.466  -0.502  -0.125  -0.212   0.233
 -0.575   0.277   5.240   1.673   0.729  -1.625  -0.653  -0.291
 -0.917   0.466   1.673   4.981  -1.068  -0.653  -1.538   0.459
  0.928  -0.502   0.729  -1.068   7.009  -0.291   0.459  -2.423
  0.264  -0.125  -1.625  -0.653  -0.291   0.519   0.243   0.110
  0.432  -0.212  -0.653  -1.538   0.459   0.243   0.494  -0.188
 -0.452   0.233  -0.291   0.459  -2.423   0.110  -0.188   0.860


------------------------ aborting loop because EDIFF is reached ----------------------------------------


    FORLOC:  cpu time      0.0183: real time      0.0183
    FORNL :  cpu time      0.0142: real time      0.0144
    FORCOR:  cpu time     11.0814: real time     11.0842
    OFIELD:  cpu time      0.0026: real time      0.0026

 VOLUME and BASIS-vectors are now :
 -----------------------------------------------------------------------------
  energy-cutoff  :     1000.00
  volume of cell :    10648.00
      direct lattice vectors                 reciprocal lattice vectors
    22.000000000  0.000000000  0.000000000     0.045454545  0.000000000  0.000000000
     0.000000000 22.000000000  0.000000000     0.000000000  0.045454545  0.000000000
     0.000000000  0.000000000 22.000000000     0.000000000  0.000000000  0.045454545

  length of vectors
    22.000000000 22.000000000 22.000000000     0.045454545  0.045454545  0.045454545


 FORCES acting on ions:
    Electron-Ion                     Ewald-Force                    Non-Local-Force
 -----------------------------------------------------------------------------------------------
   0.837E+02 -.136E+03 -.158E+03   -.870E+02 0.136E+03 0.159E+03   0.329E+01 0.124E+00 -.130E+01
   0.205E+03 0.316E+02 -.601E+02   -.205E+03 -.310E+02 0.607E+02   0.271E+00 -.565E+00 -.627E+00
   0.966E+02 0.170E+03 0.111E+03   -.104E+03 -.172E+03 -.109E+03   0.792E+01 0.178E+01 -.180E+01
   0.230E+02 0.627E+02 0.462E+02   -.245E+02 -.675E+02 -.498E+02   0.146E+01 0.463E+01 0.351E+01
   0.754E+02 0.128E+02 -.209E+02   -.811E+02 -.138E+02 0.225E+02   0.563E+01 0.966E+00 -.155E+01
   0.168E+02 -.556E+02 -.570E+02   -.178E+02 0.598E+02 0.613E+02   0.995E+00 -.417E+01 -.417E+01
   -.786E+02 0.272E+02 0.585E+02   0.847E+02 -.291E+02 -.629E+02   -.609E+01 0.185E+01 0.431E+01
   -.176E+03 0.929E+02 0.159E+03   0.175E+03 -.958E+02 -.161E+03   0.660E+00 0.309E+01 0.239E+01
   -.229E+03 -.187E+03 -.684E+02   0.260E+03 0.214E+03 0.794E+02   -.309E+02 -.275E+02 -.113E+02
 -----------------------------------------------------------------------------------------------
   0.168E+02 0.198E+02 0.105E+02   0.000E+00 0.000E+00 0.568E-13   -.168E+02 -.198E+02 -.105E+02


 POSITION                                       TOTAL-FORCE (eV/Angst)
 -----------------------------------------------------------------------------------
     11.01592     11.87822     11.66173         0.023937     -0.077187     -0.083590
     10.13162     10.89700     11.16415         0.061153      0.032798     -0.000282
     10.86960     10.20273     10.22385         0.083786      0.076948      0.034764
     10.62191      9.36726      9.58344        -0.031775     -0.107974     -0.085529
      9.10345     10.71911     11.44618        -0.126913     -0.025843      0.036596
     10.83243     12.63274     12.41656        -0.018427      0.095908      0.094007
     12.89655     10.52869      9.63866         0.090750     -0.027910     -0.061127
     12.10054     10.77938     10.20966        -0.108340      0.119927      0.151114
     12.21825     11.80899     11.08057         0.025828     -0.086666     -0.085954
 -----------------------------------------------------------------------------------
    total drift:                                0.000077      0.000526      0.000006


--------------------------------------------------------------------------------------------------------



  FREE ENERGIE OF THE ION-ELECTRON SYSTEM (eV)
  ---------------------------------------------------
  free  energy   TOTEN  =       -50.46961283 eV

  energy  without entropy=      -50.46961283  energy(sigma->0) =      -50.46961283



--------------------------------------------------------------------------------------------------------


    POTLOK:  cpu time     10.8550: real time     10.8584


--------------------------------------------------------------------------------------------------------


 stress matrix after NEB project (eV)
      0.00000      0.00000      0.00000
      0.00000      0.00000      0.00000
      0.00000      0.00000      0.00000
  FORCES: max atom, RMS     0.221259    0.135904
  FORCE total and by dimension    0.407711    0.151114
  Stress total and by dimension    0.000000    0.000000
     LOOP+:  cpu time    448.7777: real time    449.2303
    4ORBIT:  cpu time      0.0000: real time      0.0000

 total amount of memory used by VASP MPI-rank0    61522. kBytes
=======================================================================

   base      :      30000. kBytes
   nonl-proj :       1002. kBytes
   fftplans  :      10395. kBytes
   grid      :      19407. kBytes
   one-center:          1. kBytes
   wavefun   :        717. kBytes

  
  
 General timing and accounting informations for this job:
 ========================================================
  
                  Total CPU time used (sec):      500.367
                            User time (sec):      494.588
                          System time (sec):        5.779
                         Elapsed time (sec):      520.862
  
                   Maximum memory used (kb):      455672.
                   Average memory used (kb):          N/A
  
                          Minor page faults:       290031
                          Major page faults:          287
                 Voluntary context switches:        11932
