 vasp.6.4.1 05Apr23 (build Jun  6 2023 14:46:38) gamma-only                      
 executed on        HPECrayEX_GCC date 2024.08.22  04:51:51
 running  512 mpi-ranks, with    1 threads/rank, on    4 nodes
 distrk:  each k-point on  256 cores,    2 groups
 distr:  one band on NCORE=  32 cores,    8 groups


--------------------------------------------------------------------------------------------------------


 INCAR:
   ALGO = Conjugate
   KPAR = 2
   NCORE = 32
   ISMEAR = 0
   SIGMA = 0.01
   PREC = Accurate
   EDIFF = 1E-7
   ENCUT = 1000
   ISIF = 0
   METAGGA = RSCAN
   LASPH = .TRUE.
   SYMPREC = 1E-7
   LWAVE = .FALSE.
   LCHARG = .FALSE.
   LWAVE = .FALSE.
   LCHARG = .FALSE.

 POTCAR:    PAW_PBE C_h 06Feb2004                 
 POTCAR:    PAW_PBE H_h 06Feb2004                 
 POTCAR:    PAW_PBE N_h 06Feb2004                 
 POTCAR:    PAW_PBE C_h 06Feb2004                 
   VRHFIN =C: s2p2                                                                                  
   LEXCH  = PE                                                                                      
   EATOM  =   147.1560 eV,   10.8157 Ry                                                             
                                                                                                    
   TITEL  = PAW_PBE C_h 06Feb2004                                                                   
   LULTRA =        F    use ultrasoft PP ?                                                          
   IUNSCR =        1    unscreen: 0-lin 1-nonlin 2-no                                               
   RPACOR =    0.800    partial core radius                                                         
   POMASS =   12.011; ZVAL   =    4.000    mass and valenz                                          
   RCORE  =    1.100    outmost cutoff radius                                                       
   RWIGS  =    1.630; RWIGS  =    0.863    wigner-seitz radius (au A)                               
   ENMAX  =  700.000; ENMIN  =  500.000 eV                                                          
   ICORE  =        2    local potential                                                             
   LCOR   =        T    correct aug charges                                                         
   LPAW   =        T    paw PP                                                                      
   EAUG   =  946.768                                                                                
   DEXC   =    0.000                                                                                
   RMAX   =    1.128    core radius for proj-oper                                                   
   RAUG   =    1.300    factor for augmentation sphere                                              
   RDEP   =    1.162    radius for radial grids                                                     
   RDEPT  =    1.088    core radius for aug-charge                                                  
                                                                                                    
   Atomic configuration                                                                             
    4 entries                                                                                       
     n  l   j            E        occ.                                                              
     1  0  0.50      -273.3789   2.0000                                                             
     2  0  0.50       -13.7508   2.0000                                                             
     2  1  0.50        -5.2854   2.0000                                                             
     3  2  1.50        -5.4423   0.0000                                                             
   Description                                                                                      
     l       E           TYP  RCUT    TYP  RCUT                                                     
     0    -13.7508458     23  1.100                                                                 
     0     -8.2022199     23  1.100                                                                 
     1     -5.2854383     23  1.100                                                                 
     1      1.1560700     23  1.100                                                                 
     2     -5.4423304      7  1.100                                                                 
  local pseudopotential read in
  partial core-charges read in
  partial kinetic energy density read in
  atomic valenz-charges read in
  non local Contribution for L=           0  read in
    real space projection operators read in
  non local Contribution for L=           0  read in
    real space projection operators read in
  non local Contribution for L=           1  read in
    real space projection operators read in
  non local Contribution for L=           1  read in
    real space projection operators read in
    PAW grid and wavefunctions read in

   number of l-projection  operators is LMAX  =           4
   number of lm-projection operators is LMMAX =           8

 POTCAR:    PAW_PBE H_h 06Feb2004                 
   VRHFIN =H: ultrasoft test                                                                        
   LEXCH  = PE                                                                                      
   EATOM  =    12.4884 eV,    0.9179 Ry                                                             
                                                                                                    
   TITEL  = PAW_PBE H_h 06Feb2004                                                                   
   LULTRA =        F    use ultrasoft PP ?                                                          
   IUNSCR =        0    unscreen: 0-lin 1-nonlin 2-no                                               
   RPACOR =    0.000    partial core radius                                                         
   POMASS =    1.000; ZVAL   =    1.000    mass and valenz                                          
   RCORE  =    0.800    outmost cutoff radius                                                       
   RWIGS  =    0.700; RWIGS  =    0.370    wigner-seitz radius (au A)                               
   ENMAX  =  700.000; ENMIN  =  350.000 eV                                                          
   RCLOC  =    0.701    cutoff for local pot                                                        
   LCOR   =        T    correct aug charges                                                         
   LPAW   =        T    paw PP                                                                      
   EAUG   = 1000.000                                                                                
   RMAX   =    0.819    core radius for proj-oper                                                   
   RAUG   =    1.000    factor for augmentation sphere                                              
   RDEP   =    0.817    radius for radial grids                                                     
   RDEPT  =    0.817    core radius for aug-charge                                                  
                                                                                                    
   Atomic configuration                                                                             
    2 entries                                                                                       
     n  l   j            E        occ.                                                              
     1  0  0.50        -6.4927   1.0000                                                             
     2  1  0.50        -3.4015   0.0000                                                             
   Description                                                                                      
     l       E           TYP  RCUT    TYP  RCUT                                                     
     0     -6.4927493     23  0.800                                                                 
     0      6.8029130     23  0.800                                                                 
     1     -6.8029130     23  0.800                                                                 
  local pseudopotential read in
  atomic valenz-charges read in
  non local Contribution for L=           0  read in
    real space projection operators read in
  non local Contribution for L=           0  read in
    real space projection operators read in
  non local Contribution for L=           1  read in
    real space projection operators read in
    PAW grid and wavefunctions read in

   number of l-projection  operators is LMAX  =           3
   number of lm-projection operators is LMMAX =           5

 POTCAR:    PAW_PBE N_h 06Feb2004                 
   VRHFIN =N: s2p3                                                                                  
   LEXCH  = PE                                                                                      
   EATOM  =   264.5486 eV,   19.4438 Ry                                                             
                                                                                                    
   TITEL  = PAW_PBE N_h 06Feb2004                                                                   
   LULTRA =        F    use ultrasoft PP ?                                                          
   IUNSCR =        1    unscreen: 0-lin 1-nonlin 2-no                                               
   RPACOR =    0.800    partial core radius                                                         
   POMASS =   14.001; ZVAL   =    5.000    mass and valenz                                          
   RCORE  =    1.100    outmost cutoff radius                                                       
   RWIGS  =    1.480; RWIGS  =    0.783    wigner-seitz radius (au A)                               
   ENMAX  =  700.000; ENMIN  =  500.000 eV                                                          
   ICORE  =        2    local potential                                                             
   LCOR   =        T    correct aug charges                                                         
   LPAW   =        T    paw PP                                                                      
   EAUG   =  904.640                                                                                
   DEXC   =    0.000                                                                                
   RMAX   =    1.127    core radius for proj-oper                                                   
   RAUG   =    1.300    factor for augmentation sphere                                              
   RDEP   =    1.115    radius for radial grids                                                     
   RDEPT  =    1.106    core radius for aug-charge                                                  
                                                                                                    
   Atomic configuration                                                                             
    4 entries                                                                                       
     n  l   j            E        occ.                                                              
     1  0  0.50      -384.7179   2.0000                                                             
     2  0  0.50       -18.5828   2.0000                                                             
     2  1  0.50        -7.0898   3.0000                                                             
     3  2  1.50        -6.8029   0.0000                                                             
   Description                                                                                      
     l       E           TYP  RCUT    TYP  RCUT                                                     
     0    -18.5828117     23  1.100                                                                 
     0    -15.0750597     23  1.100                                                                 
     1     -7.0897851     23  1.100                                                                 
     1     -1.9663412     23  1.100                                                                 
     2     -6.8029130      7  1.100                                                                 
  local pseudopotential read in
  partial core-charges read in
  partial kinetic energy density read in
  kinetic energy density of atom read in
  atomic valenz-charges read in
  non local Contribution for L=           0  read in
    real space projection operators read in
  non local Contribution for L=           0  read in
    real space projection operators read in
  non local Contribution for L=           1  read in
    real space projection operators read in
  non local Contribution for L=           1  read in
    real space projection operators read in
    PAW grid and wavefunctions read in

   number of l-projection  operators is LMAX  =           4
   number of lm-projection operators is LMMAX =           8

  PAW_PBE C_h 06Feb2004                 :
 energy of atom  1       EATOM= -147.1560
 kinetic energy error for atom=    0.0031 (will be added to EATOM!!)
  PAW_PBE H_h 06Feb2004                 :
 energy of atom  2       EATOM=  -12.4884
 kinetic energy error for atom=    0.0006 (will be added to EATOM!!)
  PAW_PBE N_h 06Feb2004                 :
 energy of atom  3       EATOM= -264.5486
 kinetic energy error for atom=    0.0081 (will be added to EATOM!!)


 POSCAR:  C  H  N
  positions in cartesian coordinates
  No initial velocities read in

 METAGGA = RSCAN                                       LMAXTAU =  6    LMIXTAU =  F

 exchange correlation table for  LEXCH =        8
   RHO(1)=    0.500       N(1)  =     2000
   RHO(2)=  100.500       N(2)  =     4000

 VTST: version 4.1, (05/19/21)

 CHAIN: initializing optimizer
 
 OPT: Using VASP Dynamics algorithm
 CHAIN: Read ICHAIN            0

 POSCAR:  C  H  N
  positions in cartesian coordinates
  No initial velocities read in



--------------------------------------------------------------------------------------------------------


 ion  position               nearest neighbor table
   1  0.501  0.540  0.530-   6 1.08   9 1.34   2 1.41
   2  0.461  0.495  0.507-   5 1.08   3 1.38   1 1.41
   3  0.494  0.464  0.465-   4 1.08   8 1.36   2 1.38
   4  0.483  0.426  0.436-   3 1.08
   5  0.414  0.487  0.520-   2 1.08
   6  0.492  0.574  0.564-   1 1.08
   7  0.586  0.479  0.438-   8 1.01
   8  0.550  0.490  0.464-   7 1.01   9 1.35   3 1.36
   9  0.555  0.537  0.504-   1 1.34   8 1.35

  LATTYP: Found a simple cubic cell.
 ALAT       =    22.0000000000
  
  Lattice vectors:
  
 A1 = (  22.0000000000,   0.0000000000,   0.0000000000)
 A2 = (   0.0000000000,  22.0000000000,   0.0000000000)
 A3 = (   0.0000000000,   0.0000000000,  22.0000000000)


Analysis of symmetry for initial positions (statically):
=====================================================================
 Subroutine PRICEL returns:
 Original cell was already a primitive cell.
 

 Routine SETGRP: Setting up the symmetry group for a 
 simple cubic supercell.


 Subroutine GETGRP returns: Found  1 space group operations
 (whereof  1 operations were pure point group operations)
 out of a pool of 48 trial point group operations.


The static configuration has the point symmetry C_1 .


Analysis of symmetry for dynamics (positions and initial velocities):
=====================================================================
 Subroutine PRICEL returns:
 Original cell was already a primitive cell.
 

 Routine SETGRP: Setting up the symmetry group for a 
 simple cubic supercell.


 Subroutine GETGRP returns: Found  1 space group operations
 (whereof  1 operations were pure point group operations)
 out of a pool of 48 trial point group operations.


The dynamic configuration has the point symmetry C_1 .


 Subroutine INISYM returns: Found  1 space group operations
 (whereof  1 operations are pure point group operations),
 and found     1 'primitive' translations


----------------------------------------------------------------------------------------

                                     Primitive cell                                     

  volume of cell :   10648.0000

  direct lattice vectors                    reciprocal lattice vectors
    22.000000000  0.000000000  0.000000000     0.045454545  0.000000000  0.000000000
     0.000000000 22.000000000  0.000000000     0.000000000  0.045454545  0.000000000
     0.000000000  0.000000000 22.000000000     0.000000000  0.000000000  0.045454545

  length of vectors
    22.000000000 22.000000000 22.000000000     0.045454545  0.045454545  0.045454545

  position of ions in fractional coordinates (direct lattice)
     0.500723409  0.539918864  0.530078409
     0.460527955  0.495318409  0.507461591
     0.494072955  0.463760227  0.464720227
     0.482814318  0.425784318  0.435610682
     0.413793409  0.487232500  0.520281136
     0.492382955  0.574215682  0.564389318
     0.586206591  0.478577045  0.438121136
     0.550024318  0.489972045  0.464075682
     0.555375227  0.536772045  0.503662500

  ion indices of the primitive-cell ions
   primitive index   ion index
                 1           1
                 2           2
                 3           3
                 4           4
                 5           5
                 6           6
                 7           7
                 8           8
                 9           9

----------------------------------------------------------------------------------------



 KPOINTS: auto                                    

Automatic generation of k-mesh.
 Grid dimensions read from file:
 generate k-points for:    1    1    1

 Generating k-lattice:

  Cartesian coordinates                     Fractional coordinates (reciprocal lattice)
     0.045454545  0.000000000  0.000000000     1.000000000  0.000000000  0.000000000
     0.000000000  0.045454545  0.000000000     0.000000000  1.000000000  0.000000000
     0.000000000  0.000000000  0.045454545     0.000000000  0.000000000  1.000000000

  Length of vectors
     0.045454545  0.045454545  0.045454545

  Shift w.r.t. Gamma in fractional coordinates (k-lattice)
     0.000000000  0.000000000  0.000000000

 
 Subroutine IBZKPT returns following result:
 ===========================================
 
 Found      1 irreducible k-points:
 
 Following reciprocal coordinates:
            Coordinates               Weight
  0.000000  0.000000  0.000000      1.000000
 
 Following cartesian coordinates:
            Coordinates               Weight
  0.000000  0.000000  0.000000      1.000000
 


--------------------------------------------------------------------------------------------------------




 Dimension of arrays:
   k-points           NKPTS =      1   k-points in BZ     NKDIM =      1   number of bands    NBANDS=     24
   number of dos      NEDOS =    301   number of ions     NIONS =      9
   non local maximal  LDIM  =      4   non local SUM 2l+1 LMDIM =      8
   total plane-waves  NPLWV = ******
   max r-space proj   IRMAX =      1   max aug-charges    IRDMAX=   9419
   dimension x,y,z NGX =   240 NGY =  240 NGZ =  240
   dimension x,y,z NGXF=   480 NGYF=  480 NGZF=  480
   support grid    NGXF=   480 NGYF=  480 NGZF=  480
   ions per type =               3   4   2
   NGX,Y,Z   is equivalent  to a cutoff of  18.14, 18.14, 18.14 a.u.
   NGXF,Y,Z  is equivalent  to a cutoff of  36.27, 36.27, 36.27 a.u.

 SYSTEM =  unknown system                          
 POSCAR =   C  H  N                                

 Startparameter for this run:
   NWRITE =      2    write-flag & timer
   PREC   = accura    normal or accurate (medium, high low for compatibility)
   ISTART =      0    job   : 0-new  1-cont  2-samecut
   ICHARG =      2    charge: 1-file 2-atom 10-const
   ISPIN  =      1    spin polarized calculation?
   LNONCOLLINEAR =      F non collinear calculations
   LSORBIT =      F    spin-orbit coupling
   INIWAV =      1    electr: 0-lowe 1-rand  2-diag
   LASPH  =      T    aspherical Exc in radial PAW
 Electronic Relaxation 1
   ENCUT  = 1000.0 eV  73.50 Ry    8.57 a.u.  56.73 56.73 56.73*2*pi/ulx,y,z
   ENINI  = 1000.0     initial cutoff
   ENAUG  = 1000.0 eV  augmentation charge cutoff
   NELM   =     60;   NELMIN=  2; NELMDL= -5     # of ELM steps 
   EDIFF  = 0.1E-06   stopping-criterion for ELM
   LREAL  =      F    real-space projection
   NLSPLINE    = F    spline interpolate recip. space projectors
   LCOMPAT=      F    compatible to vasp.4.4
   GGA_COMPAT  = T    GGA compatible to vasp.4.4-vasp.4.6
   LMAXPAW     = -100 max onsite density
   LMAXMIX     =    2 max onsite mixed and CHGCAR
   VOSKOWN=      0    Vosko Wilk Nusair interpolation
   ROPT   =    0.00000   0.00000   0.00000
 Ionic relaxation
   EDIFFG = 0.1E-05   stopping-criterion for IOM
   NSW    =      0    number of steps for IOM
   NBLOCK =      1;   KBLOCK =      1    inner block; outer block 
   IBRION =     -1    ionic relax: 0-MD 1-quasi-New 2-CG
   NFREE  =      0    steps in history (QN), initial steepest desc. (CG)
   ISIF   =      0    stress and relaxation
   IWAVPR =     10    prediction:  0-non 1-charg 2-wave 3-comb
   ISYM   =      2    0-nonsym 1-usesym 2-fastsym
   LCORR  =      T    Harris-Foulkes like correction to forces

   POTIM  = 0.5000    time-step for ionic-motion
   TEIN   =    0.0    initial temperature
   TEBEG  =    0.0;   TEEND  =   0.0 temperature during run
   SMASS  =  -3.00    Nose mass-parameter (am)
   estimated Nose-frequenzy (Omega)   =  0.10E-29 period in steps = 0.13E+47 mass=  -0.111E-25a.u.
   SCALEE = 1.0000    scale energy and forces
   NPACO  =    256;   APACO  = 10.0  distance and # of slots for P.C.
   PSTRESS=    0.0 pullay stress

  Mass of Ions in am
   POMASS =  12.01  1.00 14.00
  Ionic Valenz
   ZVAL   =   4.00  1.00  5.00
  Atomic Wigner-Seitz radii
   RWIGS  =  -1.00 -1.00 -1.00
  virtual crystal weights 
   VCA    =   1.00  1.00  1.00
   NELECT =      26.0000    total number of electrons
   NUPDOWN=      -1.0000    fix difference up-down

 DOS related values:
   EMIN   =  10.00;   EMAX   =-10.00  energy-range for DOS
   EFERMI =   0.00;   METHOD = LEGACY      
   ISMEAR =     0;   SIGMA  =   0.01  broadening in eV -4-tet -1-fermi 0-gaus

 Electronic relaxation 2 (details)
   IALGO  =     58    algorithm
   LDIAG  =      T    sub-space diagonalisation (order eigenvalues)
   LSUBROT=      F    optimize rotation matrix (better conditioning)
   TURBO    =      0    0=normal 1=particle mesh
   IRESTART =      0    0=no restart 2=restart with 2 vectors
   NREBOOT  =      0    no. of reboots
   NMIN     =      0    reboot dimension
   EREF     =   0.00    reference energy to select bands
   IMIX   =      4    mixing-type and parameters
     AMIX     =   0.40;   BMIX     =  1.00
     AMIX_MAG =   1.60;   BMIX_MAG =  1.00
     AMIN     =   0.10
     WC   =   100.;   INIMIX=   1;  MIXPRE=   1;  MAXMIX= -45

 Intra band minimization:
   WEIMIN = 0.0000     energy-eigenvalue tresh-hold
   EBREAK =  0.10E-08  absolut break condition
   DEPER  =   0.30     relativ break condition  

   TIME   =   0.40     timestep for ELM

  volume/ion in A,a.u.               =    1183.11      7984.03
  Fermi-wavevector in a.u.,A,eV,Ry     =   0.220450  0.416590  0.661218  0.048598
  Thomas-Fermi vector in A             =   1.001172

 Write flags
   LWAVE        =      F    write WAVECAR
   LDOWNSAMPLE  =      F    k-point downsampling of WAVECAR
   LCHARG       =      F    write CHGCAR
   LVTOT        =      F    write LOCPOT, total local potential
   LVHAR        =      F    write LOCPOT, Hartree potential only
   LELF         =      F    write electronic localiz. function (ELF)
   LORBIT       =      0    0 simple, 1 ext, 2 COOP (PROOUT), +10 PAW based schemes


 Dipole corrections
   LMONO  =      F    monopole corrections only (constant potential shift)
   LDIPOL =      F    correct potential (dipole corrections)
   IDIPOL =      0    1-x, 2-y, 3-z, 4-all directions 
   EPSILON=  1.0000000 bulk dielectric constant

 Exchange correlation treatment:
   GGA     =    --    GGA type
   LEXCH   =     8    internal setting for exchange type
   LIBXC   =     F    Libxc                    
   VOSKOWN =     0    Vosko Wilk Nusair interpolation
   LHFCALC =     F    Hartree Fock is set to
   LHFONE  =     F    Hartree Fock one center treatment
   AEXX    =    0.0000 exact exchange contribution

 Linear response parameters
   LEPSILON=     F    determine dielectric tensor
   LRPA    =     F    only Hartree local field effects (RPA)
   LNABLA  =     F    use nabla operator in PAW spheres
   LVEL    =     F    velocity operator in full k-point grid
   CSHIFT  =0.1000    complex shift for real part using Kramers Kronig
   OMEGAMAX=  -1.0    maximum frequency
   DEG_THRESHOLD= 0.2000000E-02 threshold for treating states as degnerate
   RTIME   =   -0.100 relaxation time in fs
  (WPLASMAI=    0.000 imaginary part of plasma frequency in eV, 0.658/RTIME)
   DFIELD  = 0.0000000 0.0000000 0.0000000 field for delta impulse in time

  Optional k-point grid parameters
   LKPOINTS_OPT  =     F    use optional k-point grid
   KPOINTS_OPT_MODE=     1    mode for optional k-point grid

 Orbital magnetization related:
   ORBITALMAG=     F  switch on orbital magnetization
   LCHIMAG   =     F  perturbation theory with respect to B field
   DQ        =  0.001000  dq finite difference perturbation B field
   LLRAUG    =     F  two centre corrections for induced B field
   LBONE     =     F  B-component reconstruction in AE one-centre
   LVGVCALC  =     T  calculate vGv susceptibility
   LVGVAPPL  =     F  apply vGv susceptibility instead of pGv for G=0

 Random number generation:
   RANDOM_GENERATOR = DEFAULT
   PCG_SEED         = not used


--------------------------------------------------------------------------------------------------------


 Static calculation
 charge density and potential will be updated during run
 non-spin polarized calculation
 Conjugate gradient for all bands (Freysoldt, et al. PRB 79, 241103 (2009))
 preconditioned conjugated gradient                                        
 perform sub-space diagonalisation
    before iterative eigenvector-optimisation
 modified Broyden-mixing scheme, WC =      100.0
 initial mixing is a Kerker type mixing with AMIX =  0.4000 and BMIX =      1.0000
 Hartree-type preconditioning will be used
 using additional bands           11
 reciprocal scheme for non local part
 use partial core corrections
 no Harris-corrections to forces 
 use gradient corrections 
 use of overlap-Matrix (Vanderbilt PP)
 Gauss-broadening in eV      SIGMA  =   0.01


--------------------------------------------------------------------------------------------------------


  energy-cutoff  :     1000.00
  volume of cell :    10648.00
      direct lattice vectors                 reciprocal lattice vectors
    22.000000000  0.000000000  0.000000000     0.045454545  0.000000000  0.000000000
     0.000000000 22.000000000  0.000000000     0.000000000  0.045454545  0.000000000
     0.000000000  0.000000000 22.000000000     0.000000000  0.000000000  0.045454545

  length of vectors
    22.000000000 22.000000000 22.000000000     0.045454545  0.045454545  0.045454545



 k-points in units of 2pi/SCALE and weight: auto                                    
   0.00000000  0.00000000  0.00000000       1.000

 k-points in reciprocal lattice and weights: auto                                    
   0.00000000  0.00000000  0.00000000       1.000

 position of ions in fractional coordinates (direct lattice) 
   0.50072341  0.53991886  0.53007841
   0.46052795  0.49531841  0.50746159
   0.49407295  0.46376023  0.46472023
   0.48281432  0.42578432  0.43561068
   0.41379341  0.48723250  0.52028114
   0.49238295  0.57421568  0.56438932
   0.58620659  0.47857705  0.43812114
   0.55002432  0.48997205  0.46407568
   0.55537523  0.53677205  0.50366250

 position of ions in cartesian coordinates  (Angst):
  11.01591500 11.87821500 11.66172500
  10.13161500 10.89700500 11.16415500
  10.86960500 10.20272500 10.22384500
  10.62191500  9.36725500  9.58343500
   9.10345500 10.71911500 11.44618500
  10.83242500 12.63274500 12.41656500
  12.89654500 10.52869500  9.63866500
  12.10053500 10.77938500 10.20966500
  12.21825500 11.80898500 11.08057500



--------------------------------------------------------------------------------------------------------


 use parallel FFT for orbitals z direction half grid
 k-point   1 :   0.0000 0.0000 0.0000  plane waves:  381993

 maximum and minimum number of plane-waves per node :     11948    11928

 maximum number of plane-waves:    381993
 maximum index in each direction: 
   IXMAX=   56   IYMAX=   56   IZMAX=   56
   IXMIN=  -56   IYMIN=  -56   IZMIN=    0


 parallel 3D FFT for wavefunctions:
    minimum data exchange during FFTs selected (reduces bandwidth)
 parallel 3D FFT for charge:
    minimum data exchange during FFTs selected (reduces bandwidth)


 total amount of memory used by VASP MPI-rank0   127103. kBytes
=======================================================================

   base      :      30000. kBytes
   nonl-proj :       4010. kBytes
   fftplans  :      24880. kBytes
   grid      :      66493. kBytes
   one-center:          1. kBytes
   wavefun   :       1719. kBytes

     INWAV:  cpu time      0.0001: real time      0.0002
 Broyden mixing: mesh for mixing (old mesh)
   NGX =113   NGY =113   NGZ =113
  (NGX  =480   NGY  =480   NGZ  =480)
  gives a total of ****** points

 initial charge density was supplied:
 charge density of overlapping atoms calculated
 number of electron      26.0000000 magnetization 
 keeping initial charge density in first step


--------------------------------------------------------------------------------------------------------


 Maximum index for augmentation-charges          319 (set IRDMAX)


--------------------------------------------------------------------------------------------------------


 First call to EWALD:  gamma=   0.081
 Maximum number of real-space cells 3x 3x 3
 Maximum number of reciprocal cells 3x 3x 3

    FEWALD:  cpu time      0.0031: real time      0.0031


--------------------------------------- Ionic step        1  -------------------------------------------




--------------------------------------- Iteration      1(   1)  ---------------------------------------


    POTLOK:  cpu time      1.6288: real time      1.6318
    SETDIJ:  cpu time      0.3213: real time      0.3221
    TRIAL :  cpu time      3.1024: real time      3.1050
    CORREC:  cpu time      0.0013: real time      0.0013
    --------------------------------------------
      LOOP:  cpu time      5.0638: real time      5.0705

 eigenvalue-minimisations  :    64
 total energy-change (2. order) : 0.2373364E+03  (-0.6485665E+03)
 number of electron      26.0000000 magnetization 
 augmentation part       26.0000000 magnetization 

 Free energy of the ion-electron system (eV)
  ---------------------------------------------------
  alpha Z        PSCENC =         0.19661355
  Ewald energy   TEWEN  =      1675.06761068
  -Hartree energ DENC   =     -2384.33129516
  -exchange      EXHF   =         0.00000000
  -V(xc)+E(xc)   XCENC  =        84.31288497
  PAW double counting   =       741.61718909     -734.88563835
  entropy T*S    EENTRO =        -0.00000000
  eigenvalues    EBANDS =      -165.13184381
  atomic energy  EATOM  =      1020.49086547
  ---------------------------------------------------
  free energy    TOTEN  =       237.33638643 eV

  energy without entropy =      237.33638643  energy(sigma->0) =      237.33638643


--------------------------------------------------------------------------------------------------------




--------------------------------------- Iteration      1(   2)  ---------------------------------------


    TRIAL :  cpu time      3.7311: real time      3.7329
    CORREC:  cpu time      0.0002: real time      0.0002
    --------------------------------------------
      LOOP:  cpu time      3.7459: real time      3.7606

 eigenvalue-minimisations  :    88
 total energy-change (2. order) :-0.1805915E+03  (-0.1786814E+03)
 number of electron      26.0000000 magnetization 
 augmentation part       26.0000000 magnetization 

 Free energy of the ion-electron system (eV)
  ---------------------------------------------------
  alpha Z        PSCENC =         0.19661355
  Ewald energy   TEWEN  =      1675.06761068
  -Hartree energ DENC   =     -2384.33129516
  -exchange      EXHF   =         0.00000000
  -V(xc)+E(xc)   XCENC  =        84.31288497
  PAW double counting   =       741.61718909     -734.88563835
  entropy T*S    EENTRO =        -0.00000000
  eigenvalues    EBANDS =      -345.72334626
  atomic energy  EATOM  =      1020.49086547
  ---------------------------------------------------
  free energy    TOTEN  =        56.74488398 eV

  energy without entropy =       56.74488398  energy(sigma->0) =       56.74488398


--------------------------------------------------------------------------------------------------------




--------------------------------------- Iteration      1(   3)  ---------------------------------------


    TRIAL :  cpu time      3.5050: real time      3.5064
    CORREC:  cpu time      0.0001: real time      0.0001
    --------------------------------------------
      LOOP:  cpu time      3.5206: real time      3.5368

 eigenvalue-minimisations  :    80
 total energy-change (2. order) :-0.1018005E+03  (-0.9983350E+02)
 number of electron      26.0000000 magnetization 
 augmentation part       26.0000000 magnetization 

 Free energy of the ion-electron system (eV)
  ---------------------------------------------------
  alpha Z        PSCENC =         0.19661355
  Ewald energy   TEWEN  =      1675.06761068
  -Hartree energ DENC   =     -2384.33129516
  -exchange      EXHF   =         0.00000000
  -V(xc)+E(xc)   XCENC  =        84.31288497
  PAW double counting   =       741.61718909     -734.88563835
  entropy T*S    EENTRO =        -0.00000000
  eigenvalues    EBANDS =      -447.52388661
  atomic energy  EATOM  =      1020.49086547
  ---------------------------------------------------
  free energy    TOTEN  =       -45.05565637 eV

  energy without entropy =      -45.05565637  energy(sigma->0) =      -45.05565637


--------------------------------------------------------------------------------------------------------




--------------------------------------- Iteration      1(   4)  ---------------------------------------


    TRIAL :  cpu time      3.0630: real time      3.0642
    CORREC:  cpu time      0.0002: real time      0.0002
    --------------------------------------------
      LOOP:  cpu time      3.0804: real time      3.0940

 eigenvalue-minimisations  :    64
 total energy-change (2. order) :-0.2880839E+02  (-0.2877405E+02)
 number of electron      26.0000000 magnetization 
 augmentation part       26.0000000 magnetization 

 Free energy of the ion-electron system (eV)
  ---------------------------------------------------
  alpha Z        PSCENC =         0.19661355
  Ewald energy   TEWEN  =      1675.06761068
  -Hartree energ DENC   =     -2384.33129516
  -exchange      EXHF   =         0.00000000
  -V(xc)+E(xc)   XCENC  =        84.31288497
  PAW double counting   =       741.61718909     -734.88563835
  entropy T*S    EENTRO =        -0.00000000
  eigenvalues    EBANDS =      -476.33227695
  atomic energy  EATOM  =      1020.49086547
  ---------------------------------------------------
  free energy    TOTEN  =       -73.86404671 eV

  energy without entropy =      -73.86404671  energy(sigma->0) =      -73.86404671


--------------------------------------------------------------------------------------------------------




--------------------------------------- Iteration      1(   5)  ---------------------------------------


    TRIAL :  cpu time      3.5068: real time      3.5082
    CORREC:  cpu time      0.0001: real time      0.0001
    CHARGE:  cpu time      0.5737: real time      0.5760
    --------------------------------------------
      LOOP:  cpu time      4.0921: real time      4.1150

 eigenvalue-minimisations  :    80
 total energy-change (2. order) :-0.1507127E+01  (-0.1497728E+01)
 number of electron      26.0000000 magnetization 
 augmentation part       -0.0729672 magnetization 

 Free energy of the ion-electron system (eV)
  ---------------------------------------------------
  alpha Z        PSCENC =         0.19661355
  Ewald energy   TEWEN  =      1675.06761068
  -Hartree energ DENC   =     -2384.33129516
  -exchange      EXHF   =         0.00000000
  -V(xc)+E(xc)   XCENC  =        84.31288497
  PAW double counting   =       741.61718909     -734.88563835
  entropy T*S    EENTRO =        -0.00000000
  eigenvalues    EBANDS =      -477.83940411
  atomic energy  EATOM  =      1020.49086547
  ---------------------------------------------------
  free energy    TOTEN  =       -75.37117386 eV

  energy without entropy =      -75.37117386  energy(sigma->0) =      -75.37117386


--------------------------------------------------------------------------------------------------------




--------------------------------------- Iteration      1(   6)  ---------------------------------------


    POTLOK:  cpu time      1.6014: real time      1.6018
    SETDIJ:  cpu time      0.3200: real time      0.3203
    TRIAL :  cpu time      2.5565: real time      2.5591
    CORREC:  cpu time      3.1234: real time      3.1253
    CHARGE:  cpu time      0.5386: real time      0.5392
    --------------------------------------------
      LOOP:  cpu time      8.1542: real time      8.1770

 eigenvalue-minimisations  :     0
 total energy-change (2. order) : 0.1608742E+02  (-0.3614068E+01)
 number of electron      26.0000000 magnetization 
 augmentation part       -0.0756076 magnetization 

 Free energy of the ion-electron system (eV)
  ---------------------------------------------------
  alpha Z        PSCENC =         0.19661355
  Ewald energy   TEWEN  =      1675.06761068
  -Hartree energ DENC   =     -2601.59686780
  -exchange      EXHF   =         0.00000000
  -V(xc)+E(xc)   XCENC  =        96.42630064
  PAW double counting   =      9778.00424703    -9772.40381800
  entropy T*S    EENTRO =        -0.00000000
  eigenvalues    EBANDS =      -255.46870793
  atomic energy  EATOM  =      1020.49086547
  ---------------------------------------------------
  free energy    TOTEN  =       -59.28375637 eV

  energy without entropy =      -59.28375637  energy(sigma->0) =      -59.28375637


--------------------------------------------------------------------------------------------------------




--------------------------------------- Iteration      1(   7)  ---------------------------------------


    POTLOK:  cpu time      1.5798: real time      1.5803
    SETDIJ:  cpu time      0.3087: real time      0.3089
    TRIAL :  cpu time      2.5341: real time      2.5352
    CORREC:  cpu time      3.0943: real time      3.0956
    CHARGE:  cpu time      0.5383: real time      0.5387
    --------------------------------------------
      LOOP:  cpu time      8.0880: real time      8.0917

 eigenvalue-minimisations  :     0
 total energy-change (2. order) :-0.3639332E+01  (-0.3932911E+00)
 number of electron      26.0000000 magnetization 
 augmentation part       -0.0827083 magnetization 

 Free energy of the ion-electron system (eV)
  ---------------------------------------------------
  alpha Z        PSCENC =         0.19661355
  Ewald energy   TEWEN  =      1675.06761068
  -Hartree energ DENC   =     -2508.86200877
  -exchange      EXHF   =         0.00000000
  -V(xc)+E(xc)   XCENC  =        92.20828222
  PAW double counting   =     12202.07117138   -12195.86496785
  entropy T*S    EENTRO =        -0.00000000
  eigenvalues    EBANDS =      -348.23065522
  atomic energy  EATOM  =      1020.49086547
  ---------------------------------------------------
  free energy    TOTEN  =       -62.92308854 eV

  energy without entropy =      -62.92308854  energy(sigma->0) =      -62.92308854


--------------------------------------------------------------------------------------------------------




--------------------------------------- Iteration      1(   8)  ---------------------------------------


    POTLOK:  cpu time      1.5826: real time      1.5833
    SETDIJ:  cpu time      0.3155: real time      0.3155
    TRIAL :  cpu time      2.5290: real time      2.5300
    CORREC:  cpu time      3.1003: real time      3.1022
    CHARGE:  cpu time      0.5409: real time      0.5410
    --------------------------------------------
      LOOP:  cpu time      8.0826: real time      8.1035

 eigenvalue-minimisations  :     0
 total energy-change (2. order) :-0.3958447E+00  (-0.1820553E+00)
 number of electron      26.0000000 magnetization 
 augmentation part       -0.0822525 magnetization 

 Free energy of the ion-electron system (eV)
  ---------------------------------------------------
  alpha Z        PSCENC =         0.19661355
  Ewald energy   TEWEN  =      1675.06761068
  -Hartree energ DENC   =     -2508.96444380
  -exchange      EXHF   =         0.00000000
  -V(xc)+E(xc)   XCENC  =        92.22655153
  PAW double counting   =     13374.80252258   -13368.54273720
  entropy T*S    EENTRO =        -0.00000000
  eigenvalues    EBANDS =      -348.59591606
  atomic energy  EATOM  =      1020.49086547
  ---------------------------------------------------
  free energy    TOTEN  =       -63.31893324 eV

  energy without entropy =      -63.31893324  energy(sigma->0) =      -63.31893324


--------------------------------------------------------------------------------------------------------




--------------------------------------- Iteration      1(   9)  ---------------------------------------


    POTLOK:  cpu time      1.5896: real time      1.5906
    SETDIJ:  cpu time      0.3166: real time      0.3166
    TRIAL :  cpu time      2.5414: real time      2.5429
    CORREC:  cpu time      3.1143: real time      3.1159
    CHARGE:  cpu time      0.5394: real time      0.5395
    --------------------------------------------
      LOOP:  cpu time      8.1162: real time      8.1381

 eigenvalue-minimisations  :     0
 total energy-change (2. order) :-0.1803630E+00  (-0.8004387E-01)
 number of electron      26.0000000 magnetization 
 augmentation part       -0.0815297 magnetization 

 Free energy of the ion-electron system (eV)
  ---------------------------------------------------
  alpha Z        PSCENC =         0.19661355
  Ewald energy   TEWEN  =      1675.06761068
  -Hartree energ DENC   =     -2505.03699101
  -exchange      EXHF   =         0.00000000
  -V(xc)+E(xc)   XCENC  =        92.03638031
  PAW double counting   =     14360.08532909   -14353.76254062
  entropy T*S    EENTRO =        -0.00000000
  eigenvalues    EBANDS =      -352.57656369
  atomic energy  EATOM  =      1020.49086547
  ---------------------------------------------------
  free energy    TOTEN  =       -63.49929623 eV

  energy without entropy =      -63.49929623  energy(sigma->0) =      -63.49929623


--------------------------------------------------------------------------------------------------------




--------------------------------------- Iteration      1(  10)  ---------------------------------------


    POTLOK:  cpu time      1.6356: real time      1.6366
    SETDIJ:  cpu time      0.2774: real time      0.2775
    TRIAL :  cpu time      2.5221: real time      2.5236
    CORREC:  cpu time      3.1258: real time      3.1273
    CHARGE:  cpu time      0.5383: real time      0.5384
    --------------------------------------------
      LOOP:  cpu time      8.1337: real time      8.1381

 eigenvalue-minimisations  :     0
 total energy-change (2. order) :-0.7922103E-01  (-0.2912388E-01)
 number of electron      26.0000000 magnetization 
 augmentation part       -0.0809647 magnetization 

 Free energy of the ion-electron system (eV)
  ---------------------------------------------------
  alpha Z        PSCENC =         0.19661355
  Ewald energy   TEWEN  =      1675.06761068
  -Hartree energ DENC   =     -2502.21427758
  -exchange      EXHF   =         0.00000000
  -V(xc)+E(xc)   XCENC  =        91.93726356
  PAW double counting   =     14595.79494951   -14589.45561222
  entropy T*S    EENTRO =        -0.00000000
  eigenvalues    EBANDS =      -355.39593023
  atomic energy  EATOM  =      1020.49086547
  ---------------------------------------------------
  free energy    TOTEN  =       -63.57851726 eV

  energy without entropy =      -63.57851726  energy(sigma->0) =      -63.57851726


--------------------------------------------------------------------------------------------------------




--------------------------------------- Iteration      1(  11)  ---------------------------------------


    POTLOK:  cpu time      1.5991: real time      1.5999
    SETDIJ:  cpu time      0.3181: real time      0.3181
    TRIAL :  cpu time      2.5271: real time      2.5286
    CORREC:  cpu time      3.1165: real time      3.1184
    CHARGE:  cpu time      0.5413: real time      0.5415
    --------------------------------------------
      LOOP:  cpu time      8.1153: real time      8.1435

 eigenvalue-minimisations  :     0
 total energy-change (2. order) :-0.2897430E-01  (-0.9083074E-02)
 number of electron      26.0000000 magnetization 
 augmentation part       -0.0804148 magnetization 

 Free energy of the ion-electron system (eV)
  ---------------------------------------------------
  alpha Z        PSCENC =         0.19661355
  Ewald energy   TEWEN  =      1675.06761068
  -Hartree energ DENC   =     -2502.24334228
  -exchange      EXHF   =         0.00000000
  -V(xc)+E(xc)   XCENC  =        91.97037006
  PAW double counting   =     14361.88301628   -14355.56136419
  entropy T*S    EENTRO =        -0.00000000
  eigenvalues    EBANDS =      -355.41126112
  atomic energy  EATOM  =      1020.49086547
  ---------------------------------------------------
  free energy    TOTEN  =       -63.60749156 eV

  energy without entropy =      -63.60749156  energy(sigma->0) =      -63.60749156


--------------------------------------------------------------------------------------------------------




--------------------------------------- Iteration      1(  12)  ---------------------------------------


    POTLOK:  cpu time      1.6080: real time      1.6085
    SETDIJ:  cpu time      0.3048: real time      0.3048
    TRIAL :  cpu time      2.5234: real time      2.5247
    CORREC:  cpu time      3.1155: real time      3.1169
    CHARGE:  cpu time      0.5382: real time      0.5387
    --------------------------------------------
      LOOP:  cpu time      8.1053: real time      8.1269

 eigenvalue-minimisations  :     0
 total energy-change (2. order) :-0.9063843E-02  (-0.2768363E-02)
 number of electron      26.0000000 magnetization 
 augmentation part       -0.0802641 magnetization 

 Free energy of the ion-electron system (eV)
  ---------------------------------------------------
  alpha Z        PSCENC =         0.19661355
  Ewald energy   TEWEN  =      1675.06761068
  -Hartree energ DENC   =     -2502.02803400
  -exchange      EXHF   =         0.00000000
  -V(xc)+E(xc)   XCENC  =        91.96817399
  PAW double counting   =     14135.47326819   -14129.16251536
  entropy T*S    EENTRO =        -0.00000000
  eigenvalues    EBANDS =      -355.62253791
  atomic energy  EATOM  =      1020.49086547
  ---------------------------------------------------
  free energy    TOTEN  =       -63.61655540 eV

  energy without entropy =      -63.61655540  energy(sigma->0) =      -63.61655540


--------------------------------------------------------------------------------------------------------




--------------------------------------- Iteration      1(  13)  ---------------------------------------


    POTLOK:  cpu time      1.6022: real time      1.6026
    SETDIJ:  cpu time      0.3131: real time      0.3132
    TRIAL :  cpu time      2.5274: real time      2.5286
    CORREC:  cpu time      3.1206: real time      3.1218
    CHARGE:  cpu time      0.5383: real time      0.5391
    --------------------------------------------
      LOOP:  cpu time      8.1181: real time      8.1374

 eigenvalue-minimisations  :     0
 total energy-change (2. order) :-0.2766877E-02  (-0.8814442E-03)
 number of electron      26.0000000 magnetization 
 augmentation part       -0.0802357 magnetization 

 Free energy of the ion-electron system (eV)
  ---------------------------------------------------
  alpha Z        PSCENC =         0.19661355
  Ewald energy   TEWEN  =      1675.06761068
  -Hartree energ DENC   =     -2501.70327734
  -exchange      EXHF   =         0.00000000
  -V(xc)+E(xc)   XCENC  =        91.95170979
  PAW double counting   =     14019.52979243   -14013.22242037
  entropy T*S    EENTRO =        -0.00000000
  eigenvalues    EBANDS =      -355.93021647
  atomic energy  EATOM  =      1020.49086547
  ---------------------------------------------------
  free energy    TOTEN  =       -63.61932228 eV

  energy without entropy =      -63.61932228  energy(sigma->0) =      -63.61932228


--------------------------------------------------------------------------------------------------------




--------------------------------------- Iteration      1(  14)  ---------------------------------------


    POTLOK:  cpu time      1.6049: real time      1.6053
    SETDIJ:  cpu time      0.3102: real time      0.3104
    TRIAL :  cpu time      2.5234: real time      2.5242
    CORREC:  cpu time      3.1157: real time      3.1170
    CHARGE:  cpu time      0.5381: real time      0.5387
    --------------------------------------------
      LOOP:  cpu time      8.1077: real time      8.1267

 eigenvalue-minimisations  :     0
 total energy-change (2. order) :-0.8815588E-03  (-0.3231722E-03)
 number of electron      26.0000000 magnetization 
 augmentation part       -0.0802316 magnetization 

 Free energy of the ion-electron system (eV)
  ---------------------------------------------------
  alpha Z        PSCENC =         0.19661355
  Ewald energy   TEWEN  =      1675.06761068
  -Hartree energ DENC   =     -2501.77680008
  -exchange      EXHF   =         0.00000000
  -V(xc)+E(xc)   XCENC  =        91.95239290
  PAW double counting   =     13975.22432467   -13968.91866767
  entropy T*S    EENTRO =        -0.00000000
  eigenvalues    EBANDS =      -355.85654336
  atomic energy  EATOM  =      1020.49086547
  ---------------------------------------------------
  free energy    TOTEN  =       -63.62020383 eV

  energy without entropy =      -63.62020383  energy(sigma->0) =      -63.62020383


--------------------------------------------------------------------------------------------------------




--------------------------------------- Iteration      1(  15)  ---------------------------------------


    POTLOK:  cpu time      1.6027: real time      1.6033
    SETDIJ:  cpu time      0.3170: real time      0.3170
    TRIAL :  cpu time      2.5232: real time      2.5244
    CORREC:  cpu time      3.1128: real time      3.1141
    CHARGE:  cpu time      0.5424: real time      0.5430
    --------------------------------------------
      LOOP:  cpu time      8.1135: real time      8.1322

 eigenvalue-minimisations  :     0
 total energy-change (2. order) :-0.3237195E-03  (-0.1293261E-03)
 number of electron      26.0000000 magnetization 
 augmentation part       -0.0802229 magnetization 

 Free energy of the ion-electron system (eV)
  ---------------------------------------------------
  alpha Z        PSCENC =         0.19661355
  Ewald energy   TEWEN  =      1675.06761068
  -Hartree energ DENC   =     -2501.87867191
  -exchange      EXHF   =         0.00000000
  -V(xc)+E(xc)   XCENC  =        91.95452834
  PAW double counting   =     13965.60382930   -13959.29813291
  entropy T*S    EENTRO =        -0.00000000
  eigenvalues    EBANDS =      -355.75717007
  atomic energy  EATOM  =      1020.49086547
  ---------------------------------------------------
  free energy    TOTEN  =       -63.62052755 eV

  energy without entropy =      -63.62052755  energy(sigma->0) =      -63.62052755


--------------------------------------------------------------------------------------------------------




--------------------------------------- Iteration      1(  16)  ---------------------------------------


    POTLOK:  cpu time      1.6020: real time      1.6030
    SETDIJ:  cpu time      0.3409: real time      0.3409
    TRIAL :  cpu time      2.5200: real time      2.5215
    CORREC:  cpu time      3.1135: real time      3.1152
    CHARGE:  cpu time      0.5395: real time      0.5396
    --------------------------------------------
      LOOP:  cpu time      8.1339: real time      8.1527

 eigenvalue-minimisations  :     0
 total energy-change (2. order) :-0.1297993E-03  (-0.4864863E-04)
 number of electron      26.0000000 magnetization 
 augmentation part       -0.0801833 magnetization 

 Free energy of the ion-electron system (eV)
  ---------------------------------------------------
  alpha Z        PSCENC =         0.19661355
  Ewald energy   TEWEN  =      1675.06761068
  -Hartree energ DENC   =     -2501.89548321
  -exchange      EXHF   =         0.00000000
  -V(xc)+E(xc)   XCENC  =        91.95397589
  PAW double counting   =     13966.16680298   -13959.86042322
  entropy T*S    EENTRO =        -0.00000000
  eigenvalues    EBANDS =      -355.74061949
  atomic energy  EATOM  =      1020.49086547
  ---------------------------------------------------
  free energy    TOTEN  =       -63.62065735 eV

  energy without entropy =      -63.62065735  energy(sigma->0) =      -63.62065735


--------------------------------------------------------------------------------------------------------




--------------------------------------- Iteration      1(  17)  ---------------------------------------


    POTLOK:  cpu time      1.6028: real time      1.6039
    SETDIJ:  cpu time      0.3114: real time      0.3114
    TRIAL :  cpu time      2.5396: real time      2.5413
    CORREC:  cpu time      3.1100: real time      3.1118
    CHARGE:  cpu time      0.5374: real time      0.5376
    --------------------------------------------
      LOOP:  cpu time      8.1163: real time      8.1362

 eigenvalue-minimisations  :     0
 total energy-change (2. order) :-0.4892008E-04  (-0.1647085E-04)
 number of electron      26.0000000 magnetization 
 augmentation part       -0.0801465 magnetization 

 Free energy of the ion-electron system (eV)
  ---------------------------------------------------
  alpha Z        PSCENC =         0.19661355
  Ewald energy   TEWEN  =      1675.06761068
  -Hartree energ DENC   =     -2501.93225674
  -exchange      EXHF   =         0.00000000
  -V(xc)+E(xc)   XCENC  =        91.95544510
  PAW double counting   =     13966.33755521   -13960.03107606
  entropy T*S    EENTRO =        -0.00000000
  eigenvalues    EBANDS =      -355.70546347
  atomic energy  EATOM  =      1020.49086547
  ---------------------------------------------------
  free energy    TOTEN  =       -63.62070627 eV

  energy without entropy =      -63.62070627  energy(sigma->0) =      -63.62070627


--------------------------------------------------------------------------------------------------------




--------------------------------------- Iteration      1(  18)  ---------------------------------------


    POTLOK:  cpu time      1.6025: real time      1.6033
    SETDIJ:  cpu time      0.3124: real time      0.3125
    TRIAL :  cpu time      2.5226: real time      2.5241
    CORREC:  cpu time      3.1129: real time      3.1143
    CHARGE:  cpu time      0.5415: real time      0.5417
    --------------------------------------------
      LOOP:  cpu time      8.1224: real time      8.1265

 eigenvalue-minimisations  :     0
 total energy-change (2. order) :-0.1663162E-04  (-0.5280851E-05)
 number of electron      26.0000000 magnetization 
 augmentation part       -0.0801268 magnetization 

 Free energy of the ion-electron system (eV)
  ---------------------------------------------------
  alpha Z        PSCENC =         0.19661355
  Ewald energy   TEWEN  =      1675.06761068
  -Hartree energ DENC   =     -2501.93924391
  -exchange      EXHF   =         0.00000000
  -V(xc)+E(xc)   XCENC  =        91.95588874
  PAW double counting   =     13967.10232984   -13960.79579933
  entropy T*S    EENTRO =        -0.00000000
  eigenvalues    EBANDS =      -355.69898794
  atomic energy  EATOM  =      1020.49086547
  ---------------------------------------------------
  free energy    TOTEN  =       -63.62072291 eV

  energy without entropy =      -63.62072291  energy(sigma->0) =      -63.62072291


--------------------------------------------------------------------------------------------------------




--------------------------------------- Iteration      1(  19)  ---------------------------------------


    POTLOK:  cpu time      1.6047: real time      1.6053
    SETDIJ:  cpu time      0.3064: real time      0.3064
    TRIAL :  cpu time      2.5242: real time      2.5265
    CORREC:  cpu time      3.1450: real time      3.1463
    CHARGE:  cpu time      0.5384: real time      0.5390
    --------------------------------------------
      LOOP:  cpu time      8.1348: real time      8.1548

 eigenvalue-minimisations  :     0
 total energy-change (2. order) :-0.5357386E-05  (-0.1905643E-05)
 number of electron      26.0000000 magnetization 
 augmentation part       -0.0801191 magnetization 

 Free energy of the ion-electron system (eV)
  ---------------------------------------------------
  alpha Z        PSCENC =         0.19661355
  Ewald energy   TEWEN  =      1675.06761068
  -Hartree energ DENC   =     -2501.93825943
  -exchange      EXHF   =         0.00000000
  -V(xc)+E(xc)   XCENC  =        91.95602545
  PAW double counting   =     13968.81169698   -13962.50516235
  entropy T*S    EENTRO =        -0.00000000
  eigenvalues    EBANDS =      -355.70011861
  atomic energy  EATOM  =      1020.49086547
  ---------------------------------------------------
  free energy    TOTEN  =       -63.62072826 eV

  energy without entropy =      -63.62072826  energy(sigma->0) =      -63.62072826


--------------------------------------------------------------------------------------------------------




--------------------------------------- Iteration      1(  20)  ---------------------------------------


    POTLOK:  cpu time      1.6046: real time      1.6051
    SETDIJ:  cpu time      0.3084: real time      0.3086
    TRIAL :  cpu time      2.5323: real time      2.5335
    CORREC:  cpu time      3.1149: real time      3.1163
    CHARGE:  cpu time      0.5371: real time      0.5376
    --------------------------------------------
      LOOP:  cpu time      8.1166: real time      8.1337

 eigenvalue-minimisations  :     0
 total energy-change (2. order) :-0.1934257E-05  (-0.7608365E-06)
 number of electron      26.0000000 magnetization 
 augmentation part       -0.0801186 magnetization 

 Free energy of the ion-electron system (eV)
  ---------------------------------------------------
  alpha Z        PSCENC =         0.19661355
  Ewald energy   TEWEN  =      1675.06761068
  -Hartree energ DENC   =     -2501.93999363
  -exchange      EXHF   =         0.00000000
  -V(xc)+E(xc)   XCENC  =        91.95622890
  PAW double counting   =     13970.88487074   -13964.57836825
  entropy T*S    EENTRO =        -0.00000000
  eigenvalues    EBANDS =      -355.69855766
  atomic energy  EATOM  =      1020.49086547
  ---------------------------------------------------
  free energy    TOTEN  =       -63.62073020 eV

  energy without entropy =      -63.62073020  energy(sigma->0) =      -63.62073020


--------------------------------------------------------------------------------------------------------




--------------------------------------- Iteration      1(  21)  ---------------------------------------


    POTLOK:  cpu time      1.6178: real time      1.6182
    SETDIJ:  cpu time      0.3119: real time      0.3122
    TRIAL :  cpu time      2.5233: real time      2.5243
    CORREC:  cpu time      3.1153: real time      3.1166
    CHARGE:  cpu time      0.5375: real time      0.5382
    --------------------------------------------
      LOOP:  cpu time      8.1367: real time      8.1406

 eigenvalue-minimisations  :     0
 total energy-change (2. order) :-0.7686249E-06  (-0.3120908E-06)
 number of electron      26.0000000 magnetization 
 augmentation part       -0.0801193 magnetization 

 Free energy of the ion-electron system (eV)
  ---------------------------------------------------
  alpha Z        PSCENC =         0.19661355
  Ewald energy   TEWEN  =      1675.06761068
  -Hartree energ DENC   =     -2501.93662633
  -exchange      EXHF   =         0.00000000
  -V(xc)+E(xc)   XCENC  =        91.95611803
  PAW double counting   =     13972.70387928   -13966.39736243
  entropy T*S    EENTRO =        -0.00000000
  eigenvalues    EBANDS =      -355.70182920
  atomic energy  EATOM  =      1020.49086547
  ---------------------------------------------------
  free energy    TOTEN  =       -63.62073097 eV

  energy without entropy =      -63.62073097  energy(sigma->0) =      -63.62073097


--------------------------------------------------------------------------------------------------------




--------------------------------------- Iteration      1(  22)  ---------------------------------------


    POTLOK:  cpu time      1.6337: real time      1.6345
    SETDIJ:  cpu time      0.2788: real time      0.2789
    TRIAL :  cpu time      2.5356: real time      2.5366
    CORREC:  cpu time      3.1179: real time      3.1192
    CHARGE:  cpu time      0.5378: real time      0.5383
    --------------------------------------------
      LOOP:  cpu time      8.1194: real time      8.1380

 eigenvalue-minimisations  :     0
 total energy-change (2. order) :-0.2970337E-06  (-0.1178179E-06)
 number of electron      26.0000000 magnetization 
 augmentation part       -0.0801197 magnetization 

 Free energy of the ion-electron system (eV)
  ---------------------------------------------------
  alpha Z        PSCENC =         0.19661355
  Ewald energy   TEWEN  =      1675.06761068
  -Hartree energ DENC   =     -2501.93681749
  -exchange      EXHF   =         0.00000000
  -V(xc)+E(xc)   XCENC  =        91.95614507
  PAW double counting   =     13973.68656056   -13967.38005366
  entropy T*S    EENTRO =        -0.00000000
  eigenvalues    EBANDS =      -355.70165544
  atomic energy  EATOM  =      1020.49086547
  ---------------------------------------------------
  free energy    TOTEN  =       -63.62073126 eV

  energy without entropy =      -63.62073126  energy(sigma->0) =      -63.62073126


--------------------------------------------------------------------------------------------------------




--------------------------------------- Iteration      1(  23)  ---------------------------------------


    POTLOK:  cpu time      1.6055: real time      1.6062
    SETDIJ:  cpu time      0.3080: real time      0.3081
    TRIAL :  cpu time      2.5213: real time      2.5224
    CORREC:  cpu time      3.1083: real time      3.1102
    CHARGE:  cpu time      0.5380: real time      0.5382
    --------------------------------------------
      LOOP:  cpu time      8.0968: real time      8.1191

 eigenvalue-minimisations  :     0
 total energy-change (2. order) :-0.1020126E-06  (-0.5656029E-07)
 number of electron      26.0000000 magnetization 
 augmentation part       -0.0801201 magnetization 

 Free energy of the ion-electron system (eV)
  ---------------------------------------------------
  alpha Z        PSCENC =         0.19661355
  Ewald energy   TEWEN  =      1675.06761068
  -Hartree energ DENC   =     -2501.93576155
  -exchange      EXHF   =         0.00000000
  -V(xc)+E(xc)   XCENC  =        91.95610181
  PAW double counting   =     13973.93265550   -13967.62615668
  entropy T*S    EENTRO =        -0.00000000
  eigenvalues    EBANDS =      -355.70266015
  atomic energy  EATOM  =      1020.49086547
  ---------------------------------------------------
  free energy    TOTEN  =       -63.62073136 eV

  energy without entropy =      -63.62073136  energy(sigma->0) =      -63.62073136


--------------------------------------------------------------------------------------------------------




--------------------------------------- Iteration      1(  24)  ---------------------------------------


    POTLOK:  cpu time      1.6027: real time      1.6036
    SETDIJ:  cpu time      0.3111: real time      0.3111
    TRIAL :  cpu time      2.5293: real time      2.5308
    CORREC:  cpu time      3.2012: real time      3.2030
    EDDIAG:  cpu time      0.6615: real time      0.6615
    CHARGE:  cpu time      0.5378: real time      0.5383
    --------------------------------------------
      LOOP:  cpu time      8.8575: real time      8.8793

 eigenvalue-minimisations  :     0
 total energy-change (2. order) :-0.3375681E-07  (-0.1915646E-07)
 number of electron      26.0000000 magnetization 
 augmentation part       -0.0801202 magnetization 

 Free energy of the ion-electron system (eV)
  ---------------------------------------------------
  alpha Z        PSCENC =         0.19661355
  Ewald energy   TEWEN  =      1675.06761068
  -Hartree energ DENC   =     -2501.93546254
  -exchange      EXHF   =         0.00000000
  -V(xc)+E(xc)   XCENC  =        91.95607203
  PAW double counting   =     13973.82045788   -13967.51396178
  entropy T*S    EENTRO =        -0.00000000
  eigenvalues    EBANDS =      -355.70292668
  atomic energy  EATOM  =      1020.49086547
  ---------------------------------------------------
  free energy    TOTEN  =       -63.62073140 eV

  energy without entropy =      -63.62073140  energy(sigma->0) =      -63.62073140


--------------------------------------------------------------------------------------------------------


  average scaling for gradient   1.2332


 average (electrostatic) potential at core
  the test charge radii are     0.5770  0.4325  0.5902
  (the norm of the test charge is              1.0000)
       1 -88.7445       2 -88.2580       3 -89.3327       4 -48.2672       5 -47.6748
       6 -47.4805       7 -50.4582       8-108.5515       9-106.6505



 E-fermi :  -6.2628     XC(G=0):  -0.1091     alpha+bet : -0.0573

 Fermi energy:        -6.2627738512

 k-point     1 :       0.0000    0.0000    0.0000
  band No.  band energies     occupation 
      1     -27.4489      2.00000
      2     -21.3511      2.00000
      3     -20.3202      2.00000
      4     -15.8144      2.00000
      5     -15.3546      2.00000
      6     -14.0114      2.00000
      7     -11.2915      2.00000
      8     -11.1769      2.00000
      9     -10.8611      2.00000
     10     -10.0552      2.00000
     11      -7.1864      2.00000
     12      -6.6194      2.00000
     13      -6.3602      2.00000
     14      -0.6030      0.00000
     15      -0.2008      0.00000
     16       0.1081      0.00000
     17       0.3025      0.00000
     18       0.5484      0.00000
     19       0.6022      0.00000
     20       0.7265      0.00000
     21       0.8030      0.00000
     22       0.9307      0.00000
     23       1.2562      0.00000
     24       1.4057      0.00000


--------------------------------------------------------------------------------------------------------


 soft charge-density along one line, spin component           1
         0         1         2         3         4         5         6         7         8         9
 total charge-density along one line

 pseudopotential strength for first ion, spin component:           1
 12.668  21.315  -0.000  -0.003   0.006  -0.001  -0.005   0.010
 21.315  35.864  -0.001  -0.005   0.009  -0.001  -0.008   0.017
 -0.000  -0.001  -3.252   0.003   0.001  -5.827   0.005   0.002
 -0.003  -0.005   0.003  -3.253  -0.000   0.005  -5.829  -0.001
  0.006   0.009   0.001  -0.000  -3.252   0.002  -0.001  -5.827
 -0.001  -0.001  -5.827   0.005   0.002 -10.419   0.008   0.003
 -0.005  -0.008   0.005  -5.829  -0.001   0.008 -10.421  -0.001
  0.010   0.017   0.002  -0.001  -5.827   0.003  -0.001 -10.420
 total augmentation occupancy for first ion, spin component:           1
  9.828  -3.698  -0.623  -0.995   1.009   0.290   0.476  -0.500
 -3.698   1.434   0.306   0.513  -0.552  -0.140  -0.239   0.262
 -0.623   0.306   6.215   1.857   0.807  -2.068  -0.747  -0.333
 -0.995   0.513   1.857   5.924  -1.173  -0.747  -1.965   0.515
  1.009  -0.552   0.807  -1.173   8.145  -0.333   0.516  -2.959
  0.290  -0.140  -2.068  -0.747  -0.333   0.701   0.291   0.132
  0.476  -0.239  -0.747  -1.965   0.516   0.291   0.667  -0.219
 -0.500   0.262  -0.333   0.515  -2.959   0.132  -0.219   1.094


------------------------ aborting loop because EDIFF is reached ----------------------------------------


    FORLOC:  cpu time      0.0394: real time      0.0394
    FORNL :  cpu time      0.0242: real time      0.0243
    FORCOR:  cpu time      1.6716: real time      1.6729
    OFIELD:  cpu time      0.0060: real time      0.0062

 VOLUME and BASIS-vectors are now :
 -----------------------------------------------------------------------------
  energy-cutoff  :     1000.00
  volume of cell :    10648.00
      direct lattice vectors                 reciprocal lattice vectors
    22.000000000  0.000000000  0.000000000     0.045454545  0.000000000  0.000000000
     0.000000000 22.000000000  0.000000000     0.000000000  0.045454545  0.000000000
     0.000000000  0.000000000 22.000000000     0.000000000  0.000000000  0.045454545

  length of vectors
    22.000000000 22.000000000 22.000000000     0.045454545  0.045454545  0.045454545


 FORCES acting on ions:
    Electron-Ion                     Ewald-Force                    Non-Local-Force
 -----------------------------------------------------------------------------------------------
   0.839E+02 -.136E+03 -.158E+03   -.870E+02 0.136E+03 0.159E+03   0.326E+01 0.915E-01 -.132E+01
   0.205E+03 0.316E+02 -.601E+02   -.205E+03 -.310E+02 0.607E+02   0.295E+00 -.587E+00 -.658E+00
   0.965E+02 0.171E+03 0.111E+03   -.104E+03 -.172E+03 -.109E+03   0.792E+01 0.182E+01 -.176E+01
   0.230E+02 0.629E+02 0.464E+02   -.245E+02 -.675E+02 -.498E+02   0.149E+01 0.471E+01 0.357E+01
   0.756E+02 0.129E+02 -.210E+02   -.811E+02 -.138E+02 0.225E+02   0.573E+01 0.983E+00 -.158E+01
   0.168E+02 -.557E+02 -.572E+02   -.178E+02 0.598E+02 0.613E+02   0.102E+01 -.425E+01 -.424E+01
   -.788E+02 0.273E+02 0.587E+02   0.847E+02 -.291E+02 -.629E+02   -.617E+01 0.188E+01 0.437E+01
   -.176E+03 0.930E+02 0.159E+03   0.175E+03 -.958E+02 -.161E+03   0.627E+00 0.295E+01 0.229E+01
   -.229E+03 -.187E+03 -.683E+02   0.260E+03 0.214E+03 0.794E+02   -.316E+02 -.278E+02 -.112E+02
 -----------------------------------------------------------------------------------------------
   0.174E+02 0.202E+02 0.105E+02   0.000E+00 0.000E+00 0.568E-13   -.174E+02 -.202E+02 -.105E+02


 POSITION                                       TOTAL-FORCE (eV/Angst)
 -----------------------------------------------------------------------------------
     11.01592     11.87822     11.66173         0.202767     -0.154706     -0.230601
     10.13162     10.89700     11.16415         0.188714      0.007666     -0.078645
     10.86960     10.20273     10.22385         0.183207      0.243287      0.141074
     10.62191      9.36726      9.58344         0.056655      0.155742      0.112318
      9.10345     10.71911     11.44618         0.202403      0.028619     -0.055508
     10.83243     12.63274     12.41656         0.052652     -0.142817     -0.150335
     12.89655     10.52869      9.63866        -0.257400      0.089099      0.195242
     12.10054     10.77938     10.20966        -0.179881      0.123786      0.183657
     12.21825     11.80899     11.08057        -0.449116     -0.350676     -0.117202
 -----------------------------------------------------------------------------------
    total drift:                               -0.000417      0.000493      0.000270


--------------------------------------------------------------------------------------------------------



  FREE ENERGIE OF THE ION-ELECTRON SYSTEM (eV)
  ---------------------------------------------------
  free  energy   TOTEN  =       -63.62073140 eV

  energy  without entropy=      -63.62073140  energy(sigma->0) =      -63.62073140



--------------------------------------------------------------------------------------------------------


    POTLOK:  cpu time      1.9188: real time      1.9199


--------------------------------------------------------------------------------------------------------


 stress matrix after NEB project (eV)
      0.00000      0.00000      0.00000
      0.00000      0.00000      0.00000
      0.00000      0.00000      0.00000
  FORCES: max atom, RMS     0.581734    0.322420
  FORCE total and by dimension    0.967260    0.449116
  Stress total and by dimension    0.000000    0.000000
     LOOP+:  cpu time    178.1693: real time    178.5876
    4ORBIT:  cpu time      0.0000: real time      0.0000

 total amount of memory used by VASP MPI-rank0   127103. kBytes
=======================================================================

   base      :      30000. kBytes
   nonl-proj :       4010. kBytes
   fftplans  :      24880. kBytes
   grid      :      66493. kBytes
   one-center:          1. kBytes
   wavefun   :       1719. kBytes

  
  
 General timing and accounting informations for this job:
 ========================================================
  
                  Total CPU time used (sec):      207.199
                            User time (sec):      189.217
                          System time (sec):       17.981
                         Elapsed time (sec):      214.968
  
                   Maximum memory used (kb):      340684.
                   Average memory used (kb):          N/A
  
                          Minor page faults:       431564
                          Major page faults:          614
                 Voluntary context switches:         7538
