 vasp.6.4.1 05Apr23 (build Jun  6 2023 14:46:38) gamma-only                      
 executed on        HPECrayEX_GCC date 2024.08.22  04:55:29
 running  512 mpi-ranks, with    1 threads/rank, on    4 nodes
 distrk:  each k-point on  256 cores,    2 groups
 distr:  one band on NCORE=  32 cores,    8 groups


--------------------------------------------------------------------------------------------------------


 INCAR:
   ALGO = Conjugate
   KPAR = 2
   NCORE = 32
   ISMEAR = 0
   SIGMA = 0.01
   PREC = Accurate
   EDIFF = 1E-7
   ENCUT = 1000
   ISIF = 0
   METAGGA = R2SCAN
   LASPH = .TRUE.
   SYMPREC = 1E-7
   LWAVE = .FALSE.
   LCHARG = .FALSE.
   LWAVE = .FALSE.
   LCHARG = .FALSE.

 POTCAR:    PAW_PBE C_h 06Feb2004                 
 POTCAR:    PAW_PBE H_h 06Feb2004                 
 POTCAR:    PAW_PBE N_h 06Feb2004                 
 POTCAR:    PAW_PBE C_h 06Feb2004                 
   VRHFIN =C: s2p2                                                                                  
   LEXCH  = PE                                                                                      
   EATOM  =   147.1560 eV,   10.8157 Ry                                                             
                                                                                                    
   TITEL  = PAW_PBE C_h 06Feb2004                                                                   
   LULTRA =        F    use ultrasoft PP ?                                                          
   IUNSCR =        1    unscreen: 0-lin 1-nonlin 2-no                                               
   RPACOR =    0.800    partial core radius                                                         
   POMASS =   12.011; ZVAL   =    4.000    mass and valenz                                          
   RCORE  =    1.100    outmost cutoff radius                                                       
   RWIGS  =    1.630; RWIGS  =    0.863    wigner-seitz radius (au A)                               
   ENMAX  =  700.000; ENMIN  =  500.000 eV                                                          
   ICORE  =        2    local potential                                                             
   LCOR   =        T    correct aug charges                                                         
   LPAW   =        T    paw PP                                                                      
   EAUG   =  946.768                                                                                
   DEXC   =    0.000                                                                                
   RMAX   =    1.128    core radius for proj-oper                                                   
   RAUG   =    1.300    factor for augmentation sphere                                              
   RDEP   =    1.162    radius for radial grids                                                     
   RDEPT  =    1.088    core radius for aug-charge                                                  
                                                                                                    
   Atomic configuration                                                                             
    4 entries                                                                                       
     n  l   j            E        occ.                                                              
     1  0  0.50      -273.3789   2.0000                                                             
     2  0  0.50       -13.7508   2.0000                                                             
     2  1  0.50        -5.2854   2.0000                                                             
     3  2  1.50        -5.4423   0.0000                                                             
   Description                                                                                      
     l       E           TYP  RCUT    TYP  RCUT                                                     
     0    -13.7508458     23  1.100                                                                 
     0     -8.2022199     23  1.100                                                                 
     1     -5.2854383     23  1.100                                                                 
     1      1.1560700     23  1.100                                                                 
     2     -5.4423304      7  1.100                                                                 
  local pseudopotential read in
  partial core-charges read in
  partial kinetic energy density read in
  atomic valenz-charges read in
  non local Contribution for L=           0  read in
    real space projection operators read in
  non local Contribution for L=           0  read in
    real space projection operators read in
  non local Contribution for L=           1  read in
    real space projection operators read in
  non local Contribution for L=           1  read in
    real space projection operators read in
    PAW grid and wavefunctions read in

   number of l-projection  operators is LMAX  =           4
   number of lm-projection operators is LMMAX =           8

 POTCAR:    PAW_PBE H_h 06Feb2004                 
   VRHFIN =H: ultrasoft test                                                                        
   LEXCH  = PE                                                                                      
   EATOM  =    12.4884 eV,    0.9179 Ry                                                             
                                                                                                    
   TITEL  = PAW_PBE H_h 06Feb2004                                                                   
   LULTRA =        F    use ultrasoft PP ?                                                          
   IUNSCR =        0    unscreen: 0-lin 1-nonlin 2-no                                               
   RPACOR =    0.000    partial core radius                                                         
   POMASS =    1.000; ZVAL   =    1.000    mass and valenz                                          
   RCORE  =    0.800    outmost cutoff radius                                                       
   RWIGS  =    0.700; RWIGS  =    0.370    wigner-seitz radius (au A)                               
   ENMAX  =  700.000; ENMIN  =  350.000 eV                                                          
   RCLOC  =    0.701    cutoff for local pot                                                        
   LCOR   =        T    correct aug charges                                                         
   LPAW   =        T    paw PP                                                                      
   EAUG   = 1000.000                                                                                
   RMAX   =    0.819    core radius for proj-oper                                                   
   RAUG   =    1.000    factor for augmentation sphere                                              
   RDEP   =    0.817    radius for radial grids                                                     
   RDEPT  =    0.817    core radius for aug-charge                                                  
                                                                                                    
   Atomic configuration                                                                             
    2 entries                                                                                       
     n  l   j            E        occ.                                                              
     1  0  0.50        -6.4927   1.0000                                                             
     2  1  0.50        -3.4015   0.0000                                                             
   Description                                                                                      
     l       E           TYP  RCUT    TYP  RCUT                                                     
     0     -6.4927493     23  0.800                                                                 
     0      6.8029130     23  0.800                                                                 
     1     -6.8029130     23  0.800                                                                 
  local pseudopotential read in
  atomic valenz-charges read in
  non local Contribution for L=           0  read in
    real space projection operators read in
  non local Contribution for L=           0  read in
    real space projection operators read in
  non local Contribution for L=           1  read in
    real space projection operators read in
    PAW grid and wavefunctions read in

   number of l-projection  operators is LMAX  =           3
   number of lm-projection operators is LMMAX =           5

 POTCAR:    PAW_PBE N_h 06Feb2004                 
   VRHFIN =N: s2p3                                                                                  
   LEXCH  = PE                                                                                      
   EATOM  =   264.5486 eV,   19.4438 Ry                                                             
                                                                                                    
   TITEL  = PAW_PBE N_h 06Feb2004                                                                   
   LULTRA =        F    use ultrasoft PP ?                                                          
   IUNSCR =        1    unscreen: 0-lin 1-nonlin 2-no                                               
   RPACOR =    0.800    partial core radius                                                         
   POMASS =   14.001; ZVAL   =    5.000    mass and valenz                                          
   RCORE  =    1.100    outmost cutoff radius                                                       
   RWIGS  =    1.480; RWIGS  =    0.783    wigner-seitz radius (au A)                               
   ENMAX  =  700.000; ENMIN  =  500.000 eV                                                          
   ICORE  =        2    local potential                                                             
   LCOR   =        T    correct aug charges                                                         
   LPAW   =        T    paw PP                                                                      
   EAUG   =  904.640                                                                                
   DEXC   =    0.000                                                                                
   RMAX   =    1.127    core radius for proj-oper                                                   
   RAUG   =    1.300    factor for augmentation sphere                                              
   RDEP   =    1.115    radius for radial grids                                                     
   RDEPT  =    1.106    core radius for aug-charge                                                  
                                                                                                    
   Atomic configuration                                                                             
    4 entries                                                                                       
     n  l   j            E        occ.                                                              
     1  0  0.50      -384.7179   2.0000                                                             
     2  0  0.50       -18.5828   2.0000                                                             
     2  1  0.50        -7.0898   3.0000                                                             
     3  2  1.50        -6.8029   0.0000                                                             
   Description                                                                                      
     l       E           TYP  RCUT    TYP  RCUT                                                     
     0    -18.5828117     23  1.100                                                                 
     0    -15.0750597     23  1.100                                                                 
     1     -7.0897851     23  1.100                                                                 
     1     -1.9663412     23  1.100                                                                 
     2     -6.8029130      7  1.100                                                                 
  local pseudopotential read in
  partial core-charges read in
  partial kinetic energy density read in
  kinetic energy density of atom read in
  atomic valenz-charges read in
  non local Contribution for L=           0  read in
    real space projection operators read in
  non local Contribution for L=           0  read in
    real space projection operators read in
  non local Contribution for L=           1  read in
    real space projection operators read in
  non local Contribution for L=           1  read in
    real space projection operators read in
    PAW grid and wavefunctions read in

   number of l-projection  operators is LMAX  =           4
   number of lm-projection operators is LMMAX =           8

  PAW_PBE C_h 06Feb2004                 :
 energy of atom  1       EATOM= -147.1560
 kinetic energy error for atom=    0.0031 (will be added to EATOM!!)
  PAW_PBE H_h 06Feb2004                 :
 energy of atom  2       EATOM=  -12.4884
 kinetic energy error for atom=    0.0006 (will be added to EATOM!!)
  PAW_PBE N_h 06Feb2004                 :
 energy of atom  3       EATOM= -264.5486
 kinetic energy error for atom=    0.0081 (will be added to EATOM!!)


 POSCAR:  C  H  N
  positions in cartesian coordinates
  No initial velocities read in

 METAGGA = R2SCAN                                      LMAXTAU =  6    LMIXTAU =  F

 exchange correlation table for  LEXCH =        8
   RHO(1)=    0.500       N(1)  =     2000
   RHO(2)=  100.500       N(2)  =     4000

 VTST: version 4.1, (05/19/21)

 CHAIN: initializing optimizer
 
 OPT: Using VASP Dynamics algorithm
 CHAIN: Read ICHAIN            0

 POSCAR:  C  H  N
  positions in cartesian coordinates
  No initial velocities read in



--------------------------------------------------------------------------------------------------------


 ion  position               nearest neighbor table
   1  0.501  0.540  0.530-   6 1.08   9 1.34   2 1.41
   2  0.461  0.495  0.507-   5 1.08   3 1.38   1 1.41
   3  0.494  0.464  0.465-   4 1.08   8 1.36   2 1.38
   4  0.483  0.426  0.436-   3 1.08
   5  0.414  0.487  0.520-   2 1.08
   6  0.492  0.574  0.564-   1 1.08
   7  0.586  0.479  0.438-   8 1.01
   8  0.550  0.490  0.464-   7 1.01   9 1.35   3 1.36
   9  0.555  0.537  0.504-   1 1.34   8 1.35

  LATTYP: Found a simple cubic cell.
 ALAT       =    22.0000000000
  
  Lattice vectors:
  
 A1 = (  22.0000000000,   0.0000000000,   0.0000000000)
 A2 = (   0.0000000000,  22.0000000000,   0.0000000000)
 A3 = (   0.0000000000,   0.0000000000,  22.0000000000)


Analysis of symmetry for initial positions (statically):
=====================================================================
 Subroutine PRICEL returns:
 Original cell was already a primitive cell.
 

 Routine SETGRP: Setting up the symmetry group for a 
 simple cubic supercell.


 Subroutine GETGRP returns: Found  1 space group operations
 (whereof  1 operations were pure point group operations)
 out of a pool of 48 trial point group operations.


The static configuration has the point symmetry C_1 .


Analysis of symmetry for dynamics (positions and initial velocities):
=====================================================================
 Subroutine PRICEL returns:
 Original cell was already a primitive cell.
 

 Routine SETGRP: Setting up the symmetry group for a 
 simple cubic supercell.


 Subroutine GETGRP returns: Found  1 space group operations
 (whereof  1 operations were pure point group operations)
 out of a pool of 48 trial point group operations.


The dynamic configuration has the point symmetry C_1 .


 Subroutine INISYM returns: Found  1 space group operations
 (whereof  1 operations are pure point group operations),
 and found     1 'primitive' translations


----------------------------------------------------------------------------------------

                                     Primitive cell                                     

  volume of cell :   10648.0000

  direct lattice vectors                    reciprocal lattice vectors
    22.000000000  0.000000000  0.000000000     0.045454545  0.000000000  0.000000000
     0.000000000 22.000000000  0.000000000     0.000000000  0.045454545  0.000000000
     0.000000000  0.000000000 22.000000000     0.000000000  0.000000000  0.045454545

  length of vectors
    22.000000000 22.000000000 22.000000000     0.045454545  0.045454545  0.045454545

  position of ions in fractional coordinates (direct lattice)
     0.500723409  0.539918864  0.530078409
     0.460527955  0.495318409  0.507461591
     0.494072955  0.463760227  0.464720227
     0.482814318  0.425784318  0.435610682
     0.413793409  0.487232500  0.520281136
     0.492382955  0.574215682  0.564389318
     0.586206591  0.478577045  0.438121136
     0.550024318  0.489972045  0.464075682
     0.555375227  0.536772045  0.503662500

  ion indices of the primitive-cell ions
   primitive index   ion index
                 1           1
                 2           2
                 3           3
                 4           4
                 5           5
                 6           6
                 7           7
                 8           8
                 9           9

----------------------------------------------------------------------------------------



 KPOINTS: auto                                    

Automatic generation of k-mesh.
 Grid dimensions read from file:
 generate k-points for:    1    1    1

 Generating k-lattice:

  Cartesian coordinates                     Fractional coordinates (reciprocal lattice)
     0.045454545  0.000000000  0.000000000     1.000000000  0.000000000  0.000000000
     0.000000000  0.045454545  0.000000000     0.000000000  1.000000000  0.000000000
     0.000000000  0.000000000  0.045454545     0.000000000  0.000000000  1.000000000

  Length of vectors
     0.045454545  0.045454545  0.045454545

  Shift w.r.t. Gamma in fractional coordinates (k-lattice)
     0.000000000  0.000000000  0.000000000

 
 Subroutine IBZKPT returns following result:
 ===========================================
 
 Found      1 irreducible k-points:
 
 Following reciprocal coordinates:
            Coordinates               Weight
  0.000000  0.000000  0.000000      1.000000
 
 Following cartesian coordinates:
            Coordinates               Weight
  0.000000  0.000000  0.000000      1.000000
 


--------------------------------------------------------------------------------------------------------




 Dimension of arrays:
   k-points           NKPTS =      1   k-points in BZ     NKDIM =      1   number of bands    NBANDS=     24
   number of dos      NEDOS =    301   number of ions     NIONS =      9
   non local maximal  LDIM  =      4   non local SUM 2l+1 LMDIM =      8
   total plane-waves  NPLWV = ******
   max r-space proj   IRMAX =      1   max aug-charges    IRDMAX=   9419
   dimension x,y,z NGX =   240 NGY =  240 NGZ =  240
   dimension x,y,z NGXF=   480 NGYF=  480 NGZF=  480
   support grid    NGXF=   480 NGYF=  480 NGZF=  480
   ions per type =               3   4   2
   NGX,Y,Z   is equivalent  to a cutoff of  18.14, 18.14, 18.14 a.u.
   NGXF,Y,Z  is equivalent  to a cutoff of  36.27, 36.27, 36.27 a.u.

 SYSTEM =  unknown system                          
 POSCAR =   C  H  N                                

 Startparameter for this run:
   NWRITE =      2    write-flag & timer
   PREC   = accura    normal or accurate (medium, high low for compatibility)
   ISTART =      0    job   : 0-new  1-cont  2-samecut
   ICHARG =      2    charge: 1-file 2-atom 10-const
   ISPIN  =      1    spin polarized calculation?
   LNONCOLLINEAR =      F non collinear calculations
   LSORBIT =      F    spin-orbit coupling
   INIWAV =      1    electr: 0-lowe 1-rand  2-diag
   LASPH  =      T    aspherical Exc in radial PAW
 Electronic Relaxation 1
   ENCUT  = 1000.0 eV  73.50 Ry    8.57 a.u.  56.73 56.73 56.73*2*pi/ulx,y,z
   ENINI  = 1000.0     initial cutoff
   ENAUG  = 1000.0 eV  augmentation charge cutoff
   NELM   =     60;   NELMIN=  2; NELMDL= -5     # of ELM steps 
   EDIFF  = 0.1E-06   stopping-criterion for ELM
   LREAL  =      F    real-space projection
   NLSPLINE    = F    spline interpolate recip. space projectors
   LCOMPAT=      F    compatible to vasp.4.4
   GGA_COMPAT  = T    GGA compatible to vasp.4.4-vasp.4.6
   LMAXPAW     = -100 max onsite density
   LMAXMIX     =    2 max onsite mixed and CHGCAR
   VOSKOWN=      0    Vosko Wilk Nusair interpolation
   ROPT   =    0.00000   0.00000   0.00000
 Ionic relaxation
   EDIFFG = 0.1E-05   stopping-criterion for IOM
   NSW    =      0    number of steps for IOM
   NBLOCK =      1;   KBLOCK =      1    inner block; outer block 
   IBRION =     -1    ionic relax: 0-MD 1-quasi-New 2-CG
   NFREE  =      0    steps in history (QN), initial steepest desc. (CG)
   ISIF   =      0    stress and relaxation
   IWAVPR =     10    prediction:  0-non 1-charg 2-wave 3-comb
   ISYM   =      2    0-nonsym 1-usesym 2-fastsym
   LCORR  =      T    Harris-Foulkes like correction to forces

   POTIM  = 0.5000    time-step for ionic-motion
   TEIN   =    0.0    initial temperature
   TEBEG  =    0.0;   TEEND  =   0.0 temperature during run
   SMASS  =  -3.00    Nose mass-parameter (am)
   estimated Nose-frequenzy (Omega)   =  0.10E-29 period in steps = 0.13E+47 mass=  -0.111E-25a.u.
   SCALEE = 1.0000    scale energy and forces
   NPACO  =    256;   APACO  = 10.0  distance and # of slots for P.C.
   PSTRESS=    0.0 pullay stress

  Mass of Ions in am
   POMASS =  12.01  1.00 14.00
  Ionic Valenz
   ZVAL   =   4.00  1.00  5.00
  Atomic Wigner-Seitz radii
   RWIGS  =  -1.00 -1.00 -1.00
  virtual crystal weights 
   VCA    =   1.00  1.00  1.00
   NELECT =      26.0000    total number of electrons
   NUPDOWN=      -1.0000    fix difference up-down

 DOS related values:
   EMIN   =  10.00;   EMAX   =-10.00  energy-range for DOS
   EFERMI =   0.00;   METHOD = LEGACY      
   ISMEAR =     0;   SIGMA  =   0.01  broadening in eV -4-tet -1-fermi 0-gaus

 Electronic relaxation 2 (details)
   IALGO  =     58    algorithm
   LDIAG  =      T    sub-space diagonalisation (order eigenvalues)
   LSUBROT=      F    optimize rotation matrix (better conditioning)
   TURBO    =      0    0=normal 1=particle mesh
   IRESTART =      0    0=no restart 2=restart with 2 vectors
   NREBOOT  =      0    no. of reboots
   NMIN     =      0    reboot dimension
   EREF     =   0.00    reference energy to select bands
   IMIX   =      4    mixing-type and parameters
     AMIX     =   0.40;   BMIX     =  1.00
     AMIX_MAG =   1.60;   BMIX_MAG =  1.00
     AMIN     =   0.10
     WC   =   100.;   INIMIX=   1;  MIXPRE=   1;  MAXMIX= -45

 Intra band minimization:
   WEIMIN = 0.0000     energy-eigenvalue tresh-hold
   EBREAK =  0.10E-08  absolut break condition
   DEPER  =   0.30     relativ break condition  

   TIME   =   0.40     timestep for ELM

  volume/ion in A,a.u.               =    1183.11      7984.03
  Fermi-wavevector in a.u.,A,eV,Ry     =   0.220450  0.416590  0.661218  0.048598
  Thomas-Fermi vector in A             =   1.001172

 Write flags
   LWAVE        =      F    write WAVECAR
   LDOWNSAMPLE  =      F    k-point downsampling of WAVECAR
   LCHARG       =      F    write CHGCAR
   LVTOT        =      F    write LOCPOT, total local potential
   LVHAR        =      F    write LOCPOT, Hartree potential only
   LELF         =      F    write electronic localiz. function (ELF)
   LORBIT       =      0    0 simple, 1 ext, 2 COOP (PROOUT), +10 PAW based schemes


 Dipole corrections
   LMONO  =      F    monopole corrections only (constant potential shift)
   LDIPOL =      F    correct potential (dipole corrections)
   IDIPOL =      0    1-x, 2-y, 3-z, 4-all directions 
   EPSILON=  1.0000000 bulk dielectric constant

 Exchange correlation treatment:
   GGA     =    --    GGA type
   LEXCH   =     8    internal setting for exchange type
   LIBXC   =     F    Libxc                    
   VOSKOWN =     0    Vosko Wilk Nusair interpolation
   LHFCALC =     F    Hartree Fock is set to
   LHFONE  =     F    Hartree Fock one center treatment
   AEXX    =    0.0000 exact exchange contribution

 Linear response parameters
   LEPSILON=     F    determine dielectric tensor
   LRPA    =     F    only Hartree local field effects (RPA)
   LNABLA  =     F    use nabla operator in PAW spheres
   LVEL    =     F    velocity operator in full k-point grid
   CSHIFT  =0.1000    complex shift for real part using Kramers Kronig
   OMEGAMAX=  -1.0    maximum frequency
   DEG_THRESHOLD= 0.2000000E-02 threshold for treating states as degnerate
   RTIME   =   -0.100 relaxation time in fs
  (WPLASMAI=    0.000 imaginary part of plasma frequency in eV, 0.658/RTIME)
   DFIELD  = 0.0000000 0.0000000 0.0000000 field for delta impulse in time

  Optional k-point grid parameters
   LKPOINTS_OPT  =     F    use optional k-point grid
   KPOINTS_OPT_MODE=     1    mode for optional k-point grid

 Orbital magnetization related:
   ORBITALMAG=     F  switch on orbital magnetization
   LCHIMAG   =     F  perturbation theory with respect to B field
   DQ        =  0.001000  dq finite difference perturbation B field
   LLRAUG    =     F  two centre corrections for induced B field
   LBONE     =     F  B-component reconstruction in AE one-centre
   LVGVCALC  =     T  calculate vGv susceptibility
   LVGVAPPL  =     F  apply vGv susceptibility instead of pGv for G=0

 Random number generation:
   RANDOM_GENERATOR = DEFAULT
   PCG_SEED         = not used


--------------------------------------------------------------------------------------------------------


 Static calculation
 charge density and potential will be updated during run
 non-spin polarized calculation
 Conjugate gradient for all bands (Freysoldt, et al. PRB 79, 241103 (2009))
 preconditioned conjugated gradient                                        
 perform sub-space diagonalisation
    before iterative eigenvector-optimisation
 modified Broyden-mixing scheme, WC =      100.0
 initial mixing is a Kerker type mixing with AMIX =  0.4000 and BMIX =      1.0000
 Hartree-type preconditioning will be used
 using additional bands           11
 reciprocal scheme for non local part
 use partial core corrections
 no Harris-corrections to forces 
 use gradient corrections 
 use of overlap-Matrix (Vanderbilt PP)
 Gauss-broadening in eV      SIGMA  =   0.01


--------------------------------------------------------------------------------------------------------


  energy-cutoff  :     1000.00
  volume of cell :    10648.00
      direct lattice vectors                 reciprocal lattice vectors
    22.000000000  0.000000000  0.000000000     0.045454545  0.000000000  0.000000000
     0.000000000 22.000000000  0.000000000     0.000000000  0.045454545  0.000000000
     0.000000000  0.000000000 22.000000000     0.000000000  0.000000000  0.045454545

  length of vectors
    22.000000000 22.000000000 22.000000000     0.045454545  0.045454545  0.045454545



 k-points in units of 2pi/SCALE and weight: auto                                    
   0.00000000  0.00000000  0.00000000       1.000

 k-points in reciprocal lattice and weights: auto                                    
   0.00000000  0.00000000  0.00000000       1.000

 position of ions in fractional coordinates (direct lattice) 
   0.50072341  0.53991886  0.53007841
   0.46052795  0.49531841  0.50746159
   0.49407295  0.46376023  0.46472023
   0.48281432  0.42578432  0.43561068
   0.41379341  0.48723250  0.52028114
   0.49238295  0.57421568  0.56438932
   0.58620659  0.47857705  0.43812114
   0.55002432  0.48997205  0.46407568
   0.55537523  0.53677205  0.50366250

 position of ions in cartesian coordinates  (Angst):
  11.01591500 11.87821500 11.66172500
  10.13161500 10.89700500 11.16415500
  10.86960500 10.20272500 10.22384500
  10.62191500  9.36725500  9.58343500
   9.10345500 10.71911500 11.44618500
  10.83242500 12.63274500 12.41656500
  12.89654500 10.52869500  9.63866500
  12.10053500 10.77938500 10.20966500
  12.21825500 11.80898500 11.08057500



--------------------------------------------------------------------------------------------------------


 use parallel FFT for orbitals z direction half grid
 k-point   1 :   0.0000 0.0000 0.0000  plane waves:  381993

 maximum and minimum number of plane-waves per node :     11948    11928

 maximum number of plane-waves:    381993
 maximum index in each direction: 
   IXMAX=   56   IYMAX=   56   IZMAX=   56
   IXMIN=  -56   IYMIN=  -56   IZMIN=    0


 parallel 3D FFT for wavefunctions:
    minimum data exchange during FFTs selected (reduces bandwidth)
 parallel 3D FFT for charge:
    minimum data exchange during FFTs selected (reduces bandwidth)


 total amount of memory used by VASP MPI-rank0   127103. kBytes
=======================================================================

   base      :      30000. kBytes
   nonl-proj :       4010. kBytes
   fftplans  :      24880. kBytes
   grid      :      66493. kBytes
   one-center:          1. kBytes
   wavefun   :       1719. kBytes

     INWAV:  cpu time      0.0001: real time      0.0003
 Broyden mixing: mesh for mixing (old mesh)
   NGX =113   NGY =113   NGZ =113
  (NGX  =480   NGY  =480   NGZ  =480)
  gives a total of ****** points

 initial charge density was supplied:
 charge density of overlapping atoms calculated
 number of electron      26.0000000 magnetization 
 keeping initial charge density in first step


--------------------------------------------------------------------------------------------------------


 Maximum index for augmentation-charges          319 (set IRDMAX)


--------------------------------------------------------------------------------------------------------


 First call to EWALD:  gamma=   0.081
 Maximum number of real-space cells 3x 3x 3
 Maximum number of reciprocal cells 3x 3x 3

    FEWALD:  cpu time      0.0050: real time      0.0050


--------------------------------------- Ionic step        1  -------------------------------------------




--------------------------------------- Iteration      1(   1)  ---------------------------------------


    POTLOK:  cpu time      1.4383: real time      1.4406
    SETDIJ:  cpu time      0.2847: real time      0.2852
    TRIAL :  cpu time      3.0930: real time      3.0956
    CORREC:  cpu time      0.0011: real time      0.0011
    --------------------------------------------
      LOOP:  cpu time      4.8263: real time      4.8317

 eigenvalue-minimisations  :    64
 total energy-change (2. order) : 0.2383519E+03  (-0.6480830E+03)
 number of electron      26.0000000 magnetization 
 augmentation part       26.0000000 magnetization 

 Free energy of the ion-electron system (eV)
  ---------------------------------------------------
  alpha Z        PSCENC =         0.19661355
  Ewald energy   TEWEN  =      1675.06761068
  -Hartree energ DENC   =     -2384.33129516
  -exchange      EXHF   =         0.00000000
  -V(xc)+E(xc)   XCENC  =        84.68512676
  PAW double counting   =       741.09506864     -734.40780990
  entropy T*S    EENTRO =        -0.00000000
  eigenvalues    EBANDS =      -164.44429578
  atomic energy  EATOM  =      1020.49086547
  ---------------------------------------------------
  free energy    TOTEN  =       238.35188425 eV

  energy without entropy =      238.35188425  energy(sigma->0) =      238.35188425


--------------------------------------------------------------------------------------------------------




--------------------------------------- Iteration      1(   2)  ---------------------------------------


    TRIAL :  cpu time      3.7387: real time      3.7410
    CORREC:  cpu time      0.0001: real time      0.0001
    --------------------------------------------
      LOOP:  cpu time      3.7556: real time      3.7709

 eigenvalue-minimisations  :    88
 total energy-change (2. order) :-0.1800749E+03  (-0.1781626E+03)
 number of electron      26.0000000 magnetization 
 augmentation part       26.0000000 magnetization 

 Free energy of the ion-electron system (eV)
  ---------------------------------------------------
  alpha Z        PSCENC =         0.19661355
  Ewald energy   TEWEN  =      1675.06761068
  -Hartree energ DENC   =     -2384.33129516
  -exchange      EXHF   =         0.00000000
  -V(xc)+E(xc)   XCENC  =        84.68512676
  PAW double counting   =       741.09506864     -734.40780990
  entropy T*S    EENTRO =        -0.00000000
  eigenvalues    EBANDS =      -344.51922447
  atomic energy  EATOM  =      1020.49086547
  ---------------------------------------------------
  free energy    TOTEN  =        58.27695556 eV

  energy without entropy =       58.27695556  energy(sigma->0) =       58.27695556


--------------------------------------------------------------------------------------------------------




--------------------------------------- Iteration      1(   3)  ---------------------------------------


    TRIAL :  cpu time      3.5151: real time      3.5169
    CORREC:  cpu time      0.0001: real time      0.0001
    --------------------------------------------
      LOOP:  cpu time      3.5280: real time      3.5505

 eigenvalue-minimisations  :    80
 total energy-change (2. order) :-0.1012666E+03  (-0.9922148E+02)
 number of electron      26.0000000 magnetization 
 augmentation part       26.0000000 magnetization 

 Free energy of the ion-electron system (eV)
  ---------------------------------------------------
  alpha Z        PSCENC =         0.19661355
  Ewald energy   TEWEN  =      1675.06761068
  -Hartree energ DENC   =     -2384.33129516
  -exchange      EXHF   =         0.00000000
  -V(xc)+E(xc)   XCENC  =        84.68512676
  PAW double counting   =       741.09506864     -734.40780990
  entropy T*S    EENTRO =        -0.00000000
  eigenvalues    EBANDS =      -445.78581890
  atomic energy  EATOM  =      1020.49086547
  ---------------------------------------------------
  free energy    TOTEN  =       -42.98963886 eV

  energy without entropy =      -42.98963886  energy(sigma->0) =      -42.98963886


--------------------------------------------------------------------------------------------------------




--------------------------------------- Iteration      1(   4)  ---------------------------------------


    TRIAL :  cpu time      3.0583: real time      3.0599
    CORREC:  cpu time      0.0002: real time      0.0002
    --------------------------------------------
      LOOP:  cpu time      3.0716: real time      3.0904

 eigenvalue-minimisations  :    64
 total energy-change (2. order) :-0.2874996E+02  (-0.2870948E+02)
 number of electron      26.0000000 magnetization 
 augmentation part       26.0000000 magnetization 

 Free energy of the ion-electron system (eV)
  ---------------------------------------------------
  alpha Z        PSCENC =         0.19661355
  Ewald energy   TEWEN  =      1675.06761068
  -Hartree energ DENC   =     -2384.33129516
  -exchange      EXHF   =         0.00000000
  -V(xc)+E(xc)   XCENC  =        84.68512676
  PAW double counting   =       741.09506864     -734.40780990
  entropy T*S    EENTRO =        -0.00000000
  eigenvalues    EBANDS =      -474.53578245
  atomic energy  EATOM  =      1020.49086547
  ---------------------------------------------------
  free energy    TOTEN  =       -71.73960241 eV

  energy without entropy =      -71.73960241  energy(sigma->0) =      -71.73960241


--------------------------------------------------------------------------------------------------------




--------------------------------------- Iteration      1(   5)  ---------------------------------------


    TRIAL :  cpu time      3.5084: real time      3.5104
    CORREC:  cpu time      0.0001: real time      0.0001
    CHARGE:  cpu time      0.5800: real time      0.5818
    --------------------------------------------
      LOOP:  cpu time      4.1029: real time      4.1238

 eigenvalue-minimisations  :    80
 total energy-change (2. order) :-0.1521324E+01  (-0.1510801E+01)
 number of electron      26.0000000 magnetization 
 augmentation part       -0.0749734 magnetization 

 Free energy of the ion-electron system (eV)
  ---------------------------------------------------
  alpha Z        PSCENC =         0.19661355
  Ewald energy   TEWEN  =      1675.06761068
  -Hartree energ DENC   =     -2384.33129516
  -exchange      EXHF   =         0.00000000
  -V(xc)+E(xc)   XCENC  =        84.68512676
  PAW double counting   =       741.09506864     -734.40780990
  entropy T*S    EENTRO =        -0.00000000
  eigenvalues    EBANDS =      -476.05710693
  atomic energy  EATOM  =      1020.49086547
  ---------------------------------------------------
  free energy    TOTEN  =       -73.26092690 eV

  energy without entropy =      -73.26092690  energy(sigma->0) =      -73.26092690


--------------------------------------------------------------------------------------------------------




--------------------------------------- Iteration      1(   6)  ---------------------------------------


    POTLOK:  cpu time      1.4203: real time      1.4206
    SETDIJ:  cpu time      0.2646: real time      0.2646
    TRIAL :  cpu time      2.5335: real time      2.5362
    CORREC:  cpu time      2.8894: real time      2.8917
    CHARGE:  cpu time      0.5418: real time      0.5420
    --------------------------------------------
      LOOP:  cpu time      7.6655: real time      7.6887

 eigenvalue-minimisations  :     0
 total energy-change (2. order) : 0.1578732E+02  (-0.3324841E+01)
 number of electron      26.0000000 magnetization 
 augmentation part       -0.0768942 magnetization 

 Free energy of the ion-electron system (eV)
  ---------------------------------------------------
  alpha Z        PSCENC =         0.19661355
  Ewald energy   TEWEN  =      1675.06761068
  -Hartree energ DENC   =     -2596.62200417
  -exchange      EXHF   =         0.00000000
  -V(xc)+E(xc)   XCENC  =        96.35754151
  PAW double counting   =     10311.44136173   -10305.32639577
  entropy T*S    EENTRO =        -0.00000000
  eigenvalues    EBANDS =      -259.07919867
  atomic energy  EATOM  =      1020.49086547
  ---------------------------------------------------
  free energy    TOTEN  =       -57.47360567 eV

  energy without entropy =      -57.47360567  energy(sigma->0) =      -57.47360567


--------------------------------------------------------------------------------------------------------




--------------------------------------- Iteration      1(   7)  ---------------------------------------


    POTLOK:  cpu time      1.4153: real time      1.4162
    SETDIJ:  cpu time      0.2719: real time      0.2719
    TRIAL :  cpu time      2.5180: real time      2.5189
    CORREC:  cpu time      2.8845: real time      2.8858
    CHARGE:  cpu time      0.5386: real time      0.5392
    --------------------------------------------
      LOOP:  cpu time      7.6593: real time      7.6635

 eigenvalue-minimisations  :     0
 total energy-change (2. order) :-0.3347393E+01  (-0.3461700E+00)
 number of electron      26.0000000 magnetization 
 augmentation part       -0.0832679 magnetization 

 Free energy of the ion-electron system (eV)
  ---------------------------------------------------
  alpha Z        PSCENC =         0.19661355
  Ewald energy   TEWEN  =      1675.06761068
  -Hartree energ DENC   =     -2507.55626820
  -exchange      EXHF   =         0.00000000
  -V(xc)+E(xc)   XCENC  =        92.40544437
  PAW double counting   =     12754.58978371   -12748.03199216
  entropy T*S    EENTRO =        -0.00000000
  eigenvalues    EBANDS =      -347.98305627
  atomic energy  EATOM  =      1020.49086547
  ---------------------------------------------------
  free energy    TOTEN  =       -60.82099886 eV

  energy without entropy =      -60.82099886  energy(sigma->0) =      -60.82099886


--------------------------------------------------------------------------------------------------------




--------------------------------------- Iteration      1(   8)  ---------------------------------------


    POTLOK:  cpu time      1.4184: real time      1.4188
    SETDIJ:  cpu time      0.2981: real time      0.2983
    TRIAL :  cpu time      2.5249: real time      2.5264
    CORREC:  cpu time      2.8880: real time      2.8894
    CHARGE:  cpu time      0.5396: real time      0.5401
    --------------------------------------------
      LOOP:  cpu time      7.6827: real time      7.7034

 eigenvalue-minimisations  :     0
 total energy-change (2. order) :-0.3481312E+00  (-0.1553488E+00)
 number of electron      26.0000000 magnetization 
 augmentation part       -0.0830406 magnetization 

 Free energy of the ion-electron system (eV)
  ---------------------------------------------------
  alpha Z        PSCENC =         0.19661355
  Ewald energy   TEWEN  =      1675.06761068
  -Hartree energ DENC   =     -2507.67926921
  -exchange      EXHF   =         0.00000000
  -V(xc)+E(xc)   XCENC  =        92.44789214
  PAW double counting   =     14023.83877950   -14017.26198801
  entropy T*S    EENTRO =        -0.00000000
  eigenvalues    EBANDS =      -348.26963417
  atomic energy  EATOM  =      1020.49086547
  ---------------------------------------------------
  free energy    TOTEN  =       -61.16913005 eV

  energy without entropy =      -61.16913005  energy(sigma->0) =      -61.16913005


--------------------------------------------------------------------------------------------------------




--------------------------------------- Iteration      1(   9)  ---------------------------------------


    POTLOK:  cpu time      1.4180: real time      1.4184
    SETDIJ:  cpu time      0.2705: real time      0.2705
    TRIAL :  cpu time      2.5201: real time      2.5215
    CORREC:  cpu time      2.8839: real time      2.8854
    CHARGE:  cpu time      0.5395: real time      0.5396
    --------------------------------------------
      LOOP:  cpu time      7.6475: real time      7.6670

 eigenvalue-minimisations  :     0
 total energy-change (2. order) :-0.1541483E+00  (-0.7038980E-01)
 number of electron      26.0000000 magnetization 
 augmentation part       -0.0825417 magnetization 

 Free energy of the ion-electron system (eV)
  ---------------------------------------------------
  alpha Z        PSCENC =         0.19661355
  Ewald energy   TEWEN  =      1675.06761068
  -Hartree energ DENC   =     -2504.41075288
  -exchange      EXHF   =         0.00000000
  -V(xc)+E(xc)   XCENC  =        92.29983517
  PAW double counting   =     15142.96423442   -15136.34212803
  entropy T*S    EENTRO =        -0.00000000
  eigenvalues    EBANDS =      -351.58955669
  atomic energy  EATOM  =      1020.49086547
  ---------------------------------------------------
  free energy    TOTEN  =       -61.32327831 eV

  energy without entropy =      -61.32327831  energy(sigma->0) =      -61.32327831


--------------------------------------------------------------------------------------------------------




--------------------------------------- Iteration      1(  10)  ---------------------------------------


    POTLOK:  cpu time      1.4175: real time      1.4183
    SETDIJ:  cpu time      0.2672: real time      0.2673
    TRIAL :  cpu time      2.5212: real time      2.5221
    CORREC:  cpu time      2.8864: real time      2.8877
    CHARGE:  cpu time      0.5384: real time      0.5389
    --------------------------------------------
      LOOP:  cpu time      7.6448: real time      7.6652

 eigenvalue-minimisations  :     0
 total energy-change (2. order) :-0.6968897E-01  (-0.2644202E-01)
 number of electron      26.0000000 magnetization 
 augmentation part       -0.0820736 magnetization 

 Free energy of the ion-electron system (eV)
  ---------------------------------------------------
  alpha Z        PSCENC =         0.19661355
  Ewald energy   TEWEN  =      1675.06761068
  -Hartree energ DENC   =     -2501.83307439
  -exchange      EXHF   =         0.00000000
  -V(xc)+E(xc)   XCENC  =        92.21391433
  PAW double counting   =     15510.66236871   -15504.02674377
  entropy T*S    EENTRO =        -0.00000000
  eigenvalues    EBANDS =      -354.16452186
  atomic energy  EATOM  =      1020.49086547
  ---------------------------------------------------
  free energy    TOTEN  =       -61.39296728 eV

  energy without entropy =      -61.39296728  energy(sigma->0) =      -61.39296728


--------------------------------------------------------------------------------------------------------




--------------------------------------- Iteration      1(  11)  ---------------------------------------


    POTLOK:  cpu time      1.4946: real time      1.4950
    SETDIJ:  cpu time      0.2094: real time      0.2096
    TRIAL :  cpu time      2.5213: real time      2.5223
    CORREC:  cpu time      2.8865: real time      2.8880
    CHARGE:  cpu time      0.5387: real time      0.5392
    --------------------------------------------
      LOOP:  cpu time      7.6657: real time      7.6867

 eigenvalue-minimisations  :     0
 total energy-change (2. order) :-0.2629843E-01  (-0.8140297E-02)
 number of electron      26.0000000 magnetization 
 augmentation part       -0.0815633 magnetization 

 Free energy of the ion-electron system (eV)
  ---------------------------------------------------
  alpha Z        PSCENC =         0.19661355
  Ewald energy   TEWEN  =      1675.06761068
  -Hartree energ DENC   =     -2501.82256008
  -exchange      EXHF   =         0.00000000
  -V(xc)+E(xc)   XCENC  =        92.24323667
  PAW double counting   =     15323.35242612   -15316.72979502
  entropy T*S    EENTRO =        -0.00000000
  eigenvalues    EBANDS =      -354.21766311
  atomic energy  EATOM  =      1020.49086547
  ---------------------------------------------------
  free energy    TOTEN  =       -61.41926572 eV

  energy without entropy =      -61.41926572  energy(sigma->0) =      -61.41926572


--------------------------------------------------------------------------------------------------------




--------------------------------------- Iteration      1(  12)  ---------------------------------------


    POTLOK:  cpu time      1.4181: real time      1.4186
    SETDIJ:  cpu time      0.2690: real time      0.2690
    TRIAL :  cpu time      2.5212: real time      2.5229
    CORREC:  cpu time      2.8894: real time      2.8906
    CHARGE:  cpu time      0.5403: real time      0.5405
    --------------------------------------------
      LOOP:  cpu time      7.6539: real time      7.6723

 eigenvalue-minimisations  :     0
 total energy-change (2. order) :-0.8123235E-02  (-0.2460241E-02)
 number of electron      26.0000000 magnetization 
 augmentation part       -0.0814108 magnetization 

 Free energy of the ion-electron system (eV)
  ---------------------------------------------------
  alpha Z        PSCENC =         0.19661355
  Ewald energy   TEWEN  =      1675.06761068
  -Hartree energ DENC   =     -2501.65458376
  -exchange      EXHF   =         0.00000000
  -V(xc)+E(xc)   XCENC  =        92.24069283
  PAW double counting   =     15087.30677657   -15080.69083285
  entropy T*S    EENTRO =        -0.00000000
  eigenvalues    EBANDS =      -354.38453144
  atomic energy  EATOM  =      1020.49086547
  ---------------------------------------------------
  free energy    TOTEN  =       -61.42738895 eV

  energy without entropy =      -61.42738895  energy(sigma->0) =      -61.42738895


--------------------------------------------------------------------------------------------------------




--------------------------------------- Iteration      1(  13)  ---------------------------------------


    POTLOK:  cpu time      1.4174: real time      1.4181
    SETDIJ:  cpu time      0.2815: real time      0.2816
    TRIAL :  cpu time      2.5244: real time      2.5253
    CORREC:  cpu time      2.8857: real time      2.8871
    CHARGE:  cpu time      0.5404: real time      0.5408
    --------------------------------------------
      LOOP:  cpu time      7.6631: real time      7.6838

 eigenvalue-minimisations  :     0
 total energy-change (2. order) :-0.2457866E-02  (-0.7864491E-03)
 number of electron      26.0000000 magnetization 
 augmentation part       -0.0813721 magnetization 

 Free energy of the ion-electron system (eV)
  ---------------------------------------------------
  alpha Z        PSCENC =         0.19661355
  Ewald energy   TEWEN  =      1675.06761068
  -Hartree energ DENC   =     -2501.36376677
  -exchange      EXHF   =         0.00000000
  -V(xc)+E(xc)   XCENC  =        92.22459719
  PAW double counting   =     14946.91015823   -14940.29610798
  entropy T*S    EENTRO =        -0.00000000
  eigenvalues    EBANDS =      -354.65981718
  atomic energy  EATOM  =      1020.49086547
  ---------------------------------------------------
  free energy    TOTEN  =       -61.42984682 eV

  energy without entropy =      -61.42984682  energy(sigma->0) =      -61.42984682


--------------------------------------------------------------------------------------------------------




--------------------------------------- Iteration      1(  14)  ---------------------------------------


    POTLOK:  cpu time      1.4260: real time      1.4264
    SETDIJ:  cpu time      0.2618: real time      0.2620
    TRIAL :  cpu time      2.5191: real time      2.5202
    CORREC:  cpu time      2.8889: real time      2.8906
    CHARGE:  cpu time      0.5405: real time      0.5410
    --------------------------------------------
      LOOP:  cpu time      7.6502: real time      7.6718

 eigenvalue-minimisations  :     0
 total energy-change (2. order) :-0.7861675E-03  (-0.2941346E-03)
 number of electron      26.0000000 magnetization 
 augmentation part       -0.0813689 magnetization 

 Free energy of the ion-electron system (eV)
  ---------------------------------------------------
  alpha Z        PSCENC =         0.19661355
  Ewald energy   TEWEN  =      1675.06761068
  -Hartree energ DENC   =     -2501.42895545
  -exchange      EXHF   =         0.00000000
  -V(xc)+E(xc)   XCENC  =        92.22463781
  PAW double counting   =     14882.35273697   -14875.74017091
  entropy T*S    EENTRO =        -0.00000000
  eigenvalues    EBANDS =      -354.59397111
  atomic energy  EATOM  =      1020.49086547
  ---------------------------------------------------
  free energy    TOTEN  =       -61.43063299 eV

  energy without entropy =      -61.43063299  energy(sigma->0) =      -61.43063299


--------------------------------------------------------------------------------------------------------




--------------------------------------- Iteration      1(  15)  ---------------------------------------


    POTLOK:  cpu time      1.4196: real time      1.4200
    SETDIJ:  cpu time      0.2692: real time      0.2692
    TRIAL :  cpu time      2.5218: real time      2.5232
    CORREC:  cpu time      2.9069: real time      2.9082
    CHARGE:  cpu time      0.5430: real time      0.5431
    --------------------------------------------
      LOOP:  cpu time      7.6760: real time      7.6946

 eigenvalue-minimisations  :     0
 total energy-change (2. order) :-0.2946617E-03  (-0.1196775E-03)
 number of electron      26.0000000 magnetization 
 augmentation part       -0.0813742 magnetization 

 Free energy of the ion-electron system (eV)
  ---------------------------------------------------
  alpha Z        PSCENC =         0.19661355
  Ewald energy   TEWEN  =      1675.06761068
  -Hartree energ DENC   =     -2501.51715075
  -exchange      EXHF   =         0.00000000
  -V(xc)+E(xc)   XCENC  =        92.22612610
  PAW double counting   =     14861.00221540   -14854.38957162
  entropy T*S    EENTRO =        -0.00000000
  eigenvalues    EBANDS =      -354.50763647
  atomic energy  EATOM  =      1020.49086547
  ---------------------------------------------------
  free energy    TOTEN  =       -61.43092765 eV

  energy without entropy =      -61.43092765  energy(sigma->0) =      -61.43092765


--------------------------------------------------------------------------------------------------------




--------------------------------------- Iteration      1(  16)  ---------------------------------------


    POTLOK:  cpu time      1.4166: real time      1.4175
    SETDIJ:  cpu time      0.2710: real time      0.2710
    TRIAL :  cpu time      2.5239: real time      2.5250
    CORREC:  cpu time      2.8851: real time      2.8861
    CHARGE:  cpu time      0.5388: real time      0.5393
    --------------------------------------------
      LOOP:  cpu time      7.6507: real time      7.6706

 eigenvalue-minimisations  :     0
 total energy-change (2. order) :-0.1201855E-03  (-0.4461331E-04)
 number of electron      26.0000000 magnetization 
 augmentation part       -0.0813495 magnetization 

 Free energy of the ion-electron system (eV)
  ---------------------------------------------------
  alpha Z        PSCENC =         0.19661355
  Ewald energy   TEWEN  =      1675.06761068
  -Hartree energ DENC   =     -2501.52516691
  -exchange      EXHF   =         0.00000000
  -V(xc)+E(xc)   XCENC  =        92.22527999
  PAW double counting   =     14857.59980021   -14850.98655303
  entropy T*S    EENTRO =        -0.00000000
  eigenvalues    EBANDS =      -354.49949778
  atomic energy  EATOM  =      1020.49086547
  ---------------------------------------------------
  free energy    TOTEN  =       -61.43104783 eV

  energy without entropy =      -61.43104783  energy(sigma->0) =      -61.43104783


--------------------------------------------------------------------------------------------------------




--------------------------------------- Iteration      1(  17)  ---------------------------------------


    POTLOK:  cpu time      1.4202: real time      1.4207
    SETDIJ:  cpu time      0.2692: real time      0.2695
    TRIAL :  cpu time      2.5216: real time      2.5228
    CORREC:  cpu time      2.8894: real time      2.8907
    CHARGE:  cpu time      0.5404: real time      0.5408
    --------------------------------------------
      LOOP:  cpu time      7.6559: real time      7.6766

 eigenvalue-minimisations  :     0
 total energy-change (2. order) :-0.4492543E-04  (-0.1500211E-04)
 number of electron      26.0000000 magnetization 
 augmentation part       -0.0813208 magnetization 

 Free energy of the ion-electron system (eV)
  ---------------------------------------------------
  alpha Z        PSCENC =         0.19661355
  Ewald energy   TEWEN  =      1675.06761068
  -Hartree energ DENC   =     -2501.55428664
  -exchange      EXHF   =         0.00000000
  -V(xc)+E(xc)   XCENC  =        92.22652758
  PAW double counting   =     14858.05114639   -14851.43788632
  entropy T*S    EENTRO =        -0.00000000
  eigenvalues    EBANDS =      -354.47168346
  atomic energy  EATOM  =      1020.49086547
  ---------------------------------------------------
  free energy    TOTEN  =       -61.43109276 eV

  energy without entropy =      -61.43109276  energy(sigma->0) =      -61.43109276


--------------------------------------------------------------------------------------------------------




--------------------------------------- Iteration      1(  18)  ---------------------------------------


    POTLOK:  cpu time      1.4354: real time      1.4358
    SETDIJ:  cpu time      0.2649: real time      0.2649
    TRIAL :  cpu time      2.5205: real time      2.5218
    CORREC:  cpu time      2.8861: real time      2.8876
    CHARGE:  cpu time      0.5405: real time      0.5407
    --------------------------------------------
      LOOP:  cpu time      7.6781: real time      7.6816

 eigenvalue-minimisations  :     0
 total energy-change (2. order) :-0.1518408E-04  (-0.4905469E-05)
 number of electron      26.0000000 magnetization 
 augmentation part       -0.0813025 magnetization 

 Free energy of the ion-electron system (eV)
  ---------------------------------------------------
  alpha Z        PSCENC =         0.19661355
  Ewald energy   TEWEN  =      1675.06761068
  -Hartree energ DENC   =     -2501.55818323
  -exchange      EXHF   =         0.00000000
  -V(xc)+E(xc)   XCENC  =        92.22686314
  PAW double counting   =     14860.10692722   -14853.49362177
  entropy T*S    EENTRO =        -0.00000000
  eigenvalues    EBANDS =      -354.46818300
  atomic energy  EATOM  =      1020.49086547
  ---------------------------------------------------
  free energy    TOTEN  =       -61.43110794 eV

  energy without entropy =      -61.43110794  energy(sigma->0) =      -61.43110794


--------------------------------------------------------------------------------------------------------




--------------------------------------- Iteration      1(  19)  ---------------------------------------


    POTLOK:  cpu time      1.4197: real time      1.4206
    SETDIJ:  cpu time      0.2663: real time      0.2663
    TRIAL :  cpu time      2.5195: real time      2.5209
    CORREC:  cpu time      2.8923: real time      2.8934
    CHARGE:  cpu time      0.5418: real time      0.5425
    --------------------------------------------
      LOOP:  cpu time      7.6557: real time      7.6792

 eigenvalue-minimisations  :     0
 total energy-change (2. order) :-0.4989752E-05  (-0.1832796E-05)
 number of electron      26.0000000 magnetization 
 augmentation part       -0.0812935 magnetization 

 Free energy of the ion-electron system (eV)
  ---------------------------------------------------
  alpha Z        PSCENC =         0.19661355
  Ewald energy   TEWEN  =      1675.06761068
  -Hartree energ DENC   =     -2501.55710438
  -exchange      EXHF   =         0.00000000
  -V(xc)+E(xc)   XCENC  =        92.22699727
  PAW double counting   =     14862.83601500   -14856.22270080
  entropy T*S    EENTRO =        -0.00000000
  eigenvalues    EBANDS =      -354.46940972
  atomic energy  EATOM  =      1020.49086547
  ---------------------------------------------------
  free energy    TOTEN  =       -61.43111293 eV

  energy without entropy =      -61.43111293  energy(sigma->0) =      -61.43111293


--------------------------------------------------------------------------------------------------------




--------------------------------------- Iteration      1(  20)  ---------------------------------------


    POTLOK:  cpu time      1.4179: real time      1.4183
    SETDIJ:  cpu time      0.2713: real time      0.2716
    TRIAL :  cpu time      2.5232: real time      2.5242
    CORREC:  cpu time      2.8849: real time      2.8865
    CHARGE:  cpu time      0.5395: real time      0.5400
    --------------------------------------------
      LOOP:  cpu time      7.6515: real time      7.6707

 eigenvalue-minimisations  :     0
 total energy-change (2. order) :-0.1868380E-05  (-0.7601254E-06)
 number of electron      26.0000000 magnetization 
 augmentation part       -0.0812916 magnetization 

 Free energy of the ion-electron system (eV)
  ---------------------------------------------------
  alpha Z        PSCENC =         0.19661355
  Ewald energy   TEWEN  =      1675.06761068
  -Hartree energ DENC   =     -2501.55902011
  -exchange      EXHF   =         0.00000000
  -V(xc)+E(xc)   XCENC  =        92.22722076
  PAW double counting   =     14865.59196831   -14858.97869592
  entropy T*S    EENTRO =        -0.00000000
  eigenvalues    EBANDS =      -354.46767753
  atomic energy  EATOM  =      1020.49086547
  ---------------------------------------------------
  free energy    TOTEN  =       -61.43111480 eV

  energy without entropy =      -61.43111480  energy(sigma->0) =      -61.43111480


--------------------------------------------------------------------------------------------------------




--------------------------------------- Iteration      1(  21)  ---------------------------------------


    POTLOK:  cpu time      1.4195: real time      1.4199
    SETDIJ:  cpu time      0.2673: real time      0.2673
    TRIAL :  cpu time      2.5215: real time      2.5231
    CORREC:  cpu time      2.8913: real time      2.8926
    CHARGE:  cpu time      0.5413: real time      0.5414
    --------------------------------------------
      LOOP:  cpu time      7.6584: real time      7.6756

 eigenvalue-minimisations  :     0
 total energy-change (2. order) :-0.7693143E-06  (-0.3183776E-06)
 number of electron      26.0000000 magnetization 
 augmentation part       -0.0812914 magnetization 

 Free energy of the ion-electron system (eV)
  ---------------------------------------------------
  alpha Z        PSCENC =         0.19661355
  Ewald energy   TEWEN  =      1675.06761068
  -Hartree energ DENC   =     -2501.55569875
  -exchange      EXHF   =         0.00000000
  -V(xc)+E(xc)   XCENC  =        92.22711357
  PAW double counting   =     14867.88878138   -14861.27549475
  entropy T*S    EENTRO =        -0.00000000
  eigenvalues    EBANDS =      -354.47090672
  atomic energy  EATOM  =      1020.49086547
  ---------------------------------------------------
  free energy    TOTEN  =       -61.43111557 eV

  energy without entropy =      -61.43111557  energy(sigma->0) =      -61.43111557


--------------------------------------------------------------------------------------------------------




--------------------------------------- Iteration      1(  22)  ---------------------------------------


    POTLOK:  cpu time      1.4214: real time      1.4226
    SETDIJ:  cpu time      0.2661: real time      0.2662
    TRIAL :  cpu time      2.5271: real time      2.5285
    CORREC:  cpu time      2.8884: real time      2.8898
    CHARGE:  cpu time      0.5402: real time      0.5407
    --------------------------------------------
      LOOP:  cpu time      7.6735: real time      7.6781

 eigenvalue-minimisations  :     0
 total energy-change (2. order) :-0.2999222E-06  (-0.1144145E-06)
 number of electron      26.0000000 magnetization 
 augmentation part       -0.0812916 magnetization 

 Free energy of the ion-electron system (eV)
  ---------------------------------------------------
  alpha Z        PSCENC =         0.19661355
  Ewald energy   TEWEN  =      1675.06761068
  -Hartree energ DENC   =     -2501.55642125
  -exchange      EXHF   =         0.00000000
  -V(xc)+E(xc)   XCENC  =        92.22715859
  PAW double counting   =     14869.14650547   -14862.53322590
  entropy T*S    EENTRO =        -0.00000000
  eigenvalues    EBANDS =      -354.47022247
  atomic energy  EATOM  =      1020.49086547
  ---------------------------------------------------
  free energy    TOTEN  =       -61.43111587 eV

  energy without entropy =      -61.43111587  energy(sigma->0) =      -61.43111587


--------------------------------------------------------------------------------------------------------




--------------------------------------- Iteration      1(  23)  ---------------------------------------


    POTLOK:  cpu time      1.4202: real time      1.4207
    SETDIJ:  cpu time      0.2685: real time      0.2687
    TRIAL :  cpu time      2.5408: real time      2.5417
    CORREC:  cpu time      2.8884: real time      2.8896
    CHARGE:  cpu time      0.5387: real time      0.5392
    --------------------------------------------
      LOOP:  cpu time      7.6728: real time      7.6912

 eigenvalue-minimisations  :     0
 total energy-change (2. order) :-0.1010158E-06  (-0.5940574E-07)
 number of electron      26.0000000 magnetization 
 augmentation part       -0.0812919 magnetization 

 Free energy of the ion-electron system (eV)
  ---------------------------------------------------
  alpha Z        PSCENC =         0.19661355
  Ewald energy   TEWEN  =      1675.06761068
  -Hartree energ DENC   =     -2501.55535187
  -exchange      EXHF   =         0.00000000
  -V(xc)+E(xc)   XCENC  =        92.22711344
  PAW double counting   =     14869.46656223   -14862.85329043
  entropy T*S    EENTRO =        -0.00000000
  eigenvalues    EBANDS =      -354.47123904
  atomic energy  EATOM  =      1020.49086547
  ---------------------------------------------------
  free energy    TOTEN  =       -61.43111597 eV

  energy without entropy =      -61.43111597  energy(sigma->0) =      -61.43111597


--------------------------------------------------------------------------------------------------------




--------------------------------------- Iteration      1(  24)  ---------------------------------------


    POTLOK:  cpu time      1.4185: real time      1.4189
    SETDIJ:  cpu time      0.2698: real time      0.2698
    TRIAL :  cpu time      2.5232: real time      2.5243
    CORREC:  cpu time      2.8949: real time      2.8963
    EDDIAG:  cpu time      0.6622: real time      0.6630
    CHARGE:  cpu time      0.5403: real time      0.5406
    --------------------------------------------
      LOOP:  cpu time      8.3241: real time      8.3443

 eigenvalue-minimisations  :     0
 total energy-change (2. order) :-0.3669447E-07  (-0.2340707E-07)
 number of electron      26.0000000 magnetization 
 augmentation part       -0.0812922 magnetization 

 Free energy of the ion-electron system (eV)
  ---------------------------------------------------
  alpha Z        PSCENC =         0.19661355
  Ewald energy   TEWEN  =      1675.06761068
  -Hartree energ DENC   =     -2501.55516245
  -exchange      EXHF   =         0.00000000
  -V(xc)+E(xc)   XCENC  =        92.22709179
  PAW double counting   =     14869.29838559   -14862.68511447
  entropy T*S    EENTRO =        -0.00000000
  eigenvalues    EBANDS =      -354.47140616
  atomic energy  EATOM  =      1020.49086547
  ---------------------------------------------------
  free energy    TOTEN  =       -61.43111601 eV

  energy without entropy =      -61.43111601  energy(sigma->0) =      -61.43111601


--------------------------------------------------------------------------------------------------------


  average scaling for gradient   1.1223


 average (electrostatic) potential at core
  the test charge radii are     0.5770  0.4325  0.5902
  (the norm of the test charge is              1.0000)
       1 -88.6451       2 -88.1605       3 -89.2351       4 -48.1673       5 -47.5412
       6 -47.4329       7 -50.3098       8-108.5685       9-106.6424



 E-fermi :  -6.2137     XC(G=0):  -0.0965     alpha+bet : -0.0573

 Fermi energy:        -6.2136506352

 k-point     1 :       0.0000    0.0000    0.0000
  band No.  band energies     occupation 
      1     -27.4154      2.00000
      2     -21.3149      2.00000
      3     -20.2886      2.00000
      4     -15.7739      2.00000
      5     -15.3052      2.00000
      6     -13.9677      2.00000
      7     -11.2376      2.00000
      8     -11.1228      2.00000
      9     -10.8138      2.00000
     10     -10.0066      2.00000
     11      -7.1390      2.00000
     12      -6.5548      2.00000
     13      -6.2951      2.00000
     14      -0.5142      0.00000
     15      -0.0702      0.00000
     16       0.1536      0.00000
     17       0.3467      0.00000
     18       0.3662      0.00000
     19       0.4878      0.00000
     20       0.6316      0.00000
     21       0.8542      0.00000
     22       1.1171      0.00000
     23       1.8918      0.00000
     24       2.2681      0.00000


--------------------------------------------------------------------------------------------------------


 soft charge-density along one line, spin component           1
         0         1         2         3         4         5         6         7         8         9
 total charge-density along one line

 pseudopotential strength for first ion, spin component:           1
 12.663  21.309   0.000  -0.003   0.007   0.001  -0.004   0.012
 21.309  35.856   0.001  -0.004   0.011   0.001  -0.007   0.020
  0.000   0.001  -3.244  -0.000   0.000  -5.811  -0.001   0.000
 -0.003  -0.004  -0.000  -3.244   0.000  -0.001  -5.811   0.001
  0.007   0.011   0.000   0.000  -3.245   0.000   0.001  -5.812
  0.001   0.001  -5.811  -0.001   0.000 -10.386  -0.001  -0.000
 -0.004  -0.007  -0.001  -5.811   0.001  -0.001 -10.386   0.002
  0.012   0.020   0.000   0.001  -5.812  -0.000   0.002 -10.388
 total augmentation occupancy for first ion, spin component:           1
 10.283  -3.916  -0.626  -1.007   1.032   0.293   0.484  -0.512
 -3.916   1.532   0.307   0.519  -0.564  -0.142  -0.243   0.269
 -0.626   0.307   6.423   1.883   0.819  -2.163  -0.762  -0.340
 -1.007   0.519   1.883   6.128  -1.191  -0.762  -2.058   0.526
  1.032  -0.564   0.819  -1.191   8.386  -0.339   0.526  -3.071
  0.293  -0.142  -2.163  -0.762  -0.339   0.740   0.299   0.136
  0.484  -0.243  -0.762  -2.058   0.526   0.299   0.706  -0.225
 -0.512   0.269  -0.340   0.526  -3.071   0.136  -0.225   1.143


------------------------ aborting loop because EDIFF is reached ----------------------------------------


    FORLOC:  cpu time      0.0351: real time      0.0351
    FORNL :  cpu time      0.0240: real time      0.0243
    FORCOR:  cpu time      1.4356: real time      1.4362
    OFIELD:  cpu time      0.0059: real time      0.0059

 VOLUME and BASIS-vectors are now :
 -----------------------------------------------------------------------------
  energy-cutoff  :     1000.00
  volume of cell :    10648.00
      direct lattice vectors                 reciprocal lattice vectors
    22.000000000  0.000000000  0.000000000     0.045454545  0.000000000  0.000000000
     0.000000000 22.000000000  0.000000000     0.000000000  0.045454545  0.000000000
     0.000000000  0.000000000 22.000000000     0.000000000  0.000000000  0.045454545

  length of vectors
    22.000000000 22.000000000 22.000000000     0.045454545  0.045454545  0.045454545


 FORCES acting on ions:
    Electron-Ion                     Ewald-Force                    Non-Local-Force
 -----------------------------------------------------------------------------------------------
   0.839E+02 -.136E+03 -.158E+03   -.870E+02 0.136E+03 0.159E+03   0.323E+01 0.150E+00 -.125E+01
   0.205E+03 0.316E+02 -.601E+02   -.205E+03 -.310E+02 0.607E+02   0.227E+00 -.607E+00 -.647E+00
   0.965E+02 0.171E+03 0.111E+03   -.104E+03 -.172E+03 -.109E+03   0.790E+01 0.174E+01 -.182E+01
   0.230E+02 0.629E+02 0.463E+02   -.245E+02 -.675E+02 -.498E+02   0.149E+01 0.471E+01 0.357E+01
   0.756E+02 0.129E+02 -.210E+02   -.811E+02 -.138E+02 0.225E+02   0.573E+01 0.982E+00 -.158E+01
   0.168E+02 -.557E+02 -.572E+02   -.178E+02 0.598E+02 0.613E+02   0.101E+01 -.425E+01 -.424E+01
   -.788E+02 0.273E+02 0.587E+02   0.847E+02 -.291E+02 -.629E+02   -.618E+01 0.188E+01 0.438E+01
   -.176E+03 0.930E+02 0.159E+03   0.175E+03 -.958E+02 -.161E+03   0.704E+00 0.291E+01 0.221E+01
   -.229E+03 -.187E+03 -.683E+02   0.260E+03 0.214E+03 0.794E+02   -.314E+02 -.276E+02 -.111E+02
 -----------------------------------------------------------------------------------------------
   0.173E+02 0.201E+02 0.105E+02   0.000E+00 0.000E+00 0.568E-13   -.173E+02 -.201E+02 -.105E+02


 POSITION                                       TOTAL-FORCE (eV/Angst)
 -----------------------------------------------------------------------------------
     11.01592     11.87822     11.66173         0.171474     -0.126791     -0.191790
     10.13162     10.89700     11.16415         0.138982     -0.001532     -0.065131
     10.86960     10.20273     10.22385         0.139524      0.195013      0.117226
     10.62191      9.36726      9.58344         0.049640      0.131041      0.093112
      9.10345     10.71911     11.44618         0.171451      0.023186     -0.047275
     10.83243     12.63274     12.41656         0.045377     -0.119661     -0.126639
     12.89655     10.52869      9.63866        -0.230579      0.080149      0.175404
     12.10054     10.77938     10.20966        -0.128359      0.102841      0.142782
     12.21825     11.80899     11.08057        -0.357510     -0.284245     -0.097688
 -----------------------------------------------------------------------------------
    total drift:                               -0.000135      0.000642      0.000376


--------------------------------------------------------------------------------------------------------



  FREE ENERGIE OF THE ION-ELECTRON SYSTEM (eV)
  ---------------------------------------------------
  free  energy   TOTEN  =       -61.43111601 eV

  energy  without entropy=      -61.43111601  energy(sigma->0) =      -61.43111601



--------------------------------------------------------------------------------------------------------


    POTLOK:  cpu time      1.7054: real time      1.7061


--------------------------------------------------------------------------------------------------------


 stress matrix after NEB project (eV)
      0.00000      0.00000      0.00000
      0.00000      0.00000      0.00000
      0.00000      0.00000      0.00000
  FORCES: max atom, RMS     0.467068    0.263713
  FORCE total and by dimension    0.791138    0.357510
  Stress total and by dimension    0.000000    0.000000
     LOOP+:  cpu time    168.7660: real time    169.1932
    4ORBIT:  cpu time      0.0000: real time      0.0000

 total amount of memory used by VASP MPI-rank0   127103. kBytes
=======================================================================

   base      :      30000. kBytes
   nonl-proj :       4010. kBytes
   fftplans  :      24880. kBytes
   grid      :      66493. kBytes
   one-center:          1. kBytes
   wavefun   :       1719. kBytes

  
  
 General timing and accounting informations for this job:
 ========================================================
  
                  Total CPU time used (sec):      201.073
                            User time (sec):      181.446
                          System time (sec):       19.627
                         Elapsed time (sec):      205.744
  
                   Maximum memory used (kb):      340944.
                   Average memory used (kb):          N/A
  
                          Minor page faults:       430953
                          Major page faults:          623
                 Voluntary context switches:         7702
