 vasp.6.4.1 05Apr23 (build Jun  6 2023 14:46:38) gamma-only                      
 executed on        HPECrayEX_GCC date 2024.08.22  03:33:49
 running  512 mpi-ranks, with    1 threads/rank, on    4 nodes
 distrk:  each k-point on  512 cores,    1 groups
 distr:  one band on NCORE=   2 cores,  256 groups


--------------------------------------------------------------------------------------------------------


 INCAR:
   ALGO = Conjugate
   NCORE = 2
   PREC = Accurate
   EDIFF = 1E-7
   ENCUT = 1000
   ISMEAR = 0
   SIGMA = 0.01
   ISIF = 0
   SYMPREC = 1E-7
   IVDW = 11
   LWAVE = .FALSE.
   LCHARG = .FALSE.
   LWAVE = .FALSE.
   LCHARG = .FALSE.

 POTCAR:    PAW_PBE C_h 06Feb2004                 
 POTCAR:    PAW_PBE H_h 06Feb2004                 
 POTCAR:    PAW_PBE N_h 06Feb2004                 
 POTCAR:    PAW_PBE C_h 06Feb2004                 
   VRHFIN =C: s2p2                                                                                  
   LEXCH  = PE                                                                                      
   EATOM  =   147.1560 eV,   10.8157 Ry                                                             
                                                                                                    
   TITEL  = PAW_PBE C_h 06Feb2004                                                                   
   LULTRA =        F    use ultrasoft PP ?                                                          
   IUNSCR =        1    unscreen: 0-lin 1-nonlin 2-no                                               
   RPACOR =    0.800    partial core radius                                                         
   POMASS =   12.011; ZVAL   =    4.000    mass and valenz                                          
   RCORE  =    1.100    outmost cutoff radius                                                       
   RWIGS  =    1.630; RWIGS  =    0.863    wigner-seitz radius (au A)                               
   ENMAX  =  700.000; ENMIN  =  500.000 eV                                                          
   ICORE  =        2    local potential                                                             
   LCOR   =        T    correct aug charges                                                         
   LPAW   =        T    paw PP                                                                      
   EAUG   =  946.768                                                                                
   DEXC   =    0.000                                                                                
   RMAX   =    1.128    core radius for proj-oper                                                   
   RAUG   =    1.300    factor for augmentation sphere                                              
   RDEP   =    1.162    radius for radial grids                                                     
   RDEPT  =    1.088    core radius for aug-charge                                                  
                                                                                                    
   Atomic configuration                                                                             
    4 entries                                                                                       
     n  l   j            E        occ.                                                              
     1  0  0.50      -273.3789   2.0000                                                             
     2  0  0.50       -13.7508   2.0000                                                             
     2  1  0.50        -5.2854   2.0000                                                             
     3  2  1.50        -5.4423   0.0000                                                             
   Description                                                                                      
     l       E           TYP  RCUT    TYP  RCUT                                                     
     0    -13.7508458     23  1.100                                                                 
     0     -8.2022199     23  1.100                                                                 
     1     -5.2854383     23  1.100                                                                 
     1      1.1560700     23  1.100                                                                 
     2     -5.4423304      7  1.100                                                                 
  local pseudopotential read in
  partial core-charges read in
  partial kinetic energy density read in
  atomic valenz-charges read in
  non local Contribution for L=           0  read in
    real space projection operators read in
  non local Contribution for L=           0  read in
    real space projection operators read in
  non local Contribution for L=           1  read in
    real space projection operators read in
  non local Contribution for L=           1  read in
    real space projection operators read in
    PAW grid and wavefunctions read in

   number of l-projection  operators is LMAX  =           4
   number of lm-projection operators is LMMAX =           8

 POTCAR:    PAW_PBE H_h 06Feb2004                 
   VRHFIN =H: ultrasoft test                                                                        
   LEXCH  = PE                                                                                      
   EATOM  =    12.4884 eV,    0.9179 Ry                                                             
                                                                                                    
   TITEL  = PAW_PBE H_h 06Feb2004                                                                   
   LULTRA =        F    use ultrasoft PP ?                                                          
   IUNSCR =        0    unscreen: 0-lin 1-nonlin 2-no                                               
   RPACOR =    0.000    partial core radius                                                         
   POMASS =    1.000; ZVAL   =    1.000    mass and valenz                                          
   RCORE  =    0.800    outmost cutoff radius                                                       
   RWIGS  =    0.700; RWIGS  =    0.370    wigner-seitz radius (au A)                               
   ENMAX  =  700.000; ENMIN  =  350.000 eV                                                          
   RCLOC  =    0.701    cutoff for local pot                                                        
   LCOR   =        T    correct aug charges                                                         
   LPAW   =        T    paw PP                                                                      
   EAUG   = 1000.000                                                                                
   RMAX   =    0.819    core radius for proj-oper                                                   
   RAUG   =    1.000    factor for augmentation sphere                                              
   RDEP   =    0.817    radius for radial grids                                                     
   RDEPT  =    0.817    core radius for aug-charge                                                  
                                                                                                    
   Atomic configuration                                                                             
    2 entries                                                                                       
     n  l   j            E        occ.                                                              
     1  0  0.50        -6.4927   1.0000                                                             
     2  1  0.50        -3.4015   0.0000                                                             
   Description                                                                                      
     l       E           TYP  RCUT    TYP  RCUT                                                     
     0     -6.4927493     23  0.800                                                                 
     0      6.8029130     23  0.800                                                                 
     1     -6.8029130     23  0.800                                                                 
  local pseudopotential read in
  atomic valenz-charges read in
  non local Contribution for L=           0  read in
    real space projection operators read in
  non local Contribution for L=           0  read in
    real space projection operators read in
  non local Contribution for L=           1  read in
    real space projection operators read in
    PAW grid and wavefunctions read in

   number of l-projection  operators is LMAX  =           3
   number of lm-projection operators is LMMAX =           5

 POTCAR:    PAW_PBE N_h 06Feb2004                 
   VRHFIN =N: s2p3                                                                                  
   LEXCH  = PE                                                                                      
   EATOM  =   264.5486 eV,   19.4438 Ry                                                             
                                                                                                    
   TITEL  = PAW_PBE N_h 06Feb2004                                                                   
   LULTRA =        F    use ultrasoft PP ?                                                          
   IUNSCR =        1    unscreen: 0-lin 1-nonlin 2-no                                               
   RPACOR =    0.800    partial core radius                                                         
   POMASS =   14.001; ZVAL   =    5.000    mass and valenz                                          
   RCORE  =    1.100    outmost cutoff radius                                                       
   RWIGS  =    1.480; RWIGS  =    0.783    wigner-seitz radius (au A)                               
   ENMAX  =  700.000; ENMIN  =  500.000 eV                                                          
   ICORE  =        2    local potential                                                             
   LCOR   =        T    correct aug charges                                                         
   LPAW   =        T    paw PP                                                                      
   EAUG   =  904.640                                                                                
   DEXC   =    0.000                                                                                
   RMAX   =    1.127    core radius for proj-oper                                                   
   RAUG   =    1.300    factor for augmentation sphere                                              
   RDEP   =    1.115    radius for radial grids                                                     
   RDEPT  =    1.106    core radius for aug-charge                                                  
                                                                                                    
   Atomic configuration                                                                             
    4 entries                                                                                       
     n  l   j            E        occ.                                                              
     1  0  0.50      -384.7179   2.0000                                                             
     2  0  0.50       -18.5828   2.0000                                                             
     2  1  0.50        -7.0898   3.0000                                                             
     3  2  1.50        -6.8029   0.0000                                                             
   Description                                                                                      
     l       E           TYP  RCUT    TYP  RCUT                                                     
     0    -18.5828117     23  1.100                                                                 
     0    -15.0750597     23  1.100                                                                 
     1     -7.0897851     23  1.100                                                                 
     1     -1.9663412     23  1.100                                                                 
     2     -6.8029130      7  1.100                                                                 
  local pseudopotential read in
  partial core-charges read in
  partial kinetic energy density read in
  kinetic energy density of atom read in
  atomic valenz-charges read in
  non local Contribution for L=           0  read in
    real space projection operators read in
  non local Contribution for L=           0  read in
    real space projection operators read in
  non local Contribution for L=           1  read in
    real space projection operators read in
  non local Contribution for L=           1  read in
    real space projection operators read in
    PAW grid and wavefunctions read in

   number of l-projection  operators is LMAX  =           4
   number of lm-projection operators is LMMAX =           8

  PAW_PBE C_h 06Feb2004                 :
 energy of atom  1       EATOM= -147.1560
 kinetic energy error for atom=    0.0031 (will be added to EATOM!!)
  PAW_PBE H_h 06Feb2004                 :
 energy of atom  2       EATOM=  -12.4884
 kinetic energy error for atom=    0.0006 (will be added to EATOM!!)
  PAW_PBE N_h 06Feb2004                 :
 energy of atom  3       EATOM= -264.5486
 kinetic energy error for atom=    0.0081 (will be added to EATOM!!)


 POSCAR:  C  H  N
  positions in cartesian coordinates
  No initial velocities read in
 exchange correlation table for  LEXCH =        8
   RHO(1)=    0.500       N(1)  =     2000
   RHO(2)=  100.500       N(2)  =     4000

 VTST: version 4.1, (05/19/21)

 CHAIN: initializing optimizer
 
 OPT: Using VASP Dynamics algorithm
 CHAIN: Read ICHAIN            0

 POSCAR:  C  H  N
  positions in cartesian coordinates
  No initial velocities read in



--------------------------------------------------------------------------------------------------------


 ion  position               nearest neighbor table
   1  0.501  0.540  0.530-   6 1.08   9 1.34   2 1.41
   2  0.461  0.495  0.507-   5 1.08   3 1.38   1 1.41
   3  0.494  0.464  0.465-   4 1.08   8 1.36   2 1.38
   4  0.483  0.426  0.436-   3 1.08
   5  0.414  0.487  0.520-   2 1.08
   6  0.492  0.574  0.564-   1 1.08
   7  0.586  0.479  0.438-   8 1.01
   8  0.550  0.490  0.464-   7 1.01   9 1.35   3 1.36
   9  0.555  0.537  0.504-   1 1.34   8 1.35

  LATTYP: Found a simple cubic cell.
 ALAT       =    22.0000000000
  
  Lattice vectors:
  
 A1 = (  22.0000000000,   0.0000000000,   0.0000000000)
 A2 = (   0.0000000000,  22.0000000000,   0.0000000000)
 A3 = (   0.0000000000,   0.0000000000,  22.0000000000)


Analysis of symmetry for initial positions (statically):
=====================================================================
 Subroutine PRICEL returns:
 Original cell was already a primitive cell.
 

 Routine SETGRP: Setting up the symmetry group for a 
 simple cubic supercell.


 Subroutine GETGRP returns: Found  1 space group operations
 (whereof  1 operations were pure point group operations)
 out of a pool of 48 trial point group operations.


The static configuration has the point symmetry C_1 .


Analysis of symmetry for dynamics (positions and initial velocities):
=====================================================================
 Subroutine PRICEL returns:
 Original cell was already a primitive cell.
 

 Routine SETGRP: Setting up the symmetry group for a 
 simple cubic supercell.


 Subroutine GETGRP returns: Found  1 space group operations
 (whereof  1 operations were pure point group operations)
 out of a pool of 48 trial point group operations.


The dynamic configuration has the point symmetry C_1 .


 Subroutine INISYM returns: Found  1 space group operations
 (whereof  1 operations are pure point group operations),
 and found     1 'primitive' translations


----------------------------------------------------------------------------------------

                                     Primitive cell                                     

  volume of cell :   10648.0000

  direct lattice vectors                    reciprocal lattice vectors
    22.000000000  0.000000000  0.000000000     0.045454545  0.000000000  0.000000000
     0.000000000 22.000000000  0.000000000     0.000000000  0.045454545  0.000000000
     0.000000000  0.000000000 22.000000000     0.000000000  0.000000000  0.045454545

  length of vectors
    22.000000000 22.000000000 22.000000000     0.045454545  0.045454545  0.045454545

  position of ions in fractional coordinates (direct lattice)
     0.500723409  0.539918864  0.530078409
     0.460527955  0.495318409  0.507461591
     0.494072955  0.463760227  0.464720227
     0.482814318  0.425784318  0.435610682
     0.413793409  0.487232500  0.520281136
     0.492382955  0.574215682  0.564389318
     0.586206591  0.478577045  0.438121136
     0.550024318  0.489972045  0.464075682
     0.555375227  0.536772045  0.503662500

  ion indices of the primitive-cell ions
   primitive index   ion index
                 1           1
                 2           2
                 3           3
                 4           4
                 5           5
                 6           6
                 7           7
                 8           8
                 9           9

----------------------------------------------------------------------------------------



 KPOINTS: auto                                    

Automatic generation of k-mesh.
 Grid dimensions read from file:
 generate k-points for:    1    1    1

 Generating k-lattice:

  Cartesian coordinates                     Fractional coordinates (reciprocal lattice)
     0.045454545  0.000000000  0.000000000     1.000000000  0.000000000  0.000000000
     0.000000000  0.045454545  0.000000000     0.000000000  1.000000000  0.000000000
     0.000000000  0.000000000  0.045454545     0.000000000  0.000000000  1.000000000

  Length of vectors
     0.045454545  0.045454545  0.045454545

  Shift w.r.t. Gamma in fractional coordinates (k-lattice)
     0.000000000  0.000000000  0.000000000

 
 Subroutine IBZKPT returns following result:
 ===========================================
 
 Found      1 irreducible k-points:
 
 Following reciprocal coordinates:
            Coordinates               Weight
  0.000000  0.000000  0.000000      1.000000
 
 Following cartesian coordinates:
            Coordinates               Weight
  0.000000  0.000000  0.000000      1.000000
 


--------------------------------------------------------------------------------------------------------




 Dimension of arrays:
   k-points           NKPTS =      1   k-points in BZ     NKDIM =      1   number of bands    NBANDS=    256
   number of dos      NEDOS =    301   number of ions     NIONS =      9
   non local maximal  LDIM  =      4   non local SUM 2l+1 LMDIM =      8
   total plane-waves  NPLWV = ******
   max r-space proj   IRMAX =      1   max aug-charges    IRDMAX=   9419
   dimension x,y,z NGX =   240 NGY =  240 NGZ =  240
   dimension x,y,z NGXF=   480 NGYF=  480 NGZF=  480
   support grid    NGXF=   480 NGYF=  480 NGZF=  480
   ions per type =               3   4   2
   NGX,Y,Z   is equivalent  to a cutoff of  18.14, 18.14, 18.14 a.u.
   NGXF,Y,Z  is equivalent  to a cutoff of  36.27, 36.27, 36.27 a.u.

 SYSTEM =  unknown system                          
 POSCAR =   C  H  N                                

 Startparameter for this run:
   NWRITE =      2    write-flag & timer
   PREC   = accura    normal or accurate (medium, high low for compatibility)
   ISTART =      0    job   : 0-new  1-cont  2-samecut
   ICHARG =      2    charge: 1-file 2-atom 10-const
   ISPIN  =      1    spin polarized calculation?
   LNONCOLLINEAR =      F non collinear calculations
   LSORBIT =      F    spin-orbit coupling
   INIWAV =      1    electr: 0-lowe 1-rand  2-diag
   LASPH  =      F    aspherical Exc in radial PAW
 Electronic Relaxation 1
   ENCUT  = 1000.0 eV  73.50 Ry    8.57 a.u.  56.73 56.73 56.73*2*pi/ulx,y,z
   ENINI  = 1000.0     initial cutoff
   ENAUG  = 1000.0 eV  augmentation charge cutoff
   NELM   =     60;   NELMIN=  2; NELMDL= -5     # of ELM steps 
   EDIFF  = 0.1E-06   stopping-criterion for ELM
   LREAL  =      F    real-space projection
   NLSPLINE    = F    spline interpolate recip. space projectors
   LCOMPAT=      F    compatible to vasp.4.4
   GGA_COMPAT  = T    GGA compatible to vasp.4.4-vasp.4.6
   LMAXPAW     = -100 max onsite density
   LMAXMIX     =    2 max onsite mixed and CHGCAR
   VOSKOWN=      0    Vosko Wilk Nusair interpolation
   ROPT   =    0.00000   0.00000   0.00000
 Ionic relaxation
   EDIFFG = 0.1E-05   stopping-criterion for IOM
   NSW    =      0    number of steps for IOM
   NBLOCK =      1;   KBLOCK =      1    inner block; outer block 
   IBRION =     -1    ionic relax: 0-MD 1-quasi-New 2-CG
   NFREE  =      0    steps in history (QN), initial steepest desc. (CG)
   ISIF   =      0    stress and relaxation
   IWAVPR =     10    prediction:  0-non 1-charg 2-wave 3-comb
   ISYM   =      2    0-nonsym 1-usesym 2-fastsym
   LCORR  =      T    Harris-Foulkes like correction to forces

   POTIM  = 0.5000    time-step for ionic-motion
   TEIN   =    0.0    initial temperature
   TEBEG  =    0.0;   TEEND  =   0.0 temperature during run
   SMASS  =  -3.00    Nose mass-parameter (am)
   estimated Nose-frequenzy (Omega)   =  0.10E-29 period in steps = 0.13E+47 mass=  -0.111E-25a.u.
   SCALEE = 1.0000    scale energy and forces
   NPACO  =    256;   APACO  = 10.0  distance and # of slots for P.C.
   PSTRESS=    0.0 pullay stress

  Mass of Ions in am
   POMASS =  12.01  1.00 14.00
  Ionic Valenz
   ZVAL   =   4.00  1.00  5.00
  Atomic Wigner-Seitz radii
   RWIGS  =  -1.00 -1.00 -1.00
  virtual crystal weights 
   VCA    =   1.00  1.00  1.00
   NELECT =      26.0000    total number of electrons
   NUPDOWN=      -1.0000    fix difference up-down

 DOS related values:
   EMIN   =  10.00;   EMAX   =-10.00  energy-range for DOS
   EFERMI =   0.00;   METHOD = LEGACY      
   ISMEAR =     0;   SIGMA  =   0.01  broadening in eV -4-tet -1-fermi 0-gaus

 Electronic relaxation 2 (details)
   IALGO  =     58    algorithm
   LDIAG  =      T    sub-space diagonalisation (order eigenvalues)
   LSUBROT=      F    optimize rotation matrix (better conditioning)
   TURBO    =      0    0=normal 1=particle mesh
   IRESTART =      0    0=no restart 2=restart with 2 vectors
   NREBOOT  =      0    no. of reboots
   NMIN     =      0    reboot dimension
   EREF     =   0.00    reference energy to select bands
   IMIX   =      4    mixing-type and parameters
     AMIX     =   0.40;   BMIX     =  1.00
     AMIX_MAG =   1.60;   BMIX_MAG =  1.00
     AMIN     =   0.10
     WC   =   100.;   INIMIX=   1;  MIXPRE=   1;  MAXMIX= -45

 Intra band minimization:
   WEIMIN = 0.0000     energy-eigenvalue tresh-hold
   EBREAK =  0.98E-10  absolut break condition
   DEPER  =   0.30     relativ break condition  

   TIME   =   0.40     timestep for ELM

  volume/ion in A,a.u.               =    1183.11      7984.03
  Fermi-wavevector in a.u.,A,eV,Ry     =   0.220450  0.416590  0.661218  0.048598
  Thomas-Fermi vector in A             =   1.001172

 Write flags
   LWAVE        =      F    write WAVECAR
   LDOWNSAMPLE  =      F    k-point downsampling of WAVECAR
   LCHARG       =      F    write CHGCAR
   LVTOT        =      F    write LOCPOT, total local potential
   LVHAR        =      F    write LOCPOT, Hartree potential only
   LELF         =      F    write electronic localiz. function (ELF)
   LORBIT       =      0    0 simple, 1 ext, 2 COOP (PROOUT), +10 PAW based schemes


 Dipole corrections
   LMONO  =      F    monopole corrections only (constant potential shift)
   LDIPOL =      F    correct potential (dipole corrections)
   IDIPOL =      0    1-x, 2-y, 3-z, 4-all directions 
   EPSILON=  1.0000000 bulk dielectric constant

 Exchange correlation treatment:
   GGA     =    --    GGA type
   LEXCH   =     8    internal setting for exchange type
   LIBXC   =     F    Libxc                    
   VOSKOWN =     0    Vosko Wilk Nusair interpolation
   LHFCALC =     F    Hartree Fock is set to
   LHFONE  =     F    Hartree Fock one center treatment
   AEXX    =    0.0000 exact exchange contribution

 Linear response parameters
   LEPSILON=     F    determine dielectric tensor
   LRPA    =     F    only Hartree local field effects (RPA)
   LNABLA  =     F    use nabla operator in PAW spheres
   LVEL    =     F    velocity operator in full k-point grid
   CSHIFT  =0.1000    complex shift for real part using Kramers Kronig
   OMEGAMAX=  -1.0    maximum frequency
   DEG_THRESHOLD= 0.2000000E-02 threshold for treating states as degnerate
   RTIME   =   -0.100 relaxation time in fs
  (WPLASMAI=    0.000 imaginary part of plasma frequency in eV, 0.658/RTIME)
   DFIELD  = 0.0000000 0.0000000 0.0000000 field for delta impulse in time

  Optional k-point grid parameters
   LKPOINTS_OPT  =     F    use optional k-point grid
   KPOINTS_OPT_MODE=     1    mode for optional k-point grid

 Orbital magnetization related:
   ORBITALMAG=     F  switch on orbital magnetization
   LCHIMAG   =     F  perturbation theory with respect to B field
   DQ        =  0.001000  dq finite difference perturbation B field
   LLRAUG    =     F  two centre corrections for induced B field
   LBONE     =     F  B-component reconstruction in AE one-centre
   LVGVCALC  =     T  calculate vGv susceptibility
   LVGVAPPL  =     F  apply vGv susceptibility instead of pGv for G=0

 Random number generation:
   RANDOM_GENERATOR = DEFAULT
   PCG_SEED         = not used


--------------------------------------------------------------------------------------------------------


 Static calculation
 charge density and potential will be updated during run
 non-spin polarized calculation
 Conjugate gradient for all bands (Freysoldt, et al. PRB 79, 241103 (2009))
 preconditioned conjugated gradient                                        
 perform sub-space diagonalisation
    before iterative eigenvector-optimisation
 modified Broyden-mixing scheme, WC =      100.0
 initial mixing is a Kerker type mixing with AMIX =  0.4000 and BMIX =      1.0000
 Hartree-type preconditioning will be used
 using additional bands          243
 reciprocal scheme for non local part
 use partial core corrections
 no Harris-corrections to forces 
 use gradient corrections 
 use of overlap-Matrix (Vanderbilt PP)
 Gauss-broadening in eV      SIGMA  =   0.01


--------------------------------------------------------------------------------------------------------


  energy-cutoff  :     1000.00
  volume of cell :    10648.00
      direct lattice vectors                 reciprocal lattice vectors
    22.000000000  0.000000000  0.000000000     0.045454545  0.000000000  0.000000000
     0.000000000 22.000000000  0.000000000     0.000000000  0.045454545  0.000000000
     0.000000000  0.000000000 22.000000000     0.000000000  0.000000000  0.045454545

  length of vectors
    22.000000000 22.000000000 22.000000000     0.045454545  0.045454545  0.045454545



 k-points in units of 2pi/SCALE and weight: auto                                    
   0.00000000  0.00000000  0.00000000       1.000

 k-points in reciprocal lattice and weights: auto                                    
   0.00000000  0.00000000  0.00000000       1.000

 position of ions in fractional coordinates (direct lattice) 
   0.50072341  0.53991886  0.53007841
   0.46052795  0.49531841  0.50746159
   0.49407295  0.46376023  0.46472023
   0.48281432  0.42578432  0.43561068
   0.41379341  0.48723250  0.52028114
   0.49238295  0.57421568  0.56438932
   0.58620659  0.47857705  0.43812114
   0.55002432  0.48997205  0.46407568
   0.55537523  0.53677205  0.50366250

 position of ions in cartesian coordinates  (Angst):
  11.01591500 11.87821500 11.66172500
  10.13161500 10.89700500 11.16415500
  10.86960500 10.20272500 10.22384500
  10.62191500  9.36725500  9.58343500
   9.10345500 10.71911500 11.44618500
  10.83242500 12.63274500 12.41656500
  12.89654500 10.52869500  9.63866500
  12.10053500 10.77938500 10.20966500
  12.21825500 11.80898500 11.08057500



--------------------------------------------------------------------------------------------------------


 use parallel FFT for orbitals z direction half grid
 k-point   1 :   0.0000 0.0000 0.0000  plane waves:  381993

 maximum and minimum number of plane-waves per node :    191003   190990

 maximum number of plane-waves:    381993
 maximum index in each direction: 
   IXMAX=   56   IYMAX=   56   IZMAX=   56
   IXMIN=  -56   IYMIN=  -56   IZMIN=    0


 parallel 3D FFT for wavefunctions:
    minimum data exchange during FFTs selected (reduces bandwidth)
 parallel 3D FFT for charge:
    minimum data exchange during FFTs selected (reduces bandwidth)


 total amount of memory used by VASP MPI-rank0   546952. kBytes
=======================================================================

   base      :      30000. kBytes
   nonl-proj :      64253. kBytes
   fftplans  :     151777. kBytes
   grid      :     291732. kBytes
   one-center:          7. kBytes
   wavefun   :       9183. kBytes

     INWAV:  cpu time      0.0002: real time      0.0002
 Broyden mixing: mesh for mixing (old mesh)
   NGX =113   NGY =113   NGZ =113
  (NGX  =480   NGY  =480   NGZ  =480)
  gives a total of ****** points

 initial charge density was supplied:
 charge density of overlapping atoms calculated
 number of electron      26.0000000 magnetization 
 keeping initial charge density in first step


--------------------------------------------------------------------------------------------------------


 Maximum index for augmentation-charges            0 (set IRDMAX)


--------------------------------------------------------------------------------------------------------


 First call to EWALD:  gamma=   0.081
 Maximum number of real-space cells 3x 3x 3
 Maximum number of reciprocal cells 3x 3x 3

    FEWALD:  cpu time      0.0038: real time      0.0038


--------------------------------------- Ionic step        1  -------------------------------------------




--------------------------------------- Iteration      1(   1)  ---------------------------------------


    POTLOK:  cpu time      0.8722: real time      0.8736
    SETDIJ:  cpu time      0.0093: real time      0.0096
    TRIAL :  cpu time      5.4574: real time      5.4621
    CORREC:  cpu time      0.0028: real time      0.0028
    --------------------------------------------
      LOOP:  cpu time      6.3520: real time      6.3585

 eigenvalue-minimisations  :   512
 total energy-change (2. order) : 0.2848626E+03  (-0.1076720E+04)
 number of electron      26.0000000 magnetization 
 augmentation part       26.0000000 magnetization 

 Free energy of the ion-electron system (eV)
  ---------------------------------------------------
  alpha Z        PSCENC =         0.19661355
  Ewald energy   TEWEN  =      1675.06761068
  -Hartree energ DENC   =     -2384.33129516
  -exchange      EXHF   =         0.00000000
  -V(xc)+E(xc)   XCENC  =        63.78285225
  PAW double counting   =       761.07819111     -742.68311964
  entropy T*S    EENTRO =        -0.00363266
  eigenvalues    EBANDS =      -108.73548185
  atomic energy  EATOM  =      1020.49086547
  ---------------------------------------------------
  free energy    TOTEN  =       284.86260374 eV

  energy without entropy =      284.86623640  energy(sigma->0) =      284.86442007


--------------------------------------------------------------------------------------------------------




--------------------------------------- Iteration      1(   2)  ---------------------------------------


    TRIAL :  cpu time     14.4068: real time     14.4156
    CORREC:  cpu time      0.0002: real time      0.0002
    --------------------------------------------
      LOOP:  cpu time     14.4246: real time     14.4476

 eigenvalue-minimisations  :  1024
 total energy-change (2. order) :-0.3424124E+03  (-0.3416483E+03)
 number of electron      26.0000000 magnetization 
 augmentation part       26.0000000 magnetization 

 Free energy of the ion-electron system (eV)
  ---------------------------------------------------
  alpha Z        PSCENC =         0.19661355
  Ewald energy   TEWEN  =      1675.06761068
  -Hartree energ DENC   =     -2384.33129516
  -exchange      EXHF   =         0.00000000
  -V(xc)+E(xc)   XCENC  =        63.78285225
  PAW double counting   =       761.07819111     -742.68311964
  entropy T*S    EENTRO =        -0.00000000
  eigenvalues    EBANDS =      -451.15155529
  atomic energy  EATOM  =      1020.49086547
  ---------------------------------------------------
  free energy    TOTEN  =       -57.54983704 eV

  energy without entropy =      -57.54983704  energy(sigma->0) =      -57.54983704


--------------------------------------------------------------------------------------------------------




--------------------------------------- Iteration      1(   3)  ---------------------------------------


    TRIAL :  cpu time      5.6186: real time      5.6217
    CORREC:  cpu time      0.0002: real time      0.0002
    --------------------------------------------
      LOOP:  cpu time      5.6320: real time      5.6599

 eigenvalue-minimisations  :   512
 total energy-change (2. order) :-0.5416129E+01  (-0.5416129E+01)
 number of electron      26.0000000 magnetization 
 augmentation part       26.0000000 magnetization 

 Free energy of the ion-electron system (eV)
  ---------------------------------------------------
  alpha Z        PSCENC =         0.19661355
  Ewald energy   TEWEN  =      1675.06761068
  -Hartree energ DENC   =     -2384.33129516
  -exchange      EXHF   =         0.00000000
  -V(xc)+E(xc)   XCENC  =        63.78285225
  PAW double counting   =       761.07819111     -742.68311964
  entropy T*S    EENTRO =        -0.00000000
  eigenvalues    EBANDS =      -456.56768451
  atomic energy  EATOM  =      1020.49086547
  ---------------------------------------------------
  free energy    TOTEN  =       -62.96596626 eV

  energy without entropy =      -62.96596626  energy(sigma->0) =      -62.96596626


--------------------------------------------------------------------------------------------------------




--------------------------------------- Iteration      1(   4)  ---------------------------------------


    TRIAL :  cpu time     14.2474: real time     14.2542
    CORREC:  cpu time      0.0002: real time      0.0002
    --------------------------------------------
      LOOP:  cpu time     14.2792: real time     14.2862

 eigenvalue-minimisations  :  1024
 total energy-change (2. order) :-0.4420400E-01  (-0.4420400E-01)
 number of electron      26.0000000 magnetization 
 augmentation part       26.0000000 magnetization 

 Free energy of the ion-electron system (eV)
  ---------------------------------------------------
  alpha Z        PSCENC =         0.19661355
  Ewald energy   TEWEN  =      1675.06761068
  -Hartree energ DENC   =     -2384.33129516
  -exchange      EXHF   =         0.00000000
  -V(xc)+E(xc)   XCENC  =        63.78285225
  PAW double counting   =       761.07819111     -742.68311964
  entropy T*S    EENTRO =        -0.00000000
  eigenvalues    EBANDS =      -456.61188851
  atomic energy  EATOM  =      1020.49086547
  ---------------------------------------------------
  free energy    TOTEN  =       -63.01017026 eV

  energy without entropy =      -63.01017026  energy(sigma->0) =      -63.01017026


--------------------------------------------------------------------------------------------------------




--------------------------------------- Iteration      1(   5)  ---------------------------------------


    TRIAL :  cpu time      5.5974: real time      5.5997
    CORREC:  cpu time      0.0002: real time      0.0002
    CHARGE:  cpu time      1.4127: real time      1.4155
    --------------------------------------------
      LOOP:  cpu time      7.0286: real time      7.0475

 eigenvalue-minimisations  :   512
 total energy-change (2. order) :-0.1495505E-05  (-0.1496862E-05)
 number of electron      26.0000000 magnetization 
 augmentation part       -0.0501818 magnetization 

 Free energy of the ion-electron system (eV)
  ---------------------------------------------------
  alpha Z        PSCENC =         0.19661355
  Ewald energy   TEWEN  =      1675.06761068
  -Hartree energ DENC   =     -2384.33129516
  -exchange      EXHF   =         0.00000000
  -V(xc)+E(xc)   XCENC  =        63.78285225
  PAW double counting   =       761.07819111     -742.68311964
  entropy T*S    EENTRO =        -0.00000000
  eigenvalues    EBANDS =      -456.61189001
  atomic energy  EATOM  =      1020.49086547
  ---------------------------------------------------
  free energy    TOTEN  =       -63.01017176 eV

  energy without entropy =      -63.01017176  energy(sigma->0) =      -63.01017176


--------------------------------------------------------------------------------------------------------




--------------------------------------- Iteration      1(   6)  ---------------------------------------


    POTLOK:  cpu time      0.4623: real time      0.4630
    SETDIJ:  cpu time      0.0017: real time      0.0017
    TRIAL :  cpu time      2.7034: real time      2.7068
    CORREC:  cpu time      2.5524: real time      2.5545
    CHARGE:  cpu time      1.3817: real time      1.3823
    --------------------------------------------
      LOOP:  cpu time      7.1153: real time      7.1410

 eigenvalue-minimisations  :     0
 total energy-change (2. order) : 0.1034607E+02  (-0.3834978E+01)
 number of electron      26.0000000 magnetization 
 augmentation part       -0.0600223 magnetization 

 Free energy of the ion-electron system (eV)
  ---------------------------------------------------
  alpha Z        PSCENC =         0.19661355
  Ewald energy   TEWEN  =      1675.06761068
  -Hartree energ DENC   =     -2607.24373041
  -exchange      EXHF   =         0.00000000
  -V(xc)+E(xc)   XCENC  =        72.49475710
  PAW double counting   =      8436.40203745    -8419.05480106
  entropy T*S    EENTRO =        -0.00000000
  eigenvalues    EBANDS =      -231.01745311
  atomic energy  EATOM  =      1020.49086547
  ---------------------------------------------------
  free energy    TOTEN  =       -52.66410034 eV

  energy without entropy =      -52.66410034  energy(sigma->0) =      -52.66410034


--------------------------------------------------------------------------------------------------------




--------------------------------------- Iteration      1(   7)  ---------------------------------------


    POTLOK:  cpu time      0.4456: real time      0.4459
    SETDIJ:  cpu time      0.0016: real time      0.0016
    TRIAL :  cpu time      2.5970: real time      2.5981
    CORREC:  cpu time      2.5406: real time      2.5421
    CHARGE:  cpu time      1.3904: real time      1.3908
    --------------------------------------------
      LOOP:  cpu time      7.0060: real time      7.0095

 eigenvalue-minimisations  :     0
 total energy-change (2. order) :-0.3839551E+01  (-0.6193202E+00)
 number of electron      26.0000000 magnetization 
 augmentation part       -0.0702462 magnetization 

 Free energy of the ion-electron system (eV)
  ---------------------------------------------------
  alpha Z        PSCENC =         0.19661355
  Ewald energy   TEWEN  =      1675.06761068
  -Hartree energ DENC   =     -2520.45774352
  -exchange      EXHF   =         0.00000000
  -V(xc)+E(xc)   XCENC  =        69.49193263
  PAW double counting   =     10796.11935547   -10778.33377969
  entropy T*S    EENTRO =        -0.00000000
  eigenvalues    EBANDS =      -319.07850629
  atomic energy  EATOM  =      1020.49086547
  ---------------------------------------------------
  free energy    TOTEN  =       -56.50365170 eV

  energy without entropy =      -56.50365170  energy(sigma->0) =      -56.50365170


--------------------------------------------------------------------------------------------------------




--------------------------------------- Iteration      1(   8)  ---------------------------------------


    POTLOK:  cpu time      0.4428: real time      0.4431
    SETDIJ:  cpu time      0.0016: real time      0.0016
    TRIAL :  cpu time      2.5868: real time      2.5882
    CORREC:  cpu time      2.5287: real time      2.5301
    CHARGE:  cpu time      1.3788: real time      1.3793
    --------------------------------------------
      LOOP:  cpu time      6.9556: real time      6.9731

 eigenvalue-minimisations  :     0
 total energy-change (2. order) :-0.6259753E+00  (-0.3296094E+00)
 number of electron      26.0000000 magnetization 
 augmentation part       -0.0703640 magnetization 

 Free energy of the ion-electron system (eV)
  ---------------------------------------------------
  alpha Z        PSCENC =         0.19661355
  Ewald energy   TEWEN  =      1675.06761068
  -Hartree energ DENC   =     -2515.87418913
  -exchange      EXHF   =         0.00000000
  -V(xc)+E(xc)   XCENC  =        69.34851220
  PAW double counting   =     11411.77373794   -11393.92449485
  entropy T*S    EENTRO =        -0.00000000
  eigenvalues    EBANDS =      -324.20828285
  atomic energy  EATOM  =      1020.49086547
  ---------------------------------------------------
  free energy    TOTEN  =       -57.12962700 eV

  energy without entropy =      -57.12962700  energy(sigma->0) =      -57.12962700


--------------------------------------------------------------------------------------------------------




--------------------------------------- Iteration      1(   9)  ---------------------------------------


    POTLOK:  cpu time      0.4450: real time      0.4453
    SETDIJ:  cpu time      0.0016: real time      0.0016
    TRIAL :  cpu time      2.5932: real time      2.5945
    CORREC:  cpu time      2.5289: real time      2.5302
    CHARGE:  cpu time      1.3882: real time      1.3886
    --------------------------------------------
      LOOP:  cpu time      6.9712: real time      6.9915

 eigenvalue-minimisations  :     0
 total energy-change (2. order) :-0.3193458E+00  (-0.9845028E-01)
 number of electron      26.0000000 magnetization 
 augmentation part       -0.0697481 magnetization 

 Free energy of the ion-electron system (eV)
  ---------------------------------------------------
  alpha Z        PSCENC =         0.19661355
  Ewald energy   TEWEN  =      1675.06761068
  -Hartree energ DENC   =     -2503.64527243
  -exchange      EXHF   =         0.00000000
  -V(xc)+E(xc)   XCENC  =        68.91324683
  PAW double counting   =     11603.03330440   -11585.13362584
  entropy T*S    EENTRO =        -0.00000000
  eigenvalues    EBANDS =      -336.37171540
  atomic energy  EATOM  =      1020.49086547
  ---------------------------------------------------
  free energy    TOTEN  =       -57.44897276 eV

  energy without entropy =      -57.44897276  energy(sigma->0) =      -57.44897276


--------------------------------------------------------------------------------------------------------




--------------------------------------- Iteration      1(  10)  ---------------------------------------


    POTLOK:  cpu time      0.4480: real time      0.4485
    SETDIJ:  cpu time      0.0016: real time      0.0016
    TRIAL :  cpu time      2.5837: real time      2.5851
    CORREC:  cpu time      2.5430: real time      2.5445
    CHARGE:  cpu time      1.3789: real time      1.3794
    --------------------------------------------
      LOOP:  cpu time      6.9692: real time      6.9900

 eigenvalue-minimisations  :     0
 total energy-change (2. order) :-0.9807134E-01  (-0.2913445E-01)
 number of electron      26.0000000 magnetization 
 augmentation part       -0.0687491 magnetization 

 Free energy of the ion-electron system (eV)
  ---------------------------------------------------
  alpha Z        PSCENC =         0.19661355
  Ewald energy   TEWEN  =      1675.06761068
  -Hartree energ DENC   =     -2498.71456510
  -exchange      EXHF   =         0.00000000
  -V(xc)+E(xc)   XCENC  =        68.75697103
  PAW double counting   =     11277.29405931   -11259.39694051
  entropy T*S    EENTRO =        -0.00000000
  eigenvalues    EBANDS =      -341.24165852
  atomic energy  EATOM  =      1020.49086547
  ---------------------------------------------------
  free energy    TOTEN  =       -57.54704410 eV

  energy without entropy =      -57.54704410  energy(sigma->0) =      -57.54704410


--------------------------------------------------------------------------------------------------------




--------------------------------------- Iteration      1(  11)  ---------------------------------------


    POTLOK:  cpu time      0.4431: real time      0.4435
    SETDIJ:  cpu time      0.0016: real time      0.0016
    TRIAL :  cpu time      2.5825: real time      2.5838
    CORREC:  cpu time      2.5221: real time      2.5237
    CHARGE:  cpu time      1.3683: real time      1.3686
    --------------------------------------------
      LOOP:  cpu time      6.9337: real time      6.9546

 eigenvalue-minimisations  :     0
 total energy-change (2. order) :-0.2916408E-01  (-0.9048030E-02)
 number of electron      26.0000000 magnetization 
 augmentation part       -0.0678447 magnetization 

 Free energy of the ion-electron system (eV)
  ---------------------------------------------------
  alpha Z        PSCENC =         0.19661355
  Ewald energy   TEWEN  =      1675.06761068
  -Hartree energ DENC   =     -2499.18012980
  -exchange      EXHF   =         0.00000000
  -V(xc)+E(xc)   XCENC  =        68.78163084
  PAW double counting   =     10931.48801445   -10913.61342164
  entropy T*S    EENTRO =        -0.00000000
  eigenvalues    EBANDS =      -340.80739172
  atomic energy  EATOM  =      1020.49086547
  ---------------------------------------------------
  free energy    TOTEN  =       -57.57620818 eV

  energy without entropy =      -57.57620818  energy(sigma->0) =      -57.57620818


--------------------------------------------------------------------------------------------------------




--------------------------------------- Iteration      1(  12)  ---------------------------------------


    POTLOK:  cpu time      0.4478: real time      0.4481
    SETDIJ:  cpu time      0.0016: real time      0.0016
    TRIAL :  cpu time      2.5971: real time      2.5984
    CORREC:  cpu time      2.5314: real time      2.5326
    CHARGE:  cpu time      1.3797: real time      1.3802
    --------------------------------------------
      LOOP:  cpu time      6.9703: real time      6.9925

 eigenvalue-minimisations  :     0
 total energy-change (2. order) :-0.9064768E-02  (-0.3233986E-02)
 number of electron      26.0000000 magnetization 
 augmentation part       -0.0675970 magnetization 

 Free energy of the ion-electron system (eV)
  ---------------------------------------------------
  alpha Z        PSCENC =         0.19661355
  Ewald energy   TEWEN  =      1675.06761068
  -Hartree energ DENC   =     -2499.37992185
  -exchange      EXHF   =         0.00000000
  -V(xc)+E(xc)   XCENC  =        68.78410307
  PAW double counting   =     10783.30652522   -10765.44287863
  entropy T*S    EENTRO =        -0.00000000
  eigenvalues    EBANDS =      -340.60819046
  atomic energy  EATOM  =      1020.49086547
  ---------------------------------------------------
  free energy    TOTEN  =       -57.58527295 eV

  energy without entropy =      -57.58527295  energy(sigma->0) =      -57.58527295


--------------------------------------------------------------------------------------------------------




--------------------------------------- Iteration      1(  13)  ---------------------------------------


    POTLOK:  cpu time      0.4407: real time      0.4410
    SETDIJ:  cpu time      0.0016: real time      0.0016
    TRIAL :  cpu time      2.5810: real time      2.5826
    CORREC:  cpu time      2.5198: real time      2.5211
    CHARGE:  cpu time      1.3722: real time      1.3725
    --------------------------------------------
      LOOP:  cpu time      6.9276: real time      6.9506

 eigenvalue-minimisations  :     0
 total energy-change (2. order) :-0.3239575E-02  (-0.1366928E-02)
 number of electron      26.0000000 magnetization 
 augmentation part       -0.0676109 magnetization 

 Free energy of the ion-electron system (eV)
  ---------------------------------------------------
  alpha Z        PSCENC =         0.19661355
  Ewald energy   TEWEN  =      1675.06761068
  -Hartree energ DENC   =     -2499.49841585
  -exchange      EXHF   =         0.00000000
  -V(xc)+E(xc)   XCENC  =        68.78287168
  PAW double counting   =     10760.38881908   -10742.52772164
  entropy T*S    EENTRO =        -0.00000000
  eigenvalues    EBANDS =      -340.48915549
  atomic energy  EATOM  =      1020.49086547
  ---------------------------------------------------
  free energy    TOTEN  =       -57.58851252 eV

  energy without entropy =      -57.58851252  energy(sigma->0) =      -57.58851252


--------------------------------------------------------------------------------------------------------




--------------------------------------- Iteration      1(  14)  ---------------------------------------


    POTLOK:  cpu time      0.4393: real time      0.4396
    SETDIJ:  cpu time      0.0016: real time      0.0016
    TRIAL :  cpu time      2.5807: real time      2.5823
    CORREC:  cpu time      2.5206: real time      2.5221
    CHARGE:  cpu time      1.3865: real time      1.3868
    --------------------------------------------
      LOOP:  cpu time      6.9425: real time      6.9634

 eigenvalue-minimisations  :     0
 total energy-change (2. order) :-0.1367438E-02  (-0.5197501E-03)
 number of electron      26.0000000 magnetization 
 augmentation part       -0.0676298 magnetization 

 Free energy of the ion-electron system (eV)
  ---------------------------------------------------
  alpha Z        PSCENC =         0.19661355
  Ewald energy   TEWEN  =      1675.06761068
  -Hartree energ DENC   =     -2499.90622083
  -exchange      EXHF   =         0.00000000
  -V(xc)+E(xc)   XCENC  =        68.79356894
  PAW double counting   =     10788.19710717   -10770.33593246
  entropy T*S    EENTRO =        -0.00000000
  eigenvalues    EBANDS =      -340.09349248
  atomic energy  EATOM  =      1020.49086547
  ---------------------------------------------------
  free energy    TOTEN  =       -57.58987996 eV

  energy without entropy =      -57.58987996  energy(sigma->0) =      -57.58987996


--------------------------------------------------------------------------------------------------------




--------------------------------------- Iteration      1(  15)  ---------------------------------------


    POTLOK:  cpu time      0.4328: real time      0.4331
    SETDIJ:  cpu time      0.0016: real time      0.0016
    TRIAL :  cpu time      2.5899: real time      2.5914
    CORREC:  cpu time      2.5063: real time      2.5076
    CHARGE:  cpu time      1.3877: real time      1.3880
    --------------------------------------------
      LOOP:  cpu time      6.9488: real time      6.9526

 eigenvalue-minimisations  :     0
 total energy-change (2. order) :-0.5197970E-03  (-0.1670434E-03)
 number of electron      26.0000000 magnetization 
 augmentation part       -0.0676099 magnetization 

 Free energy of the ion-electron system (eV)
  ---------------------------------------------------
  alpha Z        PSCENC =         0.19661355
  Ewald energy   TEWEN  =      1675.06761068
  -Hartree energ DENC   =     -2500.17271255
  -exchange      EXHF   =         0.00000000
  -V(xc)+E(xc)   XCENC  =        68.80148379
  PAW double counting   =     10817.92656231   -10800.06431933
  entropy T*S    EENTRO =        -0.00000000
  eigenvalues    EBANDS =      -339.83650368
  atomic energy  EATOM  =      1020.49086547
  ---------------------------------------------------
  free energy    TOTEN  =       -57.59039976 eV

  energy without entropy =      -57.59039976  energy(sigma->0) =      -57.59039976


--------------------------------------------------------------------------------------------------------




--------------------------------------- Iteration      1(  16)  ---------------------------------------


    POTLOK:  cpu time      0.4358: real time      0.4363
    SETDIJ:  cpu time      0.0016: real time      0.0016
    TRIAL :  cpu time      2.5764: real time      2.5778
    CORREC:  cpu time      2.5188: real time      2.5202
    CHARGE:  cpu time      1.3751: real time      1.3755
    --------------------------------------------
      LOOP:  cpu time      6.9250: real time      6.9453

 eigenvalue-minimisations  :     0
 total energy-change (2. order) :-0.1672244E-03  (-0.4874087E-04)
 number of electron      26.0000000 magnetization 
 augmentation part       -0.0675764 magnetization 

 Free energy of the ion-electron system (eV)
  ---------------------------------------------------
  alpha Z        PSCENC =         0.19661355
  Ewald energy   TEWEN  =      1675.06761068
  -Hartree energ DENC   =     -2500.24881885
  -exchange      EXHF   =         0.00000000
  -V(xc)+E(xc)   XCENC  =        68.80424098
  PAW double counting   =     10827.85322529   -10809.99026609
  entropy T*S    EENTRO =        -0.00000000
  eigenvalues    EBANDS =      -339.76403801
  atomic energy  EATOM  =      1020.49086547
  ---------------------------------------------------
  free energy    TOTEN  =       -57.59056698 eV

  energy without entropy =      -57.59056698  energy(sigma->0) =      -57.59056698


--------------------------------------------------------------------------------------------------------




--------------------------------------- Iteration      1(  17)  ---------------------------------------


    POTLOK:  cpu time      0.4311: real time      0.4315
    SETDIJ:  cpu time      0.0016: real time      0.0016
    TRIAL :  cpu time      2.5865: real time      2.5879
    CORREC:  cpu time      2.5098: real time      2.5108
    CHARGE:  cpu time      1.3795: real time      1.3797
    --------------------------------------------
      LOOP:  cpu time      6.9228: real time      6.9422

 eigenvalue-minimisations  :     0
 total energy-change (2. order) :-0.4884161E-04  (-0.1522319E-04)
 number of electron      26.0000000 magnetization 
 augmentation part       -0.0675565 magnetization 

 Free energy of the ion-electron system (eV)
  ---------------------------------------------------
  alpha Z        PSCENC =         0.19661355
  Ewald energy   TEWEN  =      1675.06761068
  -Hartree energ DENC   =     -2500.27595835
  -exchange      EXHF   =         0.00000000
  -V(xc)+E(xc)   XCENC  =        68.80557699
  PAW double counting   =     10826.47395922   -10808.61088840
  entropy T*S    EENTRO =        -0.00000000
  eigenvalues    EBANDS =      -339.73839498
  atomic energy  EATOM  =      1020.49086547
  ---------------------------------------------------
  free energy    TOTEN  =       -57.59061582 eV

  energy without entropy =      -57.59061582  energy(sigma->0) =      -57.59061582


--------------------------------------------------------------------------------------------------------




--------------------------------------- Iteration      1(  18)  ---------------------------------------


    POTLOK:  cpu time      0.4313: real time      0.4314
    SETDIJ:  cpu time      0.0016: real time      0.0016
    TRIAL :  cpu time      2.5809: real time      2.5825
    CORREC:  cpu time      2.5072: real time      2.5084
    CHARGE:  cpu time      1.3763: real time      1.3766
    --------------------------------------------
      LOOP:  cpu time      6.9104: real time      6.9314

 eigenvalue-minimisations  :     0
 total energy-change (2. order) :-0.1526013E-04  (-0.5339160E-05)
 number of electron      26.0000000 magnetization 
 augmentation part       -0.0675490 magnetization 

 Free energy of the ion-electron system (eV)
  ---------------------------------------------------
  alpha Z        PSCENC =         0.19661355
  Ewald energy   TEWEN  =      1675.06761068
  -Hartree energ DENC   =     -2500.26732652
  -exchange      EXHF   =         0.00000000
  -V(xc)+E(xc)   XCENC  =        68.80555634
  PAW double counting   =     10824.03687324   -10806.17381171
  entropy T*S    EENTRO =        -0.00000000
  eigenvalues    EBANDS =      -339.74701213
  atomic energy  EATOM  =      1020.49086547
  ---------------------------------------------------
  free energy    TOTEN  =       -57.59063108 eV

  energy without entropy =      -57.59063108  energy(sigma->0) =      -57.59063108


--------------------------------------------------------------------------------------------------------




--------------------------------------- Iteration      1(  19)  ---------------------------------------


    POTLOK:  cpu time      0.4286: real time      0.4286
    SETDIJ:  cpu time      0.0016: real time      0.0016
    TRIAL :  cpu time      2.5801: real time      2.5823
    CORREC:  cpu time      2.5012: real time      2.5021
    CHARGE:  cpu time      1.3768: real time      1.3775
    --------------------------------------------
      LOOP:  cpu time      6.9037: real time      6.9236

 eigenvalue-minimisations  :     0
 total energy-change (2. order) :-0.5333368E-05  (-0.1999624E-05)
 number of electron      26.0000000 magnetization 
 augmentation part       -0.0675480 magnetization 

 Free energy of the ion-electron system (eV)
  ---------------------------------------------------
  alpha Z        PSCENC =         0.19661355
  Ewald energy   TEWEN  =      1675.06761068
  -Hartree energ DENC   =     -2500.24787326
  -exchange      EXHF   =         0.00000000
  -V(xc)+E(xc)   XCENC  =        68.80503847
  PAW double counting   =     10823.20449881   -10805.34145440
  entropy T*S    EENTRO =        -0.00000000
  eigenvalues    EBANDS =      -339.76593572
  atomic energy  EATOM  =      1020.49086547
  ---------------------------------------------------
  free energy    TOTEN  =       -57.59063642 eV

  energy without entropy =      -57.59063642  energy(sigma->0) =      -57.59063642


--------------------------------------------------------------------------------------------------------




--------------------------------------- Iteration      1(  20)  ---------------------------------------


    POTLOK:  cpu time      0.4320: real time      0.4321
    SETDIJ:  cpu time      0.0016: real time      0.0016
    TRIAL :  cpu time      2.5864: real time      2.5886
    CORREC:  cpu time      2.5302: real time      2.5312
    CHARGE:  cpu time      1.3908: real time      1.3917
    --------------------------------------------
      LOOP:  cpu time      6.9559: real time      6.9762

 eigenvalue-minimisations  :     0
 total energy-change (2. order) :-0.1963121E-05  (-0.6896750E-06)
 number of electron      26.0000000 magnetization 
 augmentation part       -0.0675502 magnetization 

 Free energy of the ion-electron system (eV)
  ---------------------------------------------------
  alpha Z        PSCENC =         0.19661355
  Ewald energy   TEWEN  =      1675.06761068
  -Hartree energ DENC   =     -2500.23808373
  -exchange      EXHF   =         0.00000000
  -V(xc)+E(xc)   XCENC  =        68.80476618
  PAW double counting   =     10823.60268273   -10805.73967080
  entropy T*S    EENTRO =        -0.00000000
  eigenvalues    EBANDS =      -339.77542245
  atomic energy  EATOM  =      1020.49086547
  ---------------------------------------------------
  free energy    TOTEN  =       -57.59063838 eV

  energy without entropy =      -57.59063838  energy(sigma->0) =      -57.59063838


--------------------------------------------------------------------------------------------------------




--------------------------------------- Iteration      1(  21)  ---------------------------------------


    POTLOK:  cpu time      0.4320: real time      0.4321
    SETDIJ:  cpu time      0.0016: real time      0.0016
    TRIAL :  cpu time      2.5838: real time      2.5860
    CORREC:  cpu time      2.5093: real time      2.5101
    CHARGE:  cpu time      1.3762: real time      1.3768
    --------------------------------------------
      LOOP:  cpu time      6.9324: real time      6.9400

 eigenvalue-minimisations  :     0
 total energy-change (2. order) :-0.6560185E-06  (-0.2313840E-06)
 number of electron      26.0000000 magnetization 
 augmentation part       -0.0675512 magnetization 

 Free energy of the ion-electron system (eV)
  ---------------------------------------------------
  alpha Z        PSCENC =         0.19661355
  Ewald energy   TEWEN  =      1675.06761068
  -Hartree energ DENC   =     -2500.23275406
  -exchange      EXHF   =         0.00000000
  -V(xc)+E(xc)   XCENC  =        68.80460090
  PAW double counting   =     10824.23012825   -10806.36712772
  entropy T*S    EENTRO =        -0.00000000
  eigenvalues    EBANDS =      -339.78057610
  atomic energy  EATOM  =      1020.49086547
  ---------------------------------------------------
  free energy    TOTEN  =       -57.59063904 eV

  energy without entropy =      -57.59063904  energy(sigma->0) =      -57.59063904


--------------------------------------------------------------------------------------------------------




--------------------------------------- Iteration      1(  22)  ---------------------------------------


    POTLOK:  cpu time      0.4308: real time      0.4308
    SETDIJ:  cpu time      0.0016: real time      0.0016
    TRIAL :  cpu time      2.5892: real time      2.5909
    CORREC:  cpu time      2.5124: real time      2.5131
    CHARGE:  cpu time      1.3808: real time      1.3814
    --------------------------------------------
      LOOP:  cpu time      6.9330: real time      6.9489

 eigenvalue-minimisations  :     0
 total energy-change (2. order) :-0.2080415E-06  (-0.8974181E-07)
 number of electron      26.0000000 magnetization 
 augmentation part       -0.0675515 magnetization 

 Free energy of the ion-electron system (eV)
  ---------------------------------------------------
  alpha Z        PSCENC =         0.19661355
  Ewald energy   TEWEN  =      1675.06761068
  -Hartree energ DENC   =     -2500.23165565
  -exchange      EXHF   =         0.00000000
  -V(xc)+E(xc)   XCENC  =        68.80455678
  PAW double counting   =     10824.45912450   -10806.59613097
  entropy T*S    EENTRO =        -0.00000000
  eigenvalues    EBANDS =      -339.78162360
  atomic energy  EATOM  =      1020.49086547
  ---------------------------------------------------
  free energy    TOTEN  =       -57.59063925 eV

  energy without entropy =      -57.59063925  energy(sigma->0) =      -57.59063925


--------------------------------------------------------------------------------------------------------




--------------------------------------- Iteration      1(  23)  ---------------------------------------


    POTLOK:  cpu time      0.4345: real time      0.4346
    SETDIJ:  cpu time      0.0016: real time      0.0016
    TRIAL :  cpu time      2.5803: real time      2.5820
    CORREC:  cpu time      2.5115: real time      2.5124
    EDDIAG:  cpu time      1.0914: real time      1.0923
    CHARGE:  cpu time      1.3741: real time      1.3747
    --------------------------------------------
      LOOP:  cpu time      8.0067: real time      8.0311

 eigenvalue-minimisations  :     0
 total energy-change (2. order) :-0.6945265E-07  (-0.5164987E-07)
 number of electron      26.0000000 magnetization 
 augmentation part       -0.0675523 magnetization 

 Free energy of the ion-electron system (eV)
  ---------------------------------------------------
  alpha Z        PSCENC =         0.19661355
  Ewald energy   TEWEN  =      1675.06761068
  -Hartree energ DENC   =     -2500.23290935
  -exchange      EXHF   =         0.00000000
  -V(xc)+E(xc)   XCENC  =        68.80458284
  PAW double counting   =     10824.39858703   -10806.53559719
  entropy T*S    EENTRO =        -0.00000000
  eigenvalues    EBANDS =      -339.78039235
  atomic energy  EATOM  =      1020.49086547
  ---------------------------------------------------
  free energy    TOTEN  =       -57.59063931 eV

  energy without entropy =      -57.59063931  energy(sigma->0) =      -57.59063931


--------------------------------------------------------------------------------------------------------


  average scaling for gradient   1.6953


 average (electrostatic) potential at core
  the test charge radii are     0.5770  0.4325  0.5902
  (the norm of the test charge is              1.0000)
       1 -86.3967       2 -85.9225       3 -86.9664       4 -45.8485       5 -45.2342
       6 -45.1370       7 -47.9266       8-105.5698       9-103.7711



 E-fermi :  -6.0675     XC(G=0):  -0.1361     alpha+bet : -0.0573

 Fermi energy:        -6.0674729705

 k-point     1 :       0.0000    0.0000    0.0000
  band No.  band energies     occupation 
      1     -26.1627      2.00000
      2     -20.2851      2.00000
      3     -19.3011      2.00000
      4     -15.1030      2.00000
      5     -14.6946      2.00000
      6     -13.4031      2.00000
      7     -10.8644      2.00000
      8     -10.7246      2.00000
      9     -10.4171      2.00000
     10      -9.6481      2.00000
     11      -6.7813      2.00000
     12      -6.3718      2.00000
     13      -6.1329      2.00000
     14      -0.7217      0.00000
     15      -0.5987      0.00000
     16      -0.0398      0.00000
     17       0.1006      0.00000
     18       0.1434      0.00000
     19       0.2338      0.00000
     20       0.3182      0.00000
     21       0.3350      0.00000
     22       0.4015      0.00000
     23       0.4398      0.00000
     24       0.4479      0.00000
     25       0.4942      0.00000
     26       0.5191      0.00000
     27       0.5653      0.00000
     28       0.5784      0.00000
     29       0.6173      0.00000
     30       0.6318      0.00000
     31       0.6401      0.00000
     32       0.6473      0.00000
     33       0.6513      0.00000
     34       0.6585      0.00000
     35       0.7680      0.00000
     36       0.8268      0.00000
     37       0.8534      0.00000
     38       0.8681      0.00000
     39       0.8712      0.00000
     40       0.9032      0.00000
     41       0.9110      0.00000
     42       0.9515      0.00000
     43       1.0043      0.00000
     44       1.0684      0.00000
     45       1.1138      0.00000
     46       1.1541      0.00000
     47       1.1796      0.00000
     48       1.2048      0.00000
     49       1.2354      0.00000
     50       1.2976      0.00000
     51       1.3548      0.00000
     52       1.3654      0.00000
     53       1.3898      0.00000
     54       1.4116      0.00000
     55       1.4352      0.00000
     56       1.4644      0.00000
     57       1.4934      0.00000
     58       1.5174      0.00000
     59       1.5351      0.00000
     60       1.5411      0.00000
     61       1.5556      0.00000
     62       1.5587      0.00000
     63       1.5661      0.00000
     64       1.5746      0.00000
     65       1.5758      0.00000
     66       1.5794      0.00000
     67       1.5815      0.00000
     68       1.5846      0.00000
     69       1.5860      0.00000
     70       1.5874      0.00000
     71       1.5927      0.00000
     72       1.5930      0.00000
     73       1.6754      0.00000
     74       1.7087      0.00000
     75       1.7389      0.00000
     76       1.7613      0.00000
     77       1.7751      0.00000
     78       1.7869      0.00000
     79       1.7967      0.00000
     80       1.8149      0.00000
     81       1.8406      0.00000
     82       1.8438      0.00000
     83       1.8534      0.00000
     84       1.8645      0.00000
     85       1.8670      0.00000
     86       1.8755      0.00000
     87       1.8791      0.00000
     88       1.8809      0.00000
     89       1.8821      0.00000
     90       1.8870      0.00000
     91       1.8875      0.00000
     92       1.8904      0.00000
     93       1.8930      0.00000
     94       1.8958      0.00000
     95       1.8975      0.00000
     96       1.8996      0.00000
     97       2.1047      0.00000
     98       2.1890      0.00000
     99       2.2299      0.00000
    100       2.3400      0.00000
    101       2.3775      0.00000
    102       2.4017      0.00000
    103       2.4020      0.00000
    104       2.4299      0.00000
    105       2.4377      0.00000
    106       2.4498      0.00000
    107       2.4595      0.00000
    108       2.5115      0.00000
    109       2.5263      0.00000
    110       2.5479      0.00000
    111       2.5724      0.00000
    112       2.5893      0.00000
    113       2.6323      0.00000
    114       2.6439      0.00000
    115       2.6727      0.00000
    116       2.6952      0.00000
    117       2.7039      0.00000
    118       2.7142      0.00000
    119       2.7290      0.00000
    120       2.7407      0.00000
    121       2.7424      0.00000
    122       2.7692      0.00000
    123       2.7743      0.00000
    124       2.7830      0.00000
    125       2.7899      0.00000
    126       2.7919      0.00000
    127       2.8006      0.00000
    128       2.8084      0.00000
    129       2.8139      0.00000
    130       2.8155      0.00000
    131       2.8205      0.00000
    132       2.8221      0.00000
    133       2.8230      0.00000
    134       2.8244      0.00000
    135       2.8255      0.00000
    136       2.8266      0.00000
    137       2.8286      0.00000
    138       2.8468      0.00000
    139       2.9263      0.00000
    140       2.9480      0.00000
    141       2.9647      0.00000
    142       2.9765      0.00000
    143       2.9926      0.00000
    144       3.0060      0.00000
    145       3.0177      0.00000
    146       3.0368      0.00000
    147       3.0686      0.00000
    148       3.0692      0.00000
    149       3.0805      0.00000
    150       3.0877      0.00000
    151       3.0896      0.00000
    152       3.0981      0.00000
    153       3.1027      0.00000
    154       3.1081      0.00000
    155       3.1090      0.00000
    156       3.1218      0.00000
    157       3.1325      0.00000
    158       3.1330      0.00000
    159       3.1344      0.00000
    160       3.1369      0.00000
    161       3.1392      0.00000
    162       3.1432      0.00000
    163       3.2083      0.00000
    164       3.2500      0.00000
    165       3.3017      0.00000
    166       3.3106      0.00000
    167       3.3230      0.00000
    168       3.3465      0.00000
    169       3.3534      0.00000
    170       3.3647      0.00000
    171       3.3720      0.00000
    172       3.3770      0.00000
    173       3.3878      0.00000
    174       3.3897      0.00000
    175       3.3917      0.00000
    176       3.3953      0.00000
    177       3.3985      0.00000
    178       3.4003      0.00000
    179       3.4041      0.00000
    180       3.4129      0.00000
    181       3.4239      0.00000
    182       3.4250      0.00000
    183       3.4328      0.00000
    184       3.4364      0.00000
    185       3.4380      0.00000
    186       3.4696      0.00000
    187       3.5307      0.00000
    188       3.5578      0.00000
    189       3.6183      0.00000
    190       3.6376      0.00000
    191       3.6459      0.00000
    192       3.6707      0.00000
    193       3.7027      0.00000
    194       3.7084      0.00000
    195       3.7481      0.00000
    196       3.7582      0.00000
    197       3.7736      0.00000
    198       3.7938      0.00000
    199       3.8305      0.00000
    200       3.8609      0.00000
    201       3.9012      0.00000
    202       3.9182      0.00000
    203       3.9276      0.00000
    204       3.9658      0.00000
    205       3.9830      0.00000
    206       3.9934      0.00000
    207       4.0113      0.00000
    208       4.0142      0.00000
    209       4.0313      0.00000
    210       4.0377      0.00000
    211       4.0388      0.00000
    212       4.0396      0.00000
    213       4.0491      0.00000
    214       4.0541      0.00000
    215       4.0548      0.00000
    216       4.0608      0.00000
    217       4.0639      0.00000
    218       4.0873      0.00000
    219       4.0939      0.00000
    220       4.1129      0.00000
    221       4.1288      0.00000
    222       4.1595      0.00000
    223       4.1801      0.00000
    224       4.1906      0.00000
    225       4.2231      0.00000
    226       4.2342      0.00000
    227       4.2411      0.00000
    228       4.2524      0.00000
    229       4.2673      0.00000
    230       4.2717      0.00000
    231       4.2800      0.00000
    232       4.2912      0.00000
    233       4.3035      0.00000
    234       4.3096      0.00000
    235       4.3124      0.00000
    236       4.3151      0.00000
    237       4.3187      0.00000
    238       4.3252      0.00000
    239       4.3296      0.00000
    240       4.3397      0.00000
    241       4.3420      0.00000
    242       4.3465      0.00000
    243       4.3560      0.00000
    244       4.3572      0.00000
    245       4.3636      0.00000
    246       4.3657      0.00000
    247       4.3674      0.00000
    248       4.3695      0.00000
    249       4.3719      0.00000
    250       4.3751      0.00000
    251       4.3783      0.00000
    252       4.3804      0.00000
    253       4.3860      0.00000
    254       4.4277      0.00000
    255       4.4586      0.00000
    256       4.5198      0.00000


--------------------------------------------------------------------------------------------------------


 soft charge-density along one line, spin component           1
         0         1         2         3         4         5         6         7         8         9
 total charge-density along one line

 pseudopotential strength for first ion, spin component:           1
 12.731  21.425  -0.000  -0.003   0.006  -0.000  -0.005   0.010
 21.425  36.053  -0.000  -0.005   0.010  -0.001  -0.008   0.017
 -0.000  -0.000  -3.181   0.000   0.000  -5.702   0.000   0.000
 -0.003  -0.005   0.000  -3.181   0.000   0.000  -5.703   0.000
  0.006   0.010   0.000   0.000  -3.181   0.000   0.000  -5.703
 -0.000  -0.001  -5.702   0.000   0.000 -10.200   0.000   0.000
 -0.005  -0.008   0.000  -5.703   0.000   0.000 -10.201   0.001
  0.010   0.017   0.000   0.000  -5.703   0.000   0.001 -10.202
 total augmentation occupancy for first ion, spin component:           1
  7.919  -2.800  -0.577  -0.920   0.932   0.266   0.435  -0.455
 -2.800   1.041   0.280   0.469  -0.504  -0.126  -0.215   0.235
 -0.577   0.280   5.421   1.714   0.743  -1.706  -0.675  -0.299
 -0.920   0.469   1.714   5.154  -1.087  -0.675  -1.615   0.470
  0.932  -0.504   0.743  -1.087   7.210  -0.299   0.470  -2.517
  0.266  -0.126  -1.706  -0.675  -0.299   0.552   0.254   0.114
  0.435  -0.215  -0.675  -1.615   0.470   0.254   0.524  -0.194
 -0.455   0.235  -0.299   0.470  -2.517   0.114  -0.194   0.900


------------------------ aborting loop because EDIFF is reached ----------------------------------------


    FORLOC:  cpu time      0.0169: real time      0.0169
    FORNL :  cpu time      0.2513: real time      0.2519
    FORCOR:  cpu time      0.2641: real time      0.2641
    OFIELD:  cpu time      0.0027: real time      0.0027

 ---------------------------------------------------------------------------------------------

         DFTD3 V3.0 Rev 1        
 IVDW         = 11
 DF pbe       
 parameters
 VDW_S6       =    1.0000
 VDW_S8       =    0.7220
 VDW_SR       =    1.2170
 rs18     =    1.0000
 alpha6   =   14.0000
 alpha8   =   16.0000
 k1-k3    =   16.0000    1.3333   -4.0000
 VDW_RADIUS   =   50.2022 A
 VDW_CNRADIUS =   21.1671 A
 Edisp (eV)   -0.04436

 E6    (eV) :    -0.0175
 E8    (eV) :    -0.0269
 % E8        : 60.57
    FORVDW:  cpu time      0.0285: real time      0.0285

 VOLUME and BASIS-vectors are now :
 -----------------------------------------------------------------------------
  energy-cutoff  :     1000.00
  volume of cell :    10648.00
      direct lattice vectors                 reciprocal lattice vectors
    22.000000000  0.000000000  0.000000000     0.045454545  0.000000000  0.000000000
     0.000000000 22.000000000  0.000000000     0.000000000  0.045454545  0.000000000
     0.000000000  0.000000000 22.000000000     0.000000000  0.000000000  0.045454545

  length of vectors
    22.000000000 22.000000000 22.000000000     0.045454545  0.045454545  0.045454545


 FORCES acting on ions:
    Electron-Ion                     Ewald-Force                    Non-Local-Force
 -----------------------------------------------------------------------------------------------
   0.838E+02 -.136E+03 -.158E+03   -.870E+02 0.136E+03 0.159E+03   0.318E+01 0.347E-01 -.134E+01
   0.204E+03 0.315E+02 -.600E+02   -.205E+03 -.310E+02 0.607E+02   0.369E+00 -.546E+00 -.652E+00
   0.966E+02 0.170E+03 0.111E+03   -.104E+03 -.172E+03 -.109E+03   0.785E+01 0.183E+01 -.172E+01
   0.230E+02 0.628E+02 0.463E+02   -.245E+02 -.675E+02 -.498E+02   0.145E+01 0.460E+01 0.349E+01
   0.755E+02 0.128E+02 -.209E+02   -.811E+02 -.138E+02 0.225E+02   0.559E+01 0.959E+00 -.154E+01
   0.168E+02 -.556E+02 -.571E+02   -.178E+02 0.598E+02 0.613E+02   0.989E+00 -.414E+01 -.414E+01
   -.786E+02 0.272E+02 0.585E+02   0.847E+02 -.291E+02 -.629E+02   -.608E+01 0.185E+01 0.431E+01
   -.175E+03 0.929E+02 0.159E+03   0.175E+03 -.958E+02 -.161E+03   0.526E+00 0.310E+01 0.247E+01
   -.229E+03 -.187E+03 -.685E+02   0.260E+03 0.214E+03 0.794E+02   -.310E+02 -.275E+02 -.112E+02
 -----------------------------------------------------------------------------------------------
   0.171E+02 0.198E+02 0.103E+02   0.000E+00 0.000E+00 0.568E-13   -.171E+02 -.198E+02 -.103E+02


 POSITION                                       TOTAL-FORCE (eV/Angst)
 -----------------------------------------------------------------------------------
     11.01592     11.87822     11.66173         0.009368     -0.047877     -0.050974
     10.13162     10.89700     11.16415        -0.020824      0.024114      0.027170
     10.86960     10.20273     10.22385         0.087581      0.031178     -0.007741
     10.62191      9.36726      9.58344        -0.026405     -0.084202     -0.066637
      9.10345     10.71911     11.44618        -0.094830     -0.022455      0.025817
     10.83243     12.63274     12.41656        -0.010373      0.072946      0.069981
     12.89655     10.52869      9.63866         0.038270     -0.009414     -0.021722
     12.10054     10.77938     10.20966        -0.054567      0.138499      0.144076
     12.21825     11.80899     11.08057         0.071780     -0.102789     -0.119971
 -----------------------------------------------------------------------------------
    total drift:                               -0.000870      0.000174      0.000553


--------------------------------------------------------------------------------------------------------



  FREE ENERGIE OF THE ION-ELECTRON SYSTEM (eV)
  ---------------------------------------------------
  free  energy   TOTEN  =       -57.63499526 eV

  energy  without entropy=      -57.63499526  energy(sigma->0) =      -57.63499526



--------------------------------------------------------------------------------------------------------


    POTLOK:  cpu time      0.4880: real time      0.4885


--------------------------------------------------------------------------------------------------------


 stress matrix after NEB project (eV)
      0.02561      0.00867     -0.00329
      0.00867      0.01978      0.01402
     -0.00329      0.01402      0.01393
  FORCES: max atom, RMS     0.207165    0.117002
  FORCE total and by dimension    0.351006    0.144076
  Stress total and by dimension    0.042502    0.025607
     LOOP+:  cpu time    175.0471: real time    175.4639
    4ORBIT:  cpu time      0.0000: real time      0.0000

 total amount of memory used by VASP MPI-rank0   546952. kBytes
=======================================================================

   base      :      30000. kBytes
   nonl-proj :      64253. kBytes
   fftplans  :     151777. kBytes
   grid      :     291732. kBytes
   one-center:          7. kBytes
   wavefun   :       9183. kBytes

  
  
 General timing and accounting informations for this job:
 ========================================================
  
                  Total CPU time used (sec):      242.299
                            User time (sec):      212.102
                          System time (sec):       30.197
                         Elapsed time (sec):      263.048
  
                   Maximum memory used (kb):      817100.
                   Average memory used (kb):          N/A
  
                          Minor page faults:      1225014
                          Major page faults:         1187
                 Voluntary context switches:        12250
