 vasp.6.4.1 05Apr23 (build Jun  6 2023 14:46:38) gamma-only                      
 executed on        HPECrayEX_GCC date 2024.08.22  03:48:37
 running  512 mpi-ranks, with    1 threads/rank, on    4 nodes
 distrk:  each k-point on  512 cores,    1 groups
 distr:  one band on NCORE= 128 cores,    4 groups


--------------------------------------------------------------------------------------------------------


 INCAR:
   ALGO = Conjugate
   NPAR = 4
   ISMEAR = 0
   SIGMA = 0.01
   PREC = Accurate
   EDIFF = 1E-7
   ENCUT = 1000
   ISIF = 0
   GGA = RE
   LWAVE = .FALSE.
   SYMPREC = 1E-7
   LCHARG = .FALSE.
   LWAVE = .FALSE.
   LCHARG = .FALSE.

 POTCAR:    PAW_PBE C_h 06Feb2004                 
 POTCAR:    PAW_PBE H_h 06Feb2004                 
 POTCAR:    PAW_PBE N_h 06Feb2004                 
 POTCAR:    PAW_PBE C_h 06Feb2004                 
   VRHFIN =C: s2p2                                                                                  
   LEXCH  = PE                                                                                      
   EATOM  =   147.1560 eV,   10.8157 Ry                                                             
                                                                                                    
   TITEL  = PAW_PBE C_h 06Feb2004                                                                   
   LULTRA =        F    use ultrasoft PP ?                                                          
   IUNSCR =        1    unscreen: 0-lin 1-nonlin 2-no                                               
   RPACOR =    0.800    partial core radius                                                         
   POMASS =   12.011; ZVAL   =    4.000    mass and valenz                                          
   RCORE  =    1.100    outmost cutoff radius                                                       
   RWIGS  =    1.630; RWIGS  =    0.863    wigner-seitz radius (au A)                               
   ENMAX  =  700.000; ENMIN  =  500.000 eV                                                          
   ICORE  =        2    local potential                                                             
   LCOR   =        T    correct aug charges                                                         
   LPAW   =        T    paw PP                                                                      
   EAUG   =  946.768                                                                                
   DEXC   =    0.000                                                                                
   RMAX   =    1.128    core radius for proj-oper                                                   
   RAUG   =    1.300    factor for augmentation sphere                                              
   RDEP   =    1.162    radius for radial grids                                                     
   RDEPT  =    1.088    core radius for aug-charge                                                  
                                                                                                    
   Atomic configuration                                                                             
    4 entries                                                                                       
     n  l   j            E        occ.                                                              
     1  0  0.50      -273.3789   2.0000                                                             
     2  0  0.50       -13.7508   2.0000                                                             
     2  1  0.50        -5.2854   2.0000                                                             
     3  2  1.50        -5.4423   0.0000                                                             
   Description                                                                                      
     l       E           TYP  RCUT    TYP  RCUT                                                     
     0    -13.7508458     23  1.100                                                                 
     0     -8.2022199     23  1.100                                                                 
     1     -5.2854383     23  1.100                                                                 
     1      1.1560700     23  1.100                                                                 
     2     -5.4423304      7  1.100                                                                 
  local pseudopotential read in
  partial core-charges read in
  partial kinetic energy density read in
  atomic valenz-charges read in
  non local Contribution for L=           0  read in
    real space projection operators read in
  non local Contribution for L=           0  read in
    real space projection operators read in
  non local Contribution for L=           1  read in
    real space projection operators read in
  non local Contribution for L=           1  read in
    real space projection operators read in
    PAW grid and wavefunctions read in

   number of l-projection  operators is LMAX  =           4
   number of lm-projection operators is LMMAX =           8

 POTCAR:    PAW_PBE H_h 06Feb2004                 
   VRHFIN =H: ultrasoft test                                                                        
   LEXCH  = PE                                                                                      
   EATOM  =    12.4884 eV,    0.9179 Ry                                                             
                                                                                                    
   TITEL  = PAW_PBE H_h 06Feb2004                                                                   
   LULTRA =        F    use ultrasoft PP ?                                                          
   IUNSCR =        0    unscreen: 0-lin 1-nonlin 2-no                                               
   RPACOR =    0.000    partial core radius                                                         
   POMASS =    1.000; ZVAL   =    1.000    mass and valenz                                          
   RCORE  =    0.800    outmost cutoff radius                                                       
   RWIGS  =    0.700; RWIGS  =    0.370    wigner-seitz radius (au A)                               
   ENMAX  =  700.000; ENMIN  =  350.000 eV                                                          
   RCLOC  =    0.701    cutoff for local pot                                                        
   LCOR   =        T    correct aug charges                                                         
   LPAW   =        T    paw PP                                                                      
   EAUG   = 1000.000                                                                                
   RMAX   =    0.819    core radius for proj-oper                                                   
   RAUG   =    1.000    factor for augmentation sphere                                              
   RDEP   =    0.817    radius for radial grids                                                     
   RDEPT  =    0.817    core radius for aug-charge                                                  
                                                                                                    
   Atomic configuration                                                                             
    2 entries                                                                                       
     n  l   j            E        occ.                                                              
     1  0  0.50        -6.4927   1.0000                                                             
     2  1  0.50        -3.4015   0.0000                                                             
   Description                                                                                      
     l       E           TYP  RCUT    TYP  RCUT                                                     
     0     -6.4927493     23  0.800                                                                 
     0      6.8029130     23  0.800                                                                 
     1     -6.8029130     23  0.800                                                                 
  local pseudopotential read in
  atomic valenz-charges read in
  non local Contribution for L=           0  read in
    real space projection operators read in
  non local Contribution for L=           0  read in
    real space projection operators read in
  non local Contribution for L=           1  read in
    real space projection operators read in
    PAW grid and wavefunctions read in

   number of l-projection  operators is LMAX  =           3
   number of lm-projection operators is LMMAX =           5

 POTCAR:    PAW_PBE N_h 06Feb2004                 
   VRHFIN =N: s2p3                                                                                  
   LEXCH  = PE                                                                                      
   EATOM  =   264.5486 eV,   19.4438 Ry                                                             
                                                                                                    
   TITEL  = PAW_PBE N_h 06Feb2004                                                                   
   LULTRA =        F    use ultrasoft PP ?                                                          
   IUNSCR =        1    unscreen: 0-lin 1-nonlin 2-no                                               
   RPACOR =    0.800    partial core radius                                                         
   POMASS =   14.001; ZVAL   =    5.000    mass and valenz                                          
   RCORE  =    1.100    outmost cutoff radius                                                       
   RWIGS  =    1.480; RWIGS  =    0.783    wigner-seitz radius (au A)                               
   ENMAX  =  700.000; ENMIN  =  500.000 eV                                                          
   ICORE  =        2    local potential                                                             
   LCOR   =        T    correct aug charges                                                         
   LPAW   =        T    paw PP                                                                      
   EAUG   =  904.640                                                                                
   DEXC   =    0.000                                                                                
   RMAX   =    1.127    core radius for proj-oper                                                   
   RAUG   =    1.300    factor for augmentation sphere                                              
   RDEP   =    1.115    radius for radial grids                                                     
   RDEPT  =    1.106    core radius for aug-charge                                                  
                                                                                                    
   Atomic configuration                                                                             
    4 entries                                                                                       
     n  l   j            E        occ.                                                              
     1  0  0.50      -384.7179   2.0000                                                             
     2  0  0.50       -18.5828   2.0000                                                             
     2  1  0.50        -7.0898   3.0000                                                             
     3  2  1.50        -6.8029   0.0000                                                             
   Description                                                                                      
     l       E           TYP  RCUT    TYP  RCUT                                                     
     0    -18.5828117     23  1.100                                                                 
     0    -15.0750597     23  1.100                                                                 
     1     -7.0897851     23  1.100                                                                 
     1     -1.9663412     23  1.100                                                                 
     2     -6.8029130      7  1.100                                                                 
  local pseudopotential read in
  partial core-charges read in
  partial kinetic energy density read in
  kinetic energy density of atom read in
  atomic valenz-charges read in
  non local Contribution for L=           0  read in
    real space projection operators read in
  non local Contribution for L=           0  read in
    real space projection operators read in
  non local Contribution for L=           1  read in
    real space projection operators read in
  non local Contribution for L=           1  read in
    real space projection operators read in
    PAW grid and wavefunctions read in

   number of l-projection  operators is LMAX  =           4
   number of lm-projection operators is LMMAX =           8

 -----------------------------------------------------------------------------
|                                                                             |
|               ----> ADVICE to this user running VASP <----                  |
|                                                                             |
|     You enforced a specific xc type in the INCAR file but a different       |
|     type was found in the POTCAR file.                                      |
|     I HOPE YOU KNOW WHAT YOU ARE DOING!                                     |
|                                                                             |
 -----------------------------------------------------------------------------

  PAW_PBE C_h 06Feb2004                 :
 energy of atom  1       EATOM= -147.1560
 kinetic energy error for atom=    0.0031 (will be added to EATOM!!)
  PAW_PBE H_h 06Feb2004                 :
 energy of atom  2       EATOM=  -12.4884
 kinetic energy error for atom=    0.0006 (will be added to EATOM!!)
  PAW_PBE N_h 06Feb2004                 :
 energy of atom  3       EATOM= -264.5486
 kinetic energy error for atom=    0.0081 (will be added to EATOM!!)


 POSCAR:  C  H  N
  positions in cartesian coordinates
  No initial velocities read in
 exchange correlation table for  LEXCH =       40
   RHO(1)=    0.500       N(1)  =     2000
   RHO(2)=  100.500       N(2)  =     4000

 VTST: version 4.1, (05/19/21)

 CHAIN: initializing optimizer
 
 OPT: Using VASP Dynamics algorithm
 CHAIN: Read ICHAIN            0

 POSCAR:  C  H  N
  positions in cartesian coordinates
  No initial velocities read in



--------------------------------------------------------------------------------------------------------


 ion  position               nearest neighbor table
   1  0.501  0.540  0.530-   6 1.08   9 1.34   2 1.41
   2  0.461  0.495  0.507-   5 1.08   3 1.38   1 1.41
   3  0.494  0.464  0.465-   4 1.08   8 1.36   2 1.38
   4  0.483  0.426  0.436-   3 1.08
   5  0.414  0.487  0.520-   2 1.08
   6  0.492  0.574  0.564-   1 1.08
   7  0.586  0.479  0.438-   8 1.01
   8  0.550  0.490  0.464-   7 1.01   9 1.35   3 1.36
   9  0.555  0.537  0.504-   1 1.34   8 1.35

  LATTYP: Found a simple cubic cell.
 ALAT       =    22.0000000000
  
  Lattice vectors:
  
 A1 = (  22.0000000000,   0.0000000000,   0.0000000000)
 A2 = (   0.0000000000,  22.0000000000,   0.0000000000)
 A3 = (   0.0000000000,   0.0000000000,  22.0000000000)


Analysis of symmetry for initial positions (statically):
=====================================================================
 Subroutine PRICEL returns:
 Original cell was already a primitive cell.
 

 Routine SETGRP: Setting up the symmetry group for a 
 simple cubic supercell.


 Subroutine GETGRP returns: Found  1 space group operations
 (whereof  1 operations were pure point group operations)
 out of a pool of 48 trial point group operations.


The static configuration has the point symmetry C_1 .


Analysis of symmetry for dynamics (positions and initial velocities):
=====================================================================
 Subroutine PRICEL returns:
 Original cell was already a primitive cell.
 

 Routine SETGRP: Setting up the symmetry group for a 
 simple cubic supercell.


 Subroutine GETGRP returns: Found  1 space group operations
 (whereof  1 operations were pure point group operations)
 out of a pool of 48 trial point group operations.


The dynamic configuration has the point symmetry C_1 .


 Subroutine INISYM returns: Found  1 space group operations
 (whereof  1 operations are pure point group operations),
 and found     1 'primitive' translations


----------------------------------------------------------------------------------------

                                     Primitive cell                                     

  volume of cell :   10648.0000

  direct lattice vectors                    reciprocal lattice vectors
    22.000000000  0.000000000  0.000000000     0.045454545  0.000000000  0.000000000
     0.000000000 22.000000000  0.000000000     0.000000000  0.045454545  0.000000000
     0.000000000  0.000000000 22.000000000     0.000000000  0.000000000  0.045454545

  length of vectors
    22.000000000 22.000000000 22.000000000     0.045454545  0.045454545  0.045454545

  position of ions in fractional coordinates (direct lattice)
     0.500723409  0.539918864  0.530078409
     0.460527955  0.495318409  0.507461591
     0.494072955  0.463760227  0.464720227
     0.482814318  0.425784318  0.435610682
     0.413793409  0.487232500  0.520281136
     0.492382955  0.574215682  0.564389318
     0.586206591  0.478577045  0.438121136
     0.550024318  0.489972045  0.464075682
     0.555375227  0.536772045  0.503662500

  ion indices of the primitive-cell ions
   primitive index   ion index
                 1           1
                 2           2
                 3           3
                 4           4
                 5           5
                 6           6
                 7           7
                 8           8
                 9           9

----------------------------------------------------------------------------------------



 KPOINTS: auto                                    

Automatic generation of k-mesh.
 Grid dimensions read from file:
 generate k-points for:    1    1    1

 Generating k-lattice:

  Cartesian coordinates                     Fractional coordinates (reciprocal lattice)
     0.045454545  0.000000000  0.000000000     1.000000000  0.000000000  0.000000000
     0.000000000  0.045454545  0.000000000     0.000000000  1.000000000  0.000000000
     0.000000000  0.000000000  0.045454545     0.000000000  0.000000000  1.000000000

  Length of vectors
     0.045454545  0.045454545  0.045454545

  Shift w.r.t. Gamma in fractional coordinates (k-lattice)
     0.000000000  0.000000000  0.000000000

 
 Subroutine IBZKPT returns following result:
 ===========================================
 
 Found      1 irreducible k-points:
 
 Following reciprocal coordinates:
            Coordinates               Weight
  0.000000  0.000000  0.000000      1.000000
 
 Following cartesian coordinates:
            Coordinates               Weight
  0.000000  0.000000  0.000000      1.000000
 


--------------------------------------------------------------------------------------------------------




 Dimension of arrays:
   k-points           NKPTS =      1   k-points in BZ     NKDIM =      1   number of bands    NBANDS=     20
   number of dos      NEDOS =    301   number of ions     NIONS =      9
   non local maximal  LDIM  =      4   non local SUM 2l+1 LMDIM =      8
   total plane-waves  NPLWV = ******
   max r-space proj   IRMAX =      1   max aug-charges    IRDMAX=   9419
   dimension x,y,z NGX =   240 NGY =  240 NGZ =  240
   dimension x,y,z NGXF=   480 NGYF=  480 NGZF=  480
   support grid    NGXF=   480 NGYF=  480 NGZF=  480
   ions per type =               3   4   2
   NGX,Y,Z   is equivalent  to a cutoff of  18.14, 18.14, 18.14 a.u.
   NGXF,Y,Z  is equivalent  to a cutoff of  36.27, 36.27, 36.27 a.u.

 SYSTEM =  unknown system                          
 POSCAR =   C  H  N                                

 Startparameter for this run:
   NWRITE =      2    write-flag & timer
   PREC   = accura    normal or accurate (medium, high low for compatibility)
   ISTART =      0    job   : 0-new  1-cont  2-samecut
   ICHARG =      2    charge: 1-file 2-atom 10-const
   ISPIN  =      1    spin polarized calculation?
   LNONCOLLINEAR =      F non collinear calculations
   LSORBIT =      F    spin-orbit coupling
   INIWAV =      1    electr: 0-lowe 1-rand  2-diag
   LASPH  =      F    aspherical Exc in radial PAW
 Electronic Relaxation 1
   ENCUT  = 1000.0 eV  73.50 Ry    8.57 a.u.  56.73 56.73 56.73*2*pi/ulx,y,z
   ENINI  = 1000.0     initial cutoff
   ENAUG  = 1000.0 eV  augmentation charge cutoff
   NELM   =     60;   NELMIN=  2; NELMDL= -5     # of ELM steps 
   EDIFF  = 0.1E-06   stopping-criterion for ELM
   LREAL  =      F    real-space projection
   NLSPLINE    = F    spline interpolate recip. space projectors
   LCOMPAT=      F    compatible to vasp.4.4
   GGA_COMPAT  = T    GGA compatible to vasp.4.4-vasp.4.6
   LMAXPAW     = -100 max onsite density
   LMAXMIX     =    2 max onsite mixed and CHGCAR
   VOSKOWN=      0    Vosko Wilk Nusair interpolation
   ROPT   =    0.00000   0.00000   0.00000
 Ionic relaxation
   EDIFFG = 0.1E-05   stopping-criterion for IOM
   NSW    =      0    number of steps for IOM
   NBLOCK =      1;   KBLOCK =      1    inner block; outer block 
   IBRION =     -1    ionic relax: 0-MD 1-quasi-New 2-CG
   NFREE  =      0    steps in history (QN), initial steepest desc. (CG)
   ISIF   =      0    stress and relaxation
   IWAVPR =     10    prediction:  0-non 1-charg 2-wave 3-comb
   ISYM   =      2    0-nonsym 1-usesym 2-fastsym
   LCORR  =      T    Harris-Foulkes like correction to forces

   POTIM  = 0.5000    time-step for ionic-motion
   TEIN   =    0.0    initial temperature
   TEBEG  =    0.0;   TEEND  =   0.0 temperature during run
   SMASS  =  -3.00    Nose mass-parameter (am)
   estimated Nose-frequenzy (Omega)   =  0.10E-29 period in steps = 0.13E+47 mass=  -0.111E-25a.u.
   SCALEE = 1.0000    scale energy and forces
   NPACO  =    256;   APACO  = 10.0  distance and # of slots for P.C.
   PSTRESS=    0.0 pullay stress

  Mass of Ions in am
   POMASS =  12.01  1.00 14.00
  Ionic Valenz
   ZVAL   =   4.00  1.00  5.00
  Atomic Wigner-Seitz radii
   RWIGS  =  -1.00 -1.00 -1.00
  virtual crystal weights 
   VCA    =   1.00  1.00  1.00
   NELECT =      26.0000    total number of electrons
   NUPDOWN=      -1.0000    fix difference up-down

 DOS related values:
   EMIN   =  10.00;   EMAX   =-10.00  energy-range for DOS
   EFERMI =   0.00;   METHOD = LEGACY      
   ISMEAR =     0;   SIGMA  =   0.01  broadening in eV -4-tet -1-fermi 0-gaus

 Electronic relaxation 2 (details)
   IALGO  =     58    algorithm
   LDIAG  =      T    sub-space diagonalisation (order eigenvalues)
   LSUBROT=      F    optimize rotation matrix (better conditioning)
   TURBO    =      0    0=normal 1=particle mesh
   IRESTART =      0    0=no restart 2=restart with 2 vectors
   NREBOOT  =      0    no. of reboots
   NMIN     =      0    reboot dimension
   EREF     =   0.00    reference energy to select bands
   IMIX   =      4    mixing-type and parameters
     AMIX     =   0.40;   BMIX     =  1.00
     AMIX_MAG =   1.60;   BMIX_MAG =  1.00
     AMIN     =   0.10
     WC   =   100.;   INIMIX=   1;  MIXPRE=   1;  MAXMIX= -45

 Intra band minimization:
   WEIMIN = 0.0000     energy-eigenvalue tresh-hold
   EBREAK =  0.13E-08  absolut break condition
   DEPER  =   0.30     relativ break condition  

   TIME   =   0.40     timestep for ELM

  volume/ion in A,a.u.               =    1183.11      7984.03
  Fermi-wavevector in a.u.,A,eV,Ry     =   0.220450  0.416590  0.661218  0.048598
  Thomas-Fermi vector in A             =   1.001172

 Write flags
   LWAVE        =      F    write WAVECAR
   LDOWNSAMPLE  =      F    k-point downsampling of WAVECAR
   LCHARG       =      F    write CHGCAR
   LVTOT        =      F    write LOCPOT, total local potential
   LVHAR        =      F    write LOCPOT, Hartree potential only
   LELF         =      F    write electronic localiz. function (ELF)
   LORBIT       =      0    0 simple, 1 ext, 2 COOP (PROOUT), +10 PAW based schemes


 Dipole corrections
   LMONO  =      F    monopole corrections only (constant potential shift)
   LDIPOL =      F    correct potential (dipole corrections)
   IDIPOL =      0    1-x, 2-y, 3-z, 4-all directions 
   EPSILON=  1.0000000 bulk dielectric constant

 Exchange correlation treatment:
   GGA     =    RE    GGA type
   LEXCH   =    40    internal setting for exchange type
   LIBXC   =     F    Libxc                    
   VOSKOWN =     0    Vosko Wilk Nusair interpolation
   LHFCALC =     F    Hartree Fock is set to
   LHFONE  =     F    Hartree Fock one center treatment
   AEXX    =    0.0000 exact exchange contribution

 Linear response parameters
   LEPSILON=     F    determine dielectric tensor
   LRPA    =     F    only Hartree local field effects (RPA)
   LNABLA  =     F    use nabla operator in PAW spheres
   LVEL    =     F    velocity operator in full k-point grid
   CSHIFT  =0.1000    complex shift for real part using Kramers Kronig
   OMEGAMAX=  -1.0    maximum frequency
   DEG_THRESHOLD= 0.2000000E-02 threshold for treating states as degnerate
   RTIME   =   -0.100 relaxation time in fs
  (WPLASMAI=    0.000 imaginary part of plasma frequency in eV, 0.658/RTIME)
   DFIELD  = 0.0000000 0.0000000 0.0000000 field for delta impulse in time

  Optional k-point grid parameters
   LKPOINTS_OPT  =     F    use optional k-point grid
   KPOINTS_OPT_MODE=     1    mode for optional k-point grid

 Orbital magnetization related:
   ORBITALMAG=     F  switch on orbital magnetization
   LCHIMAG   =     F  perturbation theory with respect to B field
   DQ        =  0.001000  dq finite difference perturbation B field
   LLRAUG    =     F  two centre corrections for induced B field
   LBONE     =     F  B-component reconstruction in AE one-centre
   LVGVCALC  =     T  calculate vGv susceptibility
   LVGVAPPL  =     F  apply vGv susceptibility instead of pGv for G=0

 Random number generation:
   RANDOM_GENERATOR = DEFAULT
   PCG_SEED         = not used


--------------------------------------------------------------------------------------------------------


 Static calculation
 charge density and potential will be updated during run
 non-spin polarized calculation
 Conjugate gradient for all bands (Freysoldt, et al. PRB 79, 241103 (2009))
 preconditioned conjugated gradient                                        
 perform sub-space diagonalisation
    before iterative eigenvector-optimisation
 modified Broyden-mixing scheme, WC =      100.0
 initial mixing is a Kerker type mixing with AMIX =  0.4000 and BMIX =      1.0000
 Hartree-type preconditioning will be used
 using additional bands            7
 reciprocal scheme for non local part
 use partial core corrections
 no Harris-corrections to forces 
 use gradient corrections 
 use of overlap-Matrix (Vanderbilt PP)
 Gauss-broadening in eV      SIGMA  =   0.01


--------------------------------------------------------------------------------------------------------


  energy-cutoff  :     1000.00
  volume of cell :    10648.00
      direct lattice vectors                 reciprocal lattice vectors
    22.000000000  0.000000000  0.000000000     0.045454545  0.000000000  0.000000000
     0.000000000 22.000000000  0.000000000     0.000000000  0.045454545  0.000000000
     0.000000000  0.000000000 22.000000000     0.000000000  0.000000000  0.045454545

  length of vectors
    22.000000000 22.000000000 22.000000000     0.045454545  0.045454545  0.045454545



 k-points in units of 2pi/SCALE and weight: auto                                    
   0.00000000  0.00000000  0.00000000       1.000

 k-points in reciprocal lattice and weights: auto                                    
   0.00000000  0.00000000  0.00000000       1.000

 position of ions in fractional coordinates (direct lattice) 
   0.50072341  0.53991886  0.53007841
   0.46052795  0.49531841  0.50746159
   0.49407295  0.46376023  0.46472023
   0.48281432  0.42578432  0.43561068
   0.41379341  0.48723250  0.52028114
   0.49238295  0.57421568  0.56438932
   0.58620659  0.47857705  0.43812114
   0.55002432  0.48997205  0.46407568
   0.55537523  0.53677205  0.50366250

 position of ions in cartesian coordinates  (Angst):
  11.01591500 11.87821500 11.66172500
  10.13161500 10.89700500 11.16415500
  10.86960500 10.20272500 10.22384500
  10.62191500  9.36725500  9.58343500
   9.10345500 10.71911500 11.44618500
  10.83242500 12.63274500 12.41656500
  12.89654500 10.52869500  9.63866500
  12.10053500 10.77938500 10.20966500
  12.21825500 11.80898500 11.08057500



--------------------------------------------------------------------------------------------------------


 use parallel FFT for orbitals z direction half grid
 k-point   1 :   0.0000 0.0000 0.0000  plane waves:  381993

 maximum and minimum number of plane-waves per node :      2992     2977

 maximum number of plane-waves:    381993
 maximum index in each direction: 
   IXMAX=   56   IYMAX=   56   IZMAX=   56
   IXMIN=  -56   IYMIN=  -56   IZMIN=    0


 parallel 3D FFT for wavefunctions:
    minimum data exchange during FFTs selected (reduces bandwidth)
 parallel 3D FFT for charge:
    minimum data exchange during FFTs selected (reduces bandwidth)


 total amount of memory used by VASP MPI-rank0    61522. kBytes
=======================================================================

   base      :      30000. kBytes
   nonl-proj :       1002. kBytes
   fftplans  :      10395. kBytes
   grid      :      19407. kBytes
   one-center:          1. kBytes
   wavefun   :        717. kBytes

     INWAV:  cpu time      0.0001: real time      0.0003
 Broyden mixing: mesh for mixing (old mesh)
   NGX =113   NGY =113   NGZ =113
  (NGX  =480   NGY  =480   NGZ  =480)
  gives a total of ****** points

 initial charge density was supplied:
 charge density of overlapping atoms calculated
 number of electron      26.0000000 magnetization 
 keeping initial charge density in first step


--------------------------------------------------------------------------------------------------------


 Maximum index for augmentation-charges            0 (set IRDMAX)


--------------------------------------------------------------------------------------------------------


 First call to EWALD:  gamma=   0.081
 Maximum number of real-space cells 3x 3x 3
 Maximum number of reciprocal cells 3x 3x 3

    FEWALD:  cpu time      0.0029: real time      0.0029


--------------------------------------- Ionic step        1  -------------------------------------------




--------------------------------------- Iteration      1(   1)  ---------------------------------------


    POTLOK:  cpu time      0.3087: real time      0.3092
    SETDIJ:  cpu time      0.0097: real time      0.0099
    TRIAL :  cpu time      0.2703: real time      0.2717
    CORREC:  cpu time      0.0019: real time      0.0021
    --------------------------------------------
      LOOP:  cpu time      0.5962: real time      0.5987

 eigenvalue-minimisations  :    56
 total energy-change (2. order) : 0.2496030E+03  (-0.6347826E+03)
 number of electron      26.0000000 magnetization 
 augmentation part       26.0000000 magnetization 

 Free energy of the ion-electron system (eV)
  ---------------------------------------------------
  alpha Z        PSCENC =         0.19661355
  Ewald energy   TEWEN  =      1675.06761068
  -Hartree energ DENC   =     -2384.33129516
  -exchange      EXHF   =         0.00000000
  -V(xc)+E(xc)   XCENC  =        63.02395229
  PAW double counting   =       762.01253228     -742.14246931
  entropy T*S    EENTRO =        -0.00158333
  eigenvalues    EBANDS =      -144.14563668
  atomic energy  EATOM  =      1019.92323204
  ---------------------------------------------------
  free energy    TOTEN  =       249.60295636 eV

  energy without entropy =      249.60453969  energy(sigma->0) =      249.60374802


--------------------------------------------------------------------------------------------------------




--------------------------------------- Iteration      1(   2)  ---------------------------------------


    TRIAL :  cpu time      0.2845: real time      0.2845
    CORREC:  cpu time      0.0001: real time      0.0001
    --------------------------------------------
      LOOP:  cpu time      0.2992: real time      0.3141

 eigenvalue-minimisations  :    76
 total energy-change (2. order) :-0.1753230E+03  (-0.1743949E+03)
 number of electron      26.0000000 magnetization 
 augmentation part       26.0000000 magnetization 

 Free energy of the ion-electron system (eV)
  ---------------------------------------------------
  alpha Z        PSCENC =         0.19661355
  Ewald energy   TEWEN  =      1675.06761068
  -Hartree energ DENC   =     -2384.33129516
  -exchange      EXHF   =         0.00000000
  -V(xc)+E(xc)   XCENC  =        63.02395229
  PAW double counting   =       762.01253228     -742.14246931
  entropy T*S    EENTRO =        -0.00000000
  eigenvalues    EBANDS =      -319.47017234
  atomic energy  EATOM  =      1019.92323204
  ---------------------------------------------------
  free energy    TOTEN  =        74.28000402 eV

  energy without entropy =       74.28000402  energy(sigma->0) =       74.28000402


--------------------------------------------------------------------------------------------------------




--------------------------------------- Iteration      1(   3)  ---------------------------------------


    TRIAL :  cpu time      0.2707: real time      0.2707
    CORREC:  cpu time      0.0001: real time      0.0001
    --------------------------------------------
      LOOP:  cpu time      0.2857: real time      0.3019

 eigenvalue-minimisations  :    72
 total energy-change (2. order) :-0.1057537E+03  (-0.1046176E+03)
 number of electron      26.0000000 magnetization 
 augmentation part       26.0000000 magnetization 

 Free energy of the ion-electron system (eV)
  ---------------------------------------------------
  alpha Z        PSCENC =         0.19661355
  Ewald energy   TEWEN  =      1675.06761068
  -Hartree energ DENC   =     -2384.33129516
  -exchange      EXHF   =         0.00000000
  -V(xc)+E(xc)   XCENC  =        63.02395229
  PAW double counting   =       762.01253228     -742.14246931
  entropy T*S    EENTRO =        -0.00000000
  eigenvalues    EBANDS =      -425.22390379
  atomic energy  EATOM  =      1019.92323204
  ---------------------------------------------------
  free energy    TOTEN  =       -31.47372742 eV

  energy without entropy =      -31.47372742  energy(sigma->0) =      -31.47372742


--------------------------------------------------------------------------------------------------------




--------------------------------------- Iteration      1(   4)  ---------------------------------------


    TRIAL :  cpu time      0.2010: real time      0.2010
    CORREC:  cpu time      0.0001: real time      0.0001
    --------------------------------------------
      LOOP:  cpu time      0.2306: real time      0.2311

 eigenvalue-minimisations  :    48
 total energy-change (2. order) :-0.2881434E+02  (-0.2880796E+02)
 number of electron      26.0000000 magnetization 
 augmentation part       26.0000000 magnetization 

 Free energy of the ion-electron system (eV)
  ---------------------------------------------------
  alpha Z        PSCENC =         0.19661355
  Ewald energy   TEWEN  =      1675.06761068
  -Hartree energ DENC   =     -2384.33129516
  -exchange      EXHF   =         0.00000000
  -V(xc)+E(xc)   XCENC  =        63.02395229
  PAW double counting   =       762.01253228     -742.14246931
  entropy T*S    EENTRO =        -0.00000000
  eigenvalues    EBANDS =      -454.03824241
  atomic energy  EATOM  =      1019.92323204
  ---------------------------------------------------
  free energy    TOTEN  =       -60.28806604 eV

  energy without entropy =      -60.28806604  energy(sigma->0) =      -60.28806604


--------------------------------------------------------------------------------------------------------




--------------------------------------- Iteration      1(   5)  ---------------------------------------


    TRIAL :  cpu time      0.2005: real time      0.2005
    CORREC:  cpu time      0.0001: real time      0.0001
    CHARGE:  cpu time      0.0709: real time      0.0720
    --------------------------------------------
      LOOP:  cpu time      0.3012: real time      0.3025

 eigenvalue-minimisations  :    48
 total energy-change (2. order) :-0.1282195E+01  (-0.1272767E+01)
 number of electron      26.0000000 magnetization 
 augmentation part       -0.0612996 magnetization 

 Free energy of the ion-electron system (eV)
  ---------------------------------------------------
  alpha Z        PSCENC =         0.19661355
  Ewald energy   TEWEN  =      1675.06761068
  -Hartree energ DENC   =     -2384.33129516
  -exchange      EXHF   =         0.00000000
  -V(xc)+E(xc)   XCENC  =        63.02395229
  PAW double counting   =       762.01253228     -742.14246931
  entropy T*S    EENTRO =        -0.00000000
  eigenvalues    EBANDS =      -455.32043762
  atomic energy  EATOM  =      1019.92323204
  ---------------------------------------------------
  free energy    TOTEN  =       -61.57026126 eV

  energy without entropy =      -61.57026126  energy(sigma->0) =      -61.57026126


--------------------------------------------------------------------------------------------------------




--------------------------------------- Iteration      1(   6)  ---------------------------------------


    POTLOK:  cpu time      0.3041: real time      0.3045
    SETDIJ:  cpu time      0.0024: real time      0.0024
    TRIAL :  cpu time      0.1227: real time      0.1241
    CORREC:  cpu time      0.3846: real time      0.3852
    CHARGE:  cpu time      0.0431: real time      0.0432
    --------------------------------------------
      LOOP:  cpu time      0.8711: real time      0.8901

 eigenvalue-minimisations  :     0
 total energy-change (2. order) : 0.9851069E+01  (-0.3987940E+01)
 number of electron      26.0000000 magnetization 
 augmentation part       -0.0660172 magnetization 

 Free energy of the ion-electron system (eV)
  ---------------------------------------------------
  alpha Z        PSCENC =         0.19661355
  Ewald energy   TEWEN  =      1675.06761068
  -Hartree energ DENC   =     -2598.04478233
  -exchange      EXHF   =         0.00000000
  -V(xc)+E(xc)   XCENC  =        71.33520407
  PAW double counting   =      9612.80497679    -9593.61924864
  entropy T*S    EENTRO =        -0.00000000
  eigenvalues    EBANDS =      -239.38279891
  atomic energy  EATOM  =      1019.92323204
  ---------------------------------------------------
  free energy    TOTEN  =       -51.71919275 eV

  energy without entropy =      -51.71919275  energy(sigma->0) =      -51.71919275


--------------------------------------------------------------------------------------------------------




--------------------------------------- Iteration      1(   7)  ---------------------------------------


    POTLOK:  cpu time      0.3021: real time      0.3023
    SETDIJ:  cpu time      0.0026: real time      0.0026
    TRIAL :  cpu time      0.1041: real time      0.1041
    CORREC:  cpu time      0.3758: real time      0.3760
    CHARGE:  cpu time      0.0431: real time      0.0431
    --------------------------------------------
      LOOP:  cpu time      0.8572: real time      0.8577

 eigenvalue-minimisations  :     0
 total energy-change (2. order) :-0.4023894E+01  (-0.4285076E+00)
 number of electron      26.0000000 magnetization 
 augmentation part       -0.0723437 magnetization 

 Free energy of the ion-electron system (eV)
  ---------------------------------------------------
  alpha Z        PSCENC =         0.19661355
  Ewald energy   TEWEN  =      1675.06761068
  -Hartree energ DENC   =     -2501.69154469
  -exchange      EXHF   =         0.00000000
  -V(xc)+E(xc)   XCENC  =        67.99595064
  PAW double counting   =     11530.76479003   -11511.27783554
  entropy T*S    EENTRO =        -0.00000000
  eigenvalues    EBANDS =      -336.72190363
  atomic energy  EATOM  =      1019.92323204
  ---------------------------------------------------
  free energy    TOTEN  =       -55.74308694 eV

  energy without entropy =      -55.74308694  energy(sigma->0) =      -55.74308694


--------------------------------------------------------------------------------------------------------




--------------------------------------- Iteration      1(   8)  ---------------------------------------


    POTLOK:  cpu time      0.3015: real time      0.3015
    SETDIJ:  cpu time      0.0024: real time      0.0024
    TRIAL :  cpu time      0.1043: real time      0.1046
    CORREC:  cpu time      0.3782: real time      0.3782
    CHARGE:  cpu time      0.0441: real time      0.0442
    --------------------------------------------
      LOOP:  cpu time      0.8472: real time      0.8620

 eigenvalue-minimisations  :     0
 total energy-change (2. order) :-0.4304553E+00  (-0.1777259E+00)
 number of electron      26.0000000 magnetization 
 augmentation part       -0.0724832 magnetization 

 Free energy of the ion-electron system (eV)
  ---------------------------------------------------
  alpha Z        PSCENC =         0.19661355
  Ewald energy   TEWEN  =      1675.06761068
  -Hartree energ DENC   =     -2506.01913316
  -exchange      EXHF   =         0.00000000
  -V(xc)+E(xc)   XCENC  =        68.19397072
  PAW double counting   =     12071.25990062   -12051.75030220
  entropy T*S    EENTRO =        -0.00000000
  eigenvalues    EBANDS =      -333.04543447
  atomic energy  EATOM  =      1019.92323204
  ---------------------------------------------------
  free energy    TOTEN  =       -56.17354222 eV

  energy without entropy =      -56.17354222  energy(sigma->0) =      -56.17354222


--------------------------------------------------------------------------------------------------------




--------------------------------------- Iteration      1(   9)  ---------------------------------------


    POTLOK:  cpu time      0.3077: real time      0.3077
    SETDIJ:  cpu time      0.0026: real time      0.0026
    TRIAL :  cpu time      0.1045: real time      0.1045
    CORREC:  cpu time      0.3773: real time      0.3778
    CHARGE:  cpu time      0.0430: real time      0.0430
    --------------------------------------------
      LOOP:  cpu time      0.8502: real time      0.8674

 eigenvalue-minimisations  :     0
 total energy-change (2. order) :-0.1767588E+00  (-0.8140962E-01)
 number of electron      26.0000000 magnetization 
 augmentation part       -0.0727881 magnetization 

 Free energy of the ion-electron system (eV)
  ---------------------------------------------------
  alpha Z        PSCENC =         0.19661355
  Ewald energy   TEWEN  =      1675.06761068
  -Hartree energ DENC   =     -2503.05003874
  -exchange      EXHF   =         0.00000000
  -V(xc)+E(xc)   XCENC  =        68.09457828
  PAW double counting   =     12395.55230339   -12376.01893051
  entropy T*S    EENTRO =        -0.00000000
  eigenvalues    EBANDS =      -336.11566965
  atomic energy  EATOM  =      1019.92323204
  ---------------------------------------------------
  free energy    TOTEN  =       -56.35030098 eV

  energy without entropy =      -56.35030098  energy(sigma->0) =      -56.35030098


--------------------------------------------------------------------------------------------------------




--------------------------------------- Iteration      1(  10)  ---------------------------------------


    POTLOK:  cpu time      0.3019: real time      0.3019
    SETDIJ:  cpu time      0.0025: real time      0.0025
    TRIAL :  cpu time      0.1039: real time      0.1039
    CORREC:  cpu time      0.3777: real time      0.3780
    CHARGE:  cpu time      0.0429: real time      0.0429
    --------------------------------------------
      LOOP:  cpu time      0.8411: real time      0.8585

 eigenvalue-minimisations  :     0
 total energy-change (2. order) :-0.8050047E-01  (-0.3030314E-01)
 number of electron      26.0000000 magnetization 
 augmentation part       -0.0727522 magnetization 

 Free energy of the ion-electron system (eV)
  ---------------------------------------------------
  alpha Z        PSCENC =         0.19661355
  Ewald energy   TEWEN  =      1675.06761068
  -Hartree energ DENC   =     -2500.30474522
  -exchange      EXHF   =         0.00000000
  -V(xc)+E(xc)   XCENC  =        68.00359756
  PAW double counting   =     12325.27922367   -12305.73979220
  entropy T*S    EENTRO =        -0.00000000
  eigenvalues    EBANDS =      -338.85654153
  atomic energy  EATOM  =      1019.92323204
  ---------------------------------------------------
  free energy    TOTEN  =       -56.43080145 eV

  energy without entropy =      -56.43080145  energy(sigma->0) =      -56.43080145


--------------------------------------------------------------------------------------------------------




--------------------------------------- Iteration      1(  11)  ---------------------------------------


    POTLOK:  cpu time      0.3050: real time      0.3051
    SETDIJ:  cpu time      0.0025: real time      0.0025
    TRIAL :  cpu time      0.1063: real time      0.1063
    CORREC:  cpu time      0.3755: real time      0.3755
    CHARGE:  cpu time      0.0428: real time      0.0435
    --------------------------------------------
      LOOP:  cpu time      0.8459: real time      0.8632

 eigenvalue-minimisations  :     0
 total energy-change (2. order) :-0.3016105E-01  (-0.9740867E-02)
 number of electron      26.0000000 magnetization 
 augmentation part       -0.0724863 magnetization 

 Free energy of the ion-electron system (eV)
  ---------------------------------------------------
  alpha Z        PSCENC =         0.19661355
  Ewald energy   TEWEN  =      1675.06761068
  -Hartree energ DENC   =     -2500.78294458
  -exchange      EXHF   =         0.00000000
  -V(xc)+E(xc)   XCENC  =        68.02501362
  PAW double counting   =     12108.66289621   -12089.13329295
  entropy T*S    EENTRO =        -0.00000000
  eigenvalues    EBANDS =      -338.42009105
  atomic energy  EATOM  =      1019.92323204
  ---------------------------------------------------
  free energy    TOTEN  =       -56.46096249 eV

  energy without entropy =      -56.46096249  energy(sigma->0) =      -56.46096249


--------------------------------------------------------------------------------------------------------




--------------------------------------- Iteration      1(  12)  ---------------------------------------


    POTLOK:  cpu time      0.2995: real time      0.2995
    SETDIJ:  cpu time      0.0028: real time      0.0028
    TRIAL :  cpu time      0.1041: real time      0.1041
    CORREC:  cpu time      0.3765: real time      0.3765
    CHARGE:  cpu time      0.0433: real time      0.0433
    --------------------------------------------
      LOOP:  cpu time      0.8422: real time      0.8568

 eigenvalue-minimisations  :     0
 total energy-change (2. order) :-0.9732014E-02  (-0.3338458E-02)
 number of electron      26.0000000 magnetization 
 augmentation part       -0.0724163 magnetization 

 Free energy of the ion-electron system (eV)
  ---------------------------------------------------
  alpha Z        PSCENC =         0.19661355
  Ewald energy   TEWEN  =      1675.06761068
  -Hartree energ DENC   =     -2500.44531536
  -exchange      EXHF   =         0.00000000
  -V(xc)+E(xc)   XCENC  =        68.01193572
  PAW double counting   =     12011.62070693   -11992.09638995
  entropy T*S    EENTRO =        -0.00000000
  eigenvalues    EBANDS =      -338.74908811
  atomic energy  EATOM  =      1019.92323204
  ---------------------------------------------------
  free energy    TOTEN  =       -56.47069451 eV

  energy without entropy =      -56.47069451  energy(sigma->0) =      -56.47069451


--------------------------------------------------------------------------------------------------------




--------------------------------------- Iteration      1(  13)  ---------------------------------------


    POTLOK:  cpu time      0.3000: real time      0.3006
    SETDIJ:  cpu time      0.0027: real time      0.0027
    TRIAL :  cpu time      0.1054: real time      0.1054
    CORREC:  cpu time      0.3771: real time      0.3772
    CHARGE:  cpu time      0.0428: real time      0.0428
    --------------------------------------------
      LOOP:  cpu time      0.8436: real time      0.8585

 eigenvalue-minimisations  :     0
 total energy-change (2. order) :-0.3340202E-02  (-0.1356673E-02)
 number of electron      26.0000000 magnetization 
 augmentation part       -0.0723400 magnetization 

 Free energy of the ion-electron system (eV)
  ---------------------------------------------------
  alpha Z        PSCENC =         0.19661355
  Ewald energy   TEWEN  =      1675.06761068
  -Hartree energ DENC   =     -2500.12112561
  -exchange      EXHF   =         0.00000000
  -V(xc)+E(xc)   XCENC  =        67.99806630
  PAW double counting   =     12002.22053064   -11982.69775068
  entropy T*S    EENTRO =        -0.00000000
  eigenvalues    EBANDS =      -339.06121163
  atomic energy  EATOM  =      1019.92323204
  ---------------------------------------------------
  free energy    TOTEN  =       -56.47403471 eV

  energy without entropy =      -56.47403471  energy(sigma->0) =      -56.47403471


--------------------------------------------------------------------------------------------------------




--------------------------------------- Iteration      1(  14)  ---------------------------------------


    POTLOK:  cpu time      0.2988: real time      0.2992
    SETDIJ:  cpu time      0.0025: real time      0.0025
    TRIAL :  cpu time      0.1040: real time      0.1040
    CORREC:  cpu time      0.3744: real time      0.3744
    CHARGE:  cpu time      0.0439: real time      0.0439
    --------------------------------------------
      LOOP:  cpu time      0.8370: real time      0.8535

 eigenvalue-minimisations  :     0
 total energy-change (2. order) :-0.1355352E-02  (-0.6081716E-03)
 number of electron      26.0000000 magnetization 
 augmentation part       -0.0723015 magnetization 

 Free energy of the ion-electron system (eV)
  ---------------------------------------------------
  alpha Z        PSCENC =         0.19661355
  Ewald energy   TEWEN  =      1675.06761068
  -Hartree energ DENC   =     -2500.32592238
  -exchange      EXHF   =         0.00000000
  -V(xc)+E(xc)   XCENC  =        68.00343594
  PAW double counting   =     12022.61732329   -12003.09539866
  entropy T*S    EENTRO =        -0.00000000
  eigenvalues    EBANDS =      -338.86228452
  atomic energy  EATOM  =      1019.92323204
  ---------------------------------------------------
  free energy    TOTEN  =       -56.47539006 eV

  energy without entropy =      -56.47539006  energy(sigma->0) =      -56.47539006


--------------------------------------------------------------------------------------------------------




--------------------------------------- Iteration      1(  15)  ---------------------------------------


    POTLOK:  cpu time      0.3042: real time      0.3042
    SETDIJ:  cpu time      0.0026: real time      0.0026
    TRIAL :  cpu time      0.1045: real time      0.1051
    CORREC:  cpu time      0.3694: real time      0.3694
    CHARGE:  cpu time      0.0425: real time      0.0425
    --------------------------------------------
      LOOP:  cpu time      0.8386: real time      0.8543

 eigenvalue-minimisations  :     0
 total energy-change (2. order) :-0.6091438E-03  (-0.2627336E-03)
 number of electron      26.0000000 magnetization 
 augmentation part       -0.0722639 magnetization 

 Free energy of the ion-electron system (eV)
  ---------------------------------------------------
  alpha Z        PSCENC =         0.19661355
  Ewald energy   TEWEN  =      1675.06761068
  -Hartree energ DENC   =     -2500.38459087
  -exchange      EXHF   =         0.00000000
  -V(xc)+E(xc)   XCENC  =        68.00461276
  PAW double counting   =     12048.80848642   -12029.28615986
  entropy T*S    EENTRO =        -0.00000000
  eigenvalues    EBANDS =      -338.80580392
  atomic energy  EATOM  =      1019.92323204
  ---------------------------------------------------
  free energy    TOTEN  =       -56.47599921 eV

  energy without entropy =      -56.47599921  energy(sigma->0) =      -56.47599921


--------------------------------------------------------------------------------------------------------




--------------------------------------- Iteration      1(  16)  ---------------------------------------


    POTLOK:  cpu time      0.2944: real time      0.2944
    SETDIJ:  cpu time      0.0027: real time      0.0027
    TRIAL :  cpu time      0.1042: real time      0.1042
    CORREC:  cpu time      0.3661: real time      0.3668
    CHARGE:  cpu time      0.0427: real time      0.0427
    --------------------------------------------
      LOOP:  cpu time      0.8243: real time      0.8408

 eigenvalue-minimisations  :     0
 total energy-change (2. order) :-0.2624109E-03  (-0.9242239E-04)
 number of electron      26.0000000 magnetization 
 augmentation part       -0.0722227 magnetization 

 Free energy of the ion-electron system (eV)
  ---------------------------------------------------
  alpha Z        PSCENC =         0.19661355
  Ewald energy   TEWEN  =      1675.06761068
  -Hartree energ DENC   =     -2500.44658330
  -exchange      EXHF   =         0.00000000
  -V(xc)+E(xc)   XCENC  =        68.00660810
  PAW double counting   =     12059.55373058   -12040.03101828
  entropy T*S    EENTRO =        -0.00000000
  eigenvalues    EBANDS =      -338.74645498
  atomic energy  EATOM  =      1019.92323204
  ---------------------------------------------------
  free energy    TOTEN  =       -56.47626162 eV

  energy without entropy =      -56.47626162  energy(sigma->0) =      -56.47626162


--------------------------------------------------------------------------------------------------------




--------------------------------------- Iteration      1(  17)  ---------------------------------------


    POTLOK:  cpu time      0.2919: real time      0.2920
    SETDIJ:  cpu time      0.0025: real time      0.0025
    TRIAL :  cpu time      0.1066: real time      0.1066
    CORREC:  cpu time      0.3777: real time      0.3782
    CHARGE:  cpu time      0.0420: real time      0.0420
    --------------------------------------------
      LOOP:  cpu time      0.8465: real time      0.8508

 eigenvalue-minimisations  :     0
 total energy-change (2. order) :-0.9245038E-04  (-0.3040100E-04)
 number of electron      26.0000000 magnetization 
 augmentation part       -0.0722112 magnetization 

 Free energy of the ion-electron system (eV)
  ---------------------------------------------------
  alpha Z        PSCENC =         0.19661355
  Ewald energy   TEWEN  =      1675.06761068
  -Hartree energ DENC   =     -2500.50444722
  -exchange      EXHF   =         0.00000000
  -V(xc)+E(xc)   XCENC  =        68.00874126
  PAW double counting   =     12057.94959751   -12038.42681230
  entropy T*S    EENTRO =        -0.00000000
  eigenvalues    EBANDS =      -338.69088958
  atomic energy  EATOM  =      1019.92323204
  ---------------------------------------------------
  free energy    TOTEN  =       -56.47635407 eV

  energy without entropy =      -56.47635407  energy(sigma->0) =      -56.47635407


--------------------------------------------------------------------------------------------------------




--------------------------------------- Iteration      1(  18)  ---------------------------------------


    POTLOK:  cpu time      0.2890: real time      0.2890
    SETDIJ:  cpu time      0.0025: real time      0.0025
    TRIAL :  cpu time      0.1037: real time      0.1037
    CORREC:  cpu time      0.3671: real time      0.3671
    CHARGE:  cpu time      0.0430: real time      0.0430
    --------------------------------------------
      LOOP:  cpu time      0.8202: real time      0.8354

 eigenvalue-minimisations  :     0
 total energy-change (2. order) :-0.3054863E-04  (-0.1117444E-04)
 number of electron      26.0000000 magnetization 
 augmentation part       -0.0722087 magnetization 

 Free energy of the ion-electron system (eV)
  ---------------------------------------------------
  alpha Z        PSCENC =         0.19661355
  Ewald energy   TEWEN  =      1675.06761068
  -Hartree energ DENC   =     -2500.49595735
  -exchange      EXHF   =         0.00000000
  -V(xc)+E(xc)   XCENC  =        68.00863586
  PAW double counting   =     12055.04276375   -12035.51989652
  entropy T*S    EENTRO =        -0.00000000
  eigenvalues    EBANDS =      -338.69938662
  atomic energy  EATOM  =      1019.92323204
  ---------------------------------------------------
  free energy    TOTEN  =       -56.47638462 eV

  energy without entropy =      -56.47638462  energy(sigma->0) =      -56.47638462


--------------------------------------------------------------------------------------------------------




--------------------------------------- Iteration      1(  19)  ---------------------------------------


    POTLOK:  cpu time      0.2895: real time      0.2895
    SETDIJ:  cpu time      0.0026: real time      0.0026
    TRIAL :  cpu time      0.1044: real time      0.1045
    CORREC:  cpu time      0.3638: real time      0.3638
    CHARGE:  cpu time      0.0421: real time      0.0421
    --------------------------------------------
      LOOP:  cpu time      0.8240: real time      0.8327

 eigenvalue-minimisations  :     0
 total energy-change (2. order) :-0.1114220E-04  (-0.4331083E-05)
 number of electron      26.0000000 magnetization 
 augmentation part       -0.0722181 magnetization 

 Free energy of the ion-electron system (eV)
  ---------------------------------------------------
  alpha Z        PSCENC =         0.19661355
  Ewald energy   TEWEN  =      1675.06761068
  -Hartree energ DENC   =     -2500.50635298
  -exchange      EXHF   =         0.00000000
  -V(xc)+E(xc)   XCENC  =        68.00919244
  PAW double counting   =     12052.86863588   -12033.34580848
  entropy T*S    EENTRO =        -0.00000000
  eigenvalues    EBANDS =      -338.68951887
  atomic energy  EATOM  =      1019.92323204
  ---------------------------------------------------
  free energy    TOTEN  =       -56.47639576 eV

  energy without entropy =      -56.47639576  energy(sigma->0) =      -56.47639576


--------------------------------------------------------------------------------------------------------




--------------------------------------- Iteration      1(  20)  ---------------------------------------


    POTLOK:  cpu time      0.2888: real time      0.2892
    SETDIJ:  cpu time      0.0032: real time      0.0031
    TRIAL :  cpu time      0.1056: real time      0.1057
    CORREC:  cpu time      0.3696: real time      0.3696
    CHARGE:  cpu time      0.0429: real time      0.0429
    --------------------------------------------
      LOOP:  cpu time      0.8250: real time      0.8516

 eigenvalue-minimisations  :     0
 total energy-change (2. order) :-0.4277033E-05  (-0.1608539E-05)
 number of electron      26.0000000 magnetization 
 augmentation part       -0.0722271 magnetization 

 Free energy of the ion-electron system (eV)
  ---------------------------------------------------
  alpha Z        PSCENC =         0.19661355
  Ewald energy   TEWEN  =      1675.06761068
  -Hartree energ DENC   =     -2500.49512454
  -exchange      EXHF   =         0.00000000
  -V(xc)+E(xc)   XCENC  =        68.00888493
  PAW double counting   =     12052.09797273   -12032.57513346
  entropy T*S    EENTRO =        -0.00000000
  eigenvalues    EBANDS =      -338.70045596
  atomic energy  EATOM  =      1019.92323204
  ---------------------------------------------------
  free energy    TOTEN  =       -56.47640004 eV

  energy without entropy =      -56.47640004  energy(sigma->0) =      -56.47640004


--------------------------------------------------------------------------------------------------------




--------------------------------------- Iteration      1(  21)  ---------------------------------------


    POTLOK:  cpu time      0.2886: real time      0.2886
    SETDIJ:  cpu time      0.0027: real time      0.0027
    TRIAL :  cpu time      0.1030: real time      0.1036
    CORREC:  cpu time      0.3651: real time      0.3652
    CHARGE:  cpu time      0.0435: real time      0.0435
    --------------------------------------------
      LOOP:  cpu time      0.8332: real time      0.8343

 eigenvalue-minimisations  :     0
 total energy-change (2. order) :-0.1544393E-05  (-0.5948605E-06)
 number of electron      26.0000000 magnetization 
 augmentation part       -0.0722323 magnetization 

 Free energy of the ion-electron system (eV)
  ---------------------------------------------------
  alpha Z        PSCENC =         0.19661355
  Ewald energy   TEWEN  =      1675.06761068
  -Hartree energ DENC   =     -2500.49438628
  -exchange      EXHF   =         0.00000000
  -V(xc)+E(xc)   XCENC  =        68.00885370
  PAW double counting   =     12051.92585302   -12032.40301473
  entropy T*S    EENTRO =        -0.00000000
  eigenvalues    EBANDS =      -338.70116356
  atomic energy  EATOM  =      1019.92323204
  ---------------------------------------------------
  free energy    TOTEN  =       -56.47640158 eV

  energy without entropy =      -56.47640158  energy(sigma->0) =      -56.47640158


--------------------------------------------------------------------------------------------------------




--------------------------------------- Iteration      1(  22)  ---------------------------------------


    POTLOK:  cpu time      0.2893: real time      0.2893
    SETDIJ:  cpu time      0.0025: real time      0.0025
    TRIAL :  cpu time      0.1043: real time      0.1043
    CORREC:  cpu time      0.3639: real time      0.3644
    CHARGE:  cpu time      0.0431: real time      0.0431
    --------------------------------------------
      LOOP:  cpu time      0.8190: real time      0.8349

 eigenvalue-minimisations  :     0
 total energy-change (2. order) :-0.5675010E-06  (-0.2394597E-06)
 number of electron      26.0000000 magnetization 
 augmentation part       -0.0722359 magnetization 

 Free energy of the ion-electron system (eV)
  ---------------------------------------------------
  alpha Z        PSCENC =         0.19661355
  Ewald energy   TEWEN  =      1675.06761068
  -Hartree energ DENC   =     -2500.49302457
  -exchange      EXHF   =         0.00000000
  -V(xc)+E(xc)   XCENC  =        68.00878021
  PAW double counting   =     12051.79934036   -12032.27650319
  entropy T*S    EENTRO =        -0.00000000
  eigenvalues    EBANDS =      -338.70245122
  atomic energy  EATOM  =      1019.92323204
  ---------------------------------------------------
  free energy    TOTEN  =       -56.47640215 eV

  energy without entropy =      -56.47640215  energy(sigma->0) =      -56.47640215


--------------------------------------------------------------------------------------------------------




--------------------------------------- Iteration      1(  23)  ---------------------------------------


    POTLOK:  cpu time      0.2886: real time      0.2886
    SETDIJ:  cpu time      0.0026: real time      0.0026
    TRIAL :  cpu time      0.1040: real time      0.1040
    CORREC:  cpu time      0.3637: real time      0.3644
    CHARGE:  cpu time      0.0430: real time      0.0430
    --------------------------------------------
      LOOP:  cpu time      0.8183: real time      0.8332

 eigenvalue-minimisations  :     0
 total energy-change (2. order) :-0.2317047E-06  (-0.1063688E-06)
 number of electron      26.0000000 magnetization 
 augmentation part       -0.0722365 magnetization 

 Free energy of the ion-electron system (eV)
  ---------------------------------------------------
  alpha Z        PSCENC =         0.19661355
  Ewald energy   TEWEN  =      1675.06761068
  -Hartree energ DENC   =     -2500.48997138
  -exchange      EXHF   =         0.00000000
  -V(xc)+E(xc)   XCENC  =        68.00864583
  PAW double counting   =     12051.78242238   -12032.25957603
  entropy T*S    EENTRO =        -0.00000000
  eigenvalues    EBANDS =      -338.70537943
  atomic energy  EATOM  =      1019.92323204
  ---------------------------------------------------
  free energy    TOTEN  =       -56.47640238 eV

  energy without entropy =      -56.47640238  energy(sigma->0) =      -56.47640238


--------------------------------------------------------------------------------------------------------




--------------------------------------- Iteration      1(  24)  ---------------------------------------


    POTLOK:  cpu time      0.2923: real time      0.2923
    SETDIJ:  cpu time      0.0027: real time      0.0027
    TRIAL :  cpu time      0.1039: real time      0.1039
    CORREC:  cpu time      0.3643: real time      0.3643
    EDDIAG:  cpu time      0.0587: real time      0.0599
    CHARGE:  cpu time      0.0422: real time      0.0422
    --------------------------------------------
      LOOP:  cpu time      0.8791: real time      0.8958

 eigenvalue-minimisations  :     0
 total energy-change (2. order) :-0.9991345E-07  (-0.3816466E-07)
 number of electron      26.0000000 magnetization 
 augmentation part       -0.0722364 magnetization 

 Free energy of the ion-electron system (eV)
  ---------------------------------------------------
  alpha Z        PSCENC =         0.19661355
  Ewald energy   TEWEN  =      1675.06761068
  -Hartree energ DENC   =     -2500.49241652
  -exchange      EXHF   =         0.00000000
  -V(xc)+E(xc)   XCENC  =        68.00871470
  PAW double counting   =     12051.77139249   -12032.24855108
  entropy T*S    EENTRO =        -0.00000000
  eigenvalues    EBANDS =      -338.70299833
  atomic energy  EATOM  =      1019.92323204
  ---------------------------------------------------
  free energy    TOTEN  =       -56.47640248 eV

  energy without entropy =      -56.47640248  energy(sigma->0) =      -56.47640248


--------------------------------------------------------------------------------------------------------


  average scaling for gradient   0.9604


 average (electrostatic) potential at core
  the test charge radii are     0.5770  0.4325  0.5902
  (the norm of the test charge is              1.0000)
       1 -86.5765       2 -86.1035       3 -87.1484       4 -45.9774       5 -45.3603
       6 -45.2659       7 -48.1015       8-105.6713       9-103.8508



 E-fermi :  -5.9617     XC(G=0):  -0.1449     alpha+bet : -0.0573

 Fermi energy:        -5.9616986193

 k-point     1 :       0.0000    0.0000    0.0000
  band No.  band energies     occupation 
      1     -26.1547      2.00000
      2     -20.2770      2.00000
      3     -19.2897      2.00000
      4     -15.0791      2.00000
      5     -14.6532      2.00000
      6     -13.3639      2.00000
      7     -10.8157      2.00000
      8     -10.6507      2.00000
      9     -10.3781      2.00000
     10      -9.5966      2.00000
     11      -6.7309      2.00000
     12      -6.3001      2.00000
     13      -6.0621      2.00000
     14      -0.6577      0.00000
     15      -0.6143      0.00000
     16      -0.1004      0.00000
     17       0.0770      0.00000
     18       0.1882      0.00000
     19       0.2131      0.00000
     20       0.3980      0.00000


--------------------------------------------------------------------------------------------------------


 soft charge-density along one line, spin component           1
         0         1         2         3         4         5         6         7         8         9
 total charge-density along one line

 pseudopotential strength for first ion, spin component:           1
 12.752  21.461  -0.000  -0.003   0.006  -0.000  -0.005   0.010
 21.461  36.117  -0.000  -0.004   0.010  -0.001  -0.008   0.017
 -0.000  -0.000  -3.112   0.000   0.000  -5.578   0.000   0.000
 -0.003  -0.004   0.000  -3.112   0.000   0.000  -5.579   0.000
  0.006   0.010   0.000   0.000  -3.112   0.000   0.000  -5.579
 -0.000  -0.001  -5.578   0.000   0.000  -9.977   0.000   0.000
 -0.005  -0.008   0.000  -5.579   0.000   0.000  -9.978   0.001
  0.010   0.017   0.000   0.000  -5.579   0.000   0.001  -9.979
 total augmentation occupancy for first ion, spin component:           1
  8.486  -3.063  -0.588  -0.934   0.941   0.272   0.444  -0.462
 -3.063   1.153   0.287   0.478  -0.511  -0.130  -0.221   0.240
 -0.588   0.287   5.815   1.791   0.773  -1.883  -0.717  -0.315
 -0.934   0.478   1.791   5.533  -1.123  -0.717  -1.785   0.490
  0.941  -0.511   0.773  -1.123   7.650  -0.315   0.490  -2.721
  0.272  -0.130  -1.883  -0.717  -0.315   0.624   0.275   0.123
  0.444  -0.221  -0.717  -1.785   0.490   0.275   0.592  -0.205
 -0.462   0.240  -0.315   0.490  -2.721   0.123  -0.205   0.987


------------------------ aborting loop because EDIFF is reached ----------------------------------------


    FORLOC:  cpu time      0.0168: real time      0.0168
    FORNL :  cpu time      0.0142: real time      0.0147
    FORCOR:  cpu time      0.2528: real time      0.2528
    OFIELD:  cpu time      0.0042: real time      0.0044

 VOLUME and BASIS-vectors are now :
 -----------------------------------------------------------------------------
  energy-cutoff  :     1000.00
  volume of cell :    10648.00
      direct lattice vectors                 reciprocal lattice vectors
    22.000000000  0.000000000  0.000000000     0.045454545  0.000000000  0.000000000
     0.000000000 22.000000000  0.000000000     0.000000000  0.045454545  0.000000000
     0.000000000  0.000000000 22.000000000     0.000000000  0.000000000  0.045454545

  length of vectors
    22.000000000 22.000000000 22.000000000     0.045454545  0.045454545  0.045454545


 FORCES acting on ions:
    Electron-Ion                     Ewald-Force                    Non-Local-Force
 -----------------------------------------------------------------------------------------------
   0.838E+02 -.136E+03 -.158E+03   -.870E+02 0.136E+03 0.159E+03   0.311E+01 0.136E+00 -.122E+01
   0.204E+03 0.315E+02 -.600E+02   -.205E+03 -.310E+02 0.607E+02   0.226E+00 -.570E+00 -.613E+00
   0.966E+02 0.170E+03 0.111E+03   -.104E+03 -.172E+03 -.109E+03   0.780E+01 0.171E+01 -.181E+01
   0.230E+02 0.628E+02 0.463E+02   -.245E+02 -.675E+02 -.498E+02   0.145E+01 0.459E+01 0.348E+01
   0.754E+02 0.128E+02 -.209E+02   -.811E+02 -.138E+02 0.225E+02   0.559E+01 0.958E+00 -.154E+01
   0.168E+02 -.556E+02 -.570E+02   -.178E+02 0.598E+02 0.613E+02   0.989E+00 -.414E+01 -.413E+01
   -.786E+02 0.272E+02 0.585E+02   0.847E+02 -.291E+02 -.629E+02   -.608E+01 0.185E+01 0.431E+01
   -.175E+03 0.929E+02 0.159E+03   0.175E+03 -.958E+02 -.161E+03   0.651E+00 0.304E+01 0.236E+01
   -.229E+03 -.187E+03 -.685E+02   0.260E+03 0.214E+03 0.794E+02   -.310E+02 -.274E+02 -.112E+02
 -----------------------------------------------------------------------------------------------
   0.172E+02 0.199E+02 0.104E+02   0.000E+00 0.000E+00 0.568E-13   -.172E+02 -.199E+02 -.104E+02


 POSITION                                       TOTAL-FORCE (eV/Angst)
 -----------------------------------------------------------------------------------
     11.01592     11.87822     11.66173        -0.073384      0.066304      0.086976
     10.13162     10.89700     11.16415        -0.222211      0.000069      0.092533
     10.86960     10.20273     10.22385         0.012708     -0.135442     -0.124885
     10.62191      9.36726      9.58344        -0.031422     -0.102932     -0.081223
      9.10345     10.71911     11.44618        -0.119536     -0.027729      0.031761
     10.83243     12.63274     12.41656        -0.015186      0.089991      0.087315
     12.89655     10.52869      9.63866         0.039630     -0.011439     -0.024132
     12.10054     10.77938     10.20966         0.103897      0.061133      0.006849
     12.21825     11.80899     11.08057         0.305503      0.060048     -0.075194
 -----------------------------------------------------------------------------------
    total drift:                                0.000227      0.000567      0.000242


--------------------------------------------------------------------------------------------------------



  FREE ENERGIE OF THE ION-ELECTRON SYSTEM (eV)
  ---------------------------------------------------
  free  energy   TOTEN  =       -56.47640248 eV

  energy  without entropy=      -56.47640248  energy(sigma->0) =      -56.47640248



--------------------------------------------------------------------------------------------------------


    POTLOK:  cpu time      0.2990: real time      0.2990


--------------------------------------------------------------------------------------------------------


 stress matrix after NEB project (eV)
      0.00000      0.00000      0.00000
      0.00000      0.00000      0.00000
      0.00000      0.00000      0.00000
  FORCES: max atom, RMS     0.320300    0.176081
  FORCE total and by dimension    0.528244    0.305503
  Stress total and by dimension    0.000000    0.000000
     LOOP+:  cpu time     18.2938: real time     18.6176
    4ORBIT:  cpu time      0.0000: real time      0.0000

 total amount of memory used by VASP MPI-rank0    61522. kBytes
=======================================================================

   base      :      30000. kBytes
   nonl-proj :       1002. kBytes
   fftplans  :      10395. kBytes
   grid      :      19407. kBytes
   one-center:          1. kBytes
   wavefun   :        717. kBytes

  
  
 General timing and accounting informations for this job:
 ========================================================
  
                  Total CPU time used (sec):       69.832
                            User time (sec):       68.340
                          System time (sec):        1.492
                         Elapsed time (sec):       90.249
  
                   Maximum memory used (kb):      249120.
                   Average memory used (kb):          N/A
  
                          Minor page faults:        38098
                          Major page faults:          287
                 Voluntary context switches:        11710
