 vasp.6.4.1 05Apr23 (build Jun  6 2023 14:46:38) gamma-only                      
 executed on        HPECrayEX_GCC date 2024.08.22  03:30:38
 running  512 mpi-ranks, with    1 threads/rank, on    4 nodes
 distrk:  each k-point on  512 cores,    1 groups
 distr:  one band on NCORE= 128 cores,    4 groups


--------------------------------------------------------------------------------------------------------


 INCAR:
   ALGO = Conjugate
   NPAR = 4
   ISMEAR = 0
   SIGMA = 0.01
   PREC = Accurate
   EDIFF = 1E-7
   ENCUT = 1000
   ISIF = 0
   IVDW = 2
   SYMPREC = 1E-7
   LWAVE = .FALSE.
   LCHARG = .FALSE.

 POTCAR:    PAW_PBE C_h 06Feb2004                 
 POTCAR:    PAW_PBE H_h 06Feb2004                 
 POTCAR:    PAW_PBE N_h 06Feb2004                 
 POTCAR:    PAW_PBE C_h 06Feb2004                 
   VRHFIN =C: s2p2                                                                                  
   LEXCH  = PE                                                                                      
   EATOM  =   147.1560 eV,   10.8157 Ry                                                             
                                                                                                    
   TITEL  = PAW_PBE C_h 06Feb2004                                                                   
   LULTRA =        F    use ultrasoft PP ?                                                          
   IUNSCR =        1    unscreen: 0-lin 1-nonlin 2-no                                               
   RPACOR =    0.800    partial core radius                                                         
   POMASS =   12.011; ZVAL   =    4.000    mass and valenz                                          
   RCORE  =    1.100    outmost cutoff radius                                                       
   RWIGS  =    1.630; RWIGS  =    0.863    wigner-seitz radius (au A)                               
   ENMAX  =  700.000; ENMIN  =  500.000 eV                                                          
   ICORE  =        2    local potential                                                             
   LCOR   =        T    correct aug charges                                                         
   LPAW   =        T    paw PP                                                                      
   EAUG   =  946.768                                                                                
   DEXC   =    0.000                                                                                
   RMAX   =    1.128    core radius for proj-oper                                                   
   RAUG   =    1.300    factor for augmentation sphere                                              
   RDEP   =    1.162    radius for radial grids                                                     
   RDEPT  =    1.088    core radius for aug-charge                                                  
                                                                                                    
   Atomic configuration                                                                             
    4 entries                                                                                       
     n  l   j            E        occ.                                                              
     1  0  0.50      -273.3789   2.0000                                                             
     2  0  0.50       -13.7508   2.0000                                                             
     2  1  0.50        -5.2854   2.0000                                                             
     3  2  1.50        -5.4423   0.0000                                                             
   Description                                                                                      
     l       E           TYP  RCUT    TYP  RCUT                                                     
     0    -13.7508458     23  1.100                                                                 
     0     -8.2022199     23  1.100                                                                 
     1     -5.2854383     23  1.100                                                                 
     1      1.1560700     23  1.100                                                                 
     2     -5.4423304      7  1.100                                                                 
  local pseudopotential read in
  partial core-charges read in
  partial kinetic energy density read in
  atomic valenz-charges read in
  non local Contribution for L=           0  read in
    real space projection operators read in
  non local Contribution for L=           0  read in
    real space projection operators read in
  non local Contribution for L=           1  read in
    real space projection operators read in
  non local Contribution for L=           1  read in
    real space projection operators read in
    PAW grid and wavefunctions read in

   number of l-projection  operators is LMAX  =           4
   number of lm-projection operators is LMMAX =           8

 POTCAR:    PAW_PBE H_h 06Feb2004                 
   VRHFIN =H: ultrasoft test                                                                        
   LEXCH  = PE                                                                                      
   EATOM  =    12.4884 eV,    0.9179 Ry                                                             
                                                                                                    
   TITEL  = PAW_PBE H_h 06Feb2004                                                                   
   LULTRA =        F    use ultrasoft PP ?                                                          
   IUNSCR =        0    unscreen: 0-lin 1-nonlin 2-no                                               
   RPACOR =    0.000    partial core radius                                                         
   POMASS =    1.000; ZVAL   =    1.000    mass and valenz                                          
   RCORE  =    0.800    outmost cutoff radius                                                       
   RWIGS  =    0.700; RWIGS  =    0.370    wigner-seitz radius (au A)                               
   ENMAX  =  700.000; ENMIN  =  350.000 eV                                                          
   RCLOC  =    0.701    cutoff for local pot                                                        
   LCOR   =        T    correct aug charges                                                         
   LPAW   =        T    paw PP                                                                      
   EAUG   = 1000.000                                                                                
   RMAX   =    0.819    core radius for proj-oper                                                   
   RAUG   =    1.000    factor for augmentation sphere                                              
   RDEP   =    0.817    radius for radial grids                                                     
   RDEPT  =    0.817    core radius for aug-charge                                                  
                                                                                                    
   Atomic configuration                                                                             
    2 entries                                                                                       
     n  l   j            E        occ.                                                              
     1  0  0.50        -6.4927   1.0000                                                             
     2  1  0.50        -3.4015   0.0000                                                             
   Description                                                                                      
     l       E           TYP  RCUT    TYP  RCUT                                                     
     0     -6.4927493     23  0.800                                                                 
     0      6.8029130     23  0.800                                                                 
     1     -6.8029130     23  0.800                                                                 
  local pseudopotential read in
  atomic valenz-charges read in
  non local Contribution for L=           0  read in
    real space projection operators read in
  non local Contribution for L=           0  read in
    real space projection operators read in
  non local Contribution for L=           1  read in
    real space projection operators read in
    PAW grid and wavefunctions read in

   number of l-projection  operators is LMAX  =           3
   number of lm-projection operators is LMMAX =           5

 POTCAR:    PAW_PBE N_h 06Feb2004                 
   VRHFIN =N: s2p3                                                                                  
   LEXCH  = PE                                                                                      
   EATOM  =   264.5486 eV,   19.4438 Ry                                                             
                                                                                                    
   TITEL  = PAW_PBE N_h 06Feb2004                                                                   
   LULTRA =        F    use ultrasoft PP ?                                                          
   IUNSCR =        1    unscreen: 0-lin 1-nonlin 2-no                                               
   RPACOR =    0.800    partial core radius                                                         
   POMASS =   14.001; ZVAL   =    5.000    mass and valenz                                          
   RCORE  =    1.100    outmost cutoff radius                                                       
   RWIGS  =    1.480; RWIGS  =    0.783    wigner-seitz radius (au A)                               
   ENMAX  =  700.000; ENMIN  =  500.000 eV                                                          
   ICORE  =        2    local potential                                                             
   LCOR   =        T    correct aug charges                                                         
   LPAW   =        T    paw PP                                                                      
   EAUG   =  904.640                                                                                
   DEXC   =    0.000                                                                                
   RMAX   =    1.127    core radius for proj-oper                                                   
   RAUG   =    1.300    factor for augmentation sphere                                              
   RDEP   =    1.115    radius for radial grids                                                     
   RDEPT  =    1.106    core radius for aug-charge                                                  
                                                                                                    
   Atomic configuration                                                                             
    4 entries                                                                                       
     n  l   j            E        occ.                                                              
     1  0  0.50      -384.7179   2.0000                                                             
     2  0  0.50       -18.5828   2.0000                                                             
     2  1  0.50        -7.0898   3.0000                                                             
     3  2  1.50        -6.8029   0.0000                                                             
   Description                                                                                      
     l       E           TYP  RCUT    TYP  RCUT                                                     
     0    -18.5828117     23  1.100                                                                 
     0    -15.0750597     23  1.100                                                                 
     1     -7.0897851     23  1.100                                                                 
     1     -1.9663412     23  1.100                                                                 
     2     -6.8029130      7  1.100                                                                 
  local pseudopotential read in
  partial core-charges read in
  partial kinetic energy density read in
  kinetic energy density of atom read in
  atomic valenz-charges read in
  non local Contribution for L=           0  read in
    real space projection operators read in
  non local Contribution for L=           0  read in
    real space projection operators read in
  non local Contribution for L=           1  read in
    real space projection operators read in
  non local Contribution for L=           1  read in
    real space projection operators read in
    PAW grid and wavefunctions read in

   number of l-projection  operators is LMAX  =           4
   number of lm-projection operators is LMMAX =           8

  PAW_PBE C_h 06Feb2004                 :
 energy of atom  1       EATOM= -147.1560
 kinetic energy error for atom=    0.0031 (will be added to EATOM!!)
  PAW_PBE H_h 06Feb2004                 :
 energy of atom  2       EATOM=  -12.4884
 kinetic energy error for atom=    0.0006 (will be added to EATOM!!)
  PAW_PBE N_h 06Feb2004                 :
 energy of atom  3       EATOM= -264.5486
 kinetic energy error for atom=    0.0081 (will be added to EATOM!!)


 POSCAR:  C  H  N
  positions in cartesian coordinates
  No initial velocities read in
 exchange correlation table for  LEXCH =        8
   RHO(1)=    0.500       N(1)  =     2000
   RHO(2)=  100.500       N(2)  =     4000

 VTST: version 4.1, (05/19/21)

 CHAIN: initializing optimizer
 
 OPT: Using VASP Dynamics algorithm
 CHAIN: Read ICHAIN            0

 POSCAR:  C  H  N
  positions in cartesian coordinates
  No initial velocities read in



--------------------------------------------------------------------------------------------------------


 ion  position               nearest neighbor table
   1  0.501  0.540  0.530-   6 1.08   9 1.34   2 1.41
   2  0.461  0.495  0.507-   5 1.08   3 1.38   1 1.41
   3  0.494  0.464  0.465-   4 1.08   8 1.36   2 1.38
   4  0.483  0.426  0.436-   3 1.08
   5  0.414  0.487  0.520-   2 1.08
   6  0.492  0.574  0.564-   1 1.08
   7  0.586  0.479  0.438-   8 1.01
   8  0.550  0.490  0.464-   7 1.01   9 1.35   3 1.36
   9  0.555  0.537  0.504-   1 1.34   8 1.35

  LATTYP: Found a simple cubic cell.
 ALAT       =    22.0000000000
  
  Lattice vectors:
  
 A1 = (  22.0000000000,   0.0000000000,   0.0000000000)
 A2 = (   0.0000000000,  22.0000000000,   0.0000000000)
 A3 = (   0.0000000000,   0.0000000000,  22.0000000000)


Analysis of symmetry for initial positions (statically):
=====================================================================
 Subroutine PRICEL returns:
 Original cell was already a primitive cell.
 

 Routine SETGRP: Setting up the symmetry group for a 
 simple cubic supercell.


 Subroutine GETGRP returns: Found  1 space group operations
 (whereof  1 operations were pure point group operations)
 out of a pool of 48 trial point group operations.


The static configuration has the point symmetry C_1 .


Analysis of symmetry for dynamics (positions and initial velocities):
=====================================================================
 Subroutine PRICEL returns:
 Original cell was already a primitive cell.
 

 Routine SETGRP: Setting up the symmetry group for a 
 simple cubic supercell.


 Subroutine GETGRP returns: Found  1 space group operations
 (whereof  1 operations were pure point group operations)
 out of a pool of 48 trial point group operations.


The dynamic configuration has the point symmetry C_1 .


 Subroutine INISYM returns: Found  1 space group operations
 (whereof  1 operations are pure point group operations),
 and found     1 'primitive' translations


----------------------------------------------------------------------------------------

                                     Primitive cell                                     

  volume of cell :   10648.0000

  direct lattice vectors                    reciprocal lattice vectors
    22.000000000  0.000000000  0.000000000     0.045454545  0.000000000  0.000000000
     0.000000000 22.000000000  0.000000000     0.000000000  0.045454545  0.000000000
     0.000000000  0.000000000 22.000000000     0.000000000  0.000000000  0.045454545

  length of vectors
    22.000000000 22.000000000 22.000000000     0.045454545  0.045454545  0.045454545

  position of ions in fractional coordinates (direct lattice)
     0.500723409  0.539918864  0.530078409
     0.460527955  0.495318409  0.507461591
     0.494072955  0.463760227  0.464720227
     0.482814318  0.425784318  0.435610682
     0.413793409  0.487232500  0.520281136
     0.492382955  0.574215682  0.564389318
     0.586206591  0.478577045  0.438121136
     0.550024318  0.489972045  0.464075682
     0.555375227  0.536772045  0.503662500

  ion indices of the primitive-cell ions
   primitive index   ion index
                 1           1
                 2           2
                 3           3
                 4           4
                 5           5
                 6           6
                 7           7
                 8           8
                 9           9

----------------------------------------------------------------------------------------



 KPOINTS: auto                                    

Automatic generation of k-mesh.
 Grid dimensions read from file:
 generate k-points for:    1    1    1

 Generating k-lattice:

  Cartesian coordinates                     Fractional coordinates (reciprocal lattice)
     0.045454545  0.000000000  0.000000000     1.000000000  0.000000000  0.000000000
     0.000000000  0.045454545  0.000000000     0.000000000  1.000000000  0.000000000
     0.000000000  0.000000000  0.045454545     0.000000000  0.000000000  1.000000000

  Length of vectors
     0.045454545  0.045454545  0.045454545

  Shift w.r.t. Gamma in fractional coordinates (k-lattice)
     0.000000000  0.000000000  0.000000000

 
 Subroutine IBZKPT returns following result:
 ===========================================
 
 Found      1 irreducible k-points:
 
 Following reciprocal coordinates:
            Coordinates               Weight
  0.000000  0.000000  0.000000      1.000000
 
 Following cartesian coordinates:
            Coordinates               Weight
  0.000000  0.000000  0.000000      1.000000
 


--------------------------------------------------------------------------------------------------------




 Dimension of arrays:
   k-points           NKPTS =      1   k-points in BZ     NKDIM =      1   number of bands    NBANDS=     20
   number of dos      NEDOS =    301   number of ions     NIONS =      9
   non local maximal  LDIM  =      4   non local SUM 2l+1 LMDIM =      8
   total plane-waves  NPLWV = ******
   max r-space proj   IRMAX =      1   max aug-charges    IRDMAX=   9419
   dimension x,y,z NGX =   240 NGY =  240 NGZ =  240
   dimension x,y,z NGXF=   480 NGYF=  480 NGZF=  480
   support grid    NGXF=   480 NGYF=  480 NGZF=  480
   ions per type =               3   4   2
   NGX,Y,Z   is equivalent  to a cutoff of  18.14, 18.14, 18.14 a.u.
   NGXF,Y,Z  is equivalent  to a cutoff of  36.27, 36.27, 36.27 a.u.

 SYSTEM =  unknown system                          
 POSCAR =   C  H  N                                

 Startparameter for this run:
   NWRITE =      2    write-flag & timer
   PREC   = accura    normal or accurate (medium, high low for compatibility)
   ISTART =      0    job   : 0-new  1-cont  2-samecut
   ICHARG =      2    charge: 1-file 2-atom 10-const
   ISPIN  =      1    spin polarized calculation?
   LNONCOLLINEAR =      F non collinear calculations
   LSORBIT =      F    spin-orbit coupling
   INIWAV =      1    electr: 0-lowe 1-rand  2-diag
   LASPH  =      F    aspherical Exc in radial PAW
 Electronic Relaxation 1
   ENCUT  = 1000.0 eV  73.50 Ry    8.57 a.u.  56.73 56.73 56.73*2*pi/ulx,y,z
   ENINI  = 1000.0     initial cutoff
   ENAUG  = 1000.0 eV  augmentation charge cutoff
   NELM   =     60;   NELMIN=  2; NELMDL= -5     # of ELM steps 
   EDIFF  = 0.1E-06   stopping-criterion for ELM
   LREAL  =      F    real-space projection
   NLSPLINE    = F    spline interpolate recip. space projectors
   LCOMPAT=      F    compatible to vasp.4.4
   GGA_COMPAT  = T    GGA compatible to vasp.4.4-vasp.4.6
   LMAXPAW     = -100 max onsite density
   LMAXMIX     =    2 max onsite mixed and CHGCAR
   VOSKOWN=      0    Vosko Wilk Nusair interpolation
   ROPT   =    0.00000   0.00000   0.00000
 Ionic relaxation
   EDIFFG = 0.1E-05   stopping-criterion for IOM
   NSW    =      0    number of steps for IOM
   NBLOCK =      1;   KBLOCK =      1    inner block; outer block 
   IBRION =     -1    ionic relax: 0-MD 1-quasi-New 2-CG
   NFREE  =      0    steps in history (QN), initial steepest desc. (CG)
   ISIF   =      0    stress and relaxation
   IWAVPR =     10    prediction:  0-non 1-charg 2-wave 3-comb
   ISYM   =      2    0-nonsym 1-usesym 2-fastsym
   LCORR  =      T    Harris-Foulkes like correction to forces

   POTIM  = 0.5000    time-step for ionic-motion
   TEIN   =    0.0    initial temperature
   TEBEG  =    0.0;   TEEND  =   0.0 temperature during run
   SMASS  =  -3.00    Nose mass-parameter (am)
   estimated Nose-frequenzy (Omega)   =  0.10E-29 period in steps = 0.13E+47 mass=  -0.111E-25a.u.
   SCALEE = 1.0000    scale energy and forces
   NPACO  =    256;   APACO  = 10.0  distance and # of slots for P.C.
   PSTRESS=    0.0 pullay stress

  Mass of Ions in am
   POMASS =  12.01  1.00 14.00
  Ionic Valenz
   ZVAL   =   4.00  1.00  5.00
  Atomic Wigner-Seitz radii
   RWIGS  =  -1.00 -1.00 -1.00
  virtual crystal weights 
   VCA    =   1.00  1.00  1.00
   NELECT =      26.0000    total number of electrons
   NUPDOWN=      -1.0000    fix difference up-down

 DOS related values:
   EMIN   =  10.00;   EMAX   =-10.00  energy-range for DOS
   EFERMI =   0.00;   METHOD = LEGACY      
   ISMEAR =     0;   SIGMA  =   0.01  broadening in eV -4-tet -1-fermi 0-gaus

 Electronic relaxation 2 (details)
   IALGO  =     58    algorithm
   LDIAG  =      T    sub-space diagonalisation (order eigenvalues)
   LSUBROT=      F    optimize rotation matrix (better conditioning)
   TURBO    =      0    0=normal 1=particle mesh
   IRESTART =      0    0=no restart 2=restart with 2 vectors
   NREBOOT  =      0    no. of reboots
   NMIN     =      0    reboot dimension
   EREF     =   0.00    reference energy to select bands
   IMIX   =      4    mixing-type and parameters
     AMIX     =   0.40;   BMIX     =  1.00
     AMIX_MAG =   1.60;   BMIX_MAG =  1.00
     AMIN     =   0.10
     WC   =   100.;   INIMIX=   1;  MIXPRE=   1;  MAXMIX= -45

 Intra band minimization:
   WEIMIN = 0.0000     energy-eigenvalue tresh-hold
   EBREAK =  0.13E-08  absolut break condition
   DEPER  =   0.30     relativ break condition  

   TIME   =   0.40     timestep for ELM

  volume/ion in A,a.u.               =    1183.11      7984.03
  Fermi-wavevector in a.u.,A,eV,Ry     =   0.220450  0.416590  0.661218  0.048598
  Thomas-Fermi vector in A             =   1.001172

 Write flags
   LWAVE        =      F    write WAVECAR
   LDOWNSAMPLE  =      F    k-point downsampling of WAVECAR
   LCHARG       =      F    write CHGCAR
   LVTOT        =      F    write LOCPOT, total local potential
   LVHAR        =      F    write LOCPOT, Hartree potential only
   LELF         =      F    write electronic localiz. function (ELF)
   LORBIT       =      0    0 simple, 1 ext, 2 COOP (PROOUT), +10 PAW based schemes


 Dipole corrections
   LMONO  =      F    monopole corrections only (constant potential shift)
   LDIPOL =      F    correct potential (dipole corrections)
   IDIPOL =      0    1-x, 2-y, 3-z, 4-all directions 
   EPSILON=  1.0000000 bulk dielectric constant

 Exchange correlation treatment:
   GGA     =    --    GGA type
   LEXCH   =     8    internal setting for exchange type
   LIBXC   =     F    Libxc                    
   VOSKOWN =     0    Vosko Wilk Nusair interpolation
   LHFCALC =     F    Hartree Fock is set to
   LHFONE  =     F    Hartree Fock one center treatment
   AEXX    =    0.0000 exact exchange contribution

 Linear response parameters
   LEPSILON=     F    determine dielectric tensor
   LRPA    =     F    only Hartree local field effects (RPA)
   LNABLA  =     F    use nabla operator in PAW spheres
   LVEL    =     F    velocity operator in full k-point grid
   CSHIFT  =0.1000    complex shift for real part using Kramers Kronig
   OMEGAMAX=  -1.0    maximum frequency
   DEG_THRESHOLD= 0.2000000E-02 threshold for treating states as degnerate
   RTIME   =   -0.100 relaxation time in fs
  (WPLASMAI=    0.000 imaginary part of plasma frequency in eV, 0.658/RTIME)
   DFIELD  = 0.0000000 0.0000000 0.0000000 field for delta impulse in time

  Optional k-point grid parameters
   LKPOINTS_OPT  =     F    use optional k-point grid
   KPOINTS_OPT_MODE=     1    mode for optional k-point grid

 Orbital magnetization related:
   ORBITALMAG=     F  switch on orbital magnetization
   LCHIMAG   =     F  perturbation theory with respect to B field
   DQ        =  0.001000  dq finite difference perturbation B field
   LLRAUG    =     F  two centre corrections for induced B field
   LBONE     =     F  B-component reconstruction in AE one-centre
   LVGVCALC  =     T  calculate vGv susceptibility
   LVGVAPPL  =     F  apply vGv susceptibility instead of pGv for G=0

 Random number generation:
   RANDOM_GENERATOR = DEFAULT
   PCG_SEED         = not used


--------------------------------------------------------------------------------------------------------


 Static calculation
 charge density and potential will be updated during run
 non-spin polarized calculation
 Conjugate gradient for all bands (Freysoldt, et al. PRB 79, 241103 (2009))
 preconditioned conjugated gradient                                        
 perform sub-space diagonalisation
    before iterative eigenvector-optimisation
 modified Broyden-mixing scheme, WC =      100.0
 initial mixing is a Kerker type mixing with AMIX =  0.4000 and BMIX =      1.0000
 Hartree-type preconditioning will be used
 using additional bands            7
 reciprocal scheme for non local part
 use partial core corrections
 no Harris-corrections to forces 
 use gradient corrections 
 use of overlap-Matrix (Vanderbilt PP)
 Gauss-broadening in eV      SIGMA  =   0.01


--------------------------------------------------------------------------------------------------------


  energy-cutoff  :     1000.00
  volume of cell :    10648.00
      direct lattice vectors                 reciprocal lattice vectors
    22.000000000  0.000000000  0.000000000     0.045454545  0.000000000  0.000000000
     0.000000000 22.000000000  0.000000000     0.000000000  0.045454545  0.000000000
     0.000000000  0.000000000 22.000000000     0.000000000  0.000000000  0.045454545

  length of vectors
    22.000000000 22.000000000 22.000000000     0.045454545  0.045454545  0.045454545



 k-points in units of 2pi/SCALE and weight: auto                                    
   0.00000000  0.00000000  0.00000000       1.000

 k-points in reciprocal lattice and weights: auto                                    
   0.00000000  0.00000000  0.00000000       1.000

 position of ions in fractional coordinates (direct lattice) 
   0.50072341  0.53991886  0.53007841
   0.46052795  0.49531841  0.50746159
   0.49407295  0.46376023  0.46472023
   0.48281432  0.42578432  0.43561068
   0.41379341  0.48723250  0.52028114
   0.49238295  0.57421568  0.56438932
   0.58620659  0.47857705  0.43812114
   0.55002432  0.48997205  0.46407568
   0.55537523  0.53677205  0.50366250

 position of ions in cartesian coordinates  (Angst):
  11.01591500 11.87821500 11.66172500
  10.13161500 10.89700500 11.16415500
  10.86960500 10.20272500 10.22384500
  10.62191500  9.36725500  9.58343500
   9.10345500 10.71911500 11.44618500
  10.83242500 12.63274500 12.41656500
  12.89654500 10.52869500  9.63866500
  12.10053500 10.77938500 10.20966500
  12.21825500 11.80898500 11.08057500



--------------------------------------------------------------------------------------------------------


 use parallel FFT for orbitals z direction half grid
 k-point   1 :   0.0000 0.0000 0.0000  plane waves:  381993

 maximum and minimum number of plane-waves per node :      2992     2977

 maximum number of plane-waves:    381993
 maximum index in each direction: 
   IXMAX=   56   IYMAX=   56   IZMAX=   56
   IXMIN=  -56   IYMIN=  -56   IZMIN=    0


 parallel 3D FFT for wavefunctions:
    minimum data exchange during FFTs selected (reduces bandwidth)
 parallel 3D FFT for charge:
    minimum data exchange during FFTs selected (reduces bandwidth)


 total amount of memory used by VASP MPI-rank0    61522. kBytes
=======================================================================

   base      :      30000. kBytes
   nonl-proj :       1002. kBytes
   fftplans  :      10395. kBytes
   grid      :      19407. kBytes
   one-center:          1. kBytes
   wavefun   :        717. kBytes

     INWAV:  cpu time      0.0001: real time      0.0003
 Broyden mixing: mesh for mixing (old mesh)
   NGX =113   NGY =113   NGZ =113
  (NGX  =480   NGY  =480   NGZ  =480)
  gives a total of ****** points

 initial charge density was supplied:
 charge density of overlapping atoms calculated
 number of electron      26.0000000 magnetization 
 keeping initial charge density in first step


--------------------------------------------------------------------------------------------------------


 Maximum index for augmentation-charges            0 (set IRDMAX)


--------------------------------------------------------------------------------------------------------


 First call to EWALD:  gamma=   0.081
 Maximum number of real-space cells 3x 3x 3
 Maximum number of reciprocal cells 3x 3x 3

    FEWALD:  cpu time      0.0032: real time      0.0034


--------------------------------------- Ionic step        1  -------------------------------------------




--------------------------------------- Iteration      1(   1)  ---------------------------------------


    POTLOK:  cpu time      0.3125: real time      0.3137
    SETDIJ:  cpu time      0.0107: real time      0.0111
    TRIAL :  cpu time      0.2721: real time      0.2742
    CORREC:  cpu time      0.0018: real time      0.0021
    --------------------------------------------
      LOOP:  cpu time      0.6028: real time      0.6068

 eigenvalue-minimisations  :    56
 total energy-change (2. order) : 0.2489433E+03  (-0.6357857E+03)
 number of electron      26.0000000 magnetization 
 augmentation part       26.0000000 magnetization 

 Free energy of the ion-electron system (eV)
  ---------------------------------------------------
  alpha Z        PSCENC =         0.19661355
  Ewald energy   TEWEN  =      1675.06761068
  -Hartree energ DENC   =     -2384.33129516
  -exchange      EXHF   =         0.00000000
  -V(xc)+E(xc)   XCENC  =        63.78285225
  PAW double counting   =       761.07819111     -742.68311964
  entropy T*S    EENTRO =        -0.00447396
  eigenvalues    EBANDS =      -144.65396936
  atomic energy  EATOM  =      1020.49086547
  ---------------------------------------------------
  free energy    TOTEN  =       248.94327493 eV

  energy without entropy =      248.94774889  energy(sigma->0) =      248.94551191


--------------------------------------------------------------------------------------------------------




--------------------------------------- Iteration      1(   2)  ---------------------------------------


    TRIAL :  cpu time      0.2818: real time      0.2821
    CORREC:  cpu time      0.0001: real time      0.0001
    --------------------------------------------
      LOOP:  cpu time      0.2969: real time      0.3098

 eigenvalue-minimisations  :    76
 total energy-change (2. order) :-0.1760747E+03  (-0.1750813E+03)
 number of electron      26.0000000 magnetization 
 augmentation part       26.0000000 magnetization 

 Free energy of the ion-electron system (eV)
  ---------------------------------------------------
  alpha Z        PSCENC =         0.19661355
  Ewald energy   TEWEN  =      1675.06761068
  -Hartree energ DENC   =     -2384.33129516
  -exchange      EXHF   =         0.00000000
  -V(xc)+E(xc)   XCENC  =        63.78285225
  PAW double counting   =       761.07819111     -742.68311964
  entropy T*S    EENTRO =        -0.00000000
  eigenvalues    EBANDS =      -320.73310330
  atomic energy  EATOM  =      1020.49086547
  ---------------------------------------------------
  free energy    TOTEN  =        72.86861495 eV

  energy without entropy =       72.86861495  energy(sigma->0) =       72.86861495


--------------------------------------------------------------------------------------------------------




--------------------------------------- Iteration      1(   3)  ---------------------------------------


    TRIAL :  cpu time      0.2718: real time      0.2719
    CORREC:  cpu time      0.0001: real time      0.0001
    --------------------------------------------
      LOOP:  cpu time      0.2893: real time      0.3032

 eigenvalue-minimisations  :    72
 total energy-change (2. order) :-0.1062437E+03  (-0.1050722E+03)
 number of electron      26.0000000 magnetization 
 augmentation part       26.0000000 magnetization 

 Free energy of the ion-electron system (eV)
  ---------------------------------------------------
  alpha Z        PSCENC =         0.19661355
  Ewald energy   TEWEN  =      1675.06761068
  -Hartree energ DENC   =     -2384.33129516
  -exchange      EXHF   =         0.00000000
  -V(xc)+E(xc)   XCENC  =        63.78285225
  PAW double counting   =       761.07819111     -742.68311964
  entropy T*S    EENTRO =        -0.00000000
  eigenvalues    EBANDS =      -426.97684605
  atomic energy  EATOM  =      1020.49086547
  ---------------------------------------------------
  free energy    TOTEN  =       -33.37512780 eV

  energy without entropy =      -33.37512780  energy(sigma->0) =      -33.37512780


--------------------------------------------------------------------------------------------------------




--------------------------------------- Iteration      1(   4)  ---------------------------------------


    TRIAL :  cpu time      0.2016: real time      0.2016
    CORREC:  cpu time      0.0001: real time      0.0001
    --------------------------------------------
      LOOP:  cpu time      0.2312: real time      0.2315

 eigenvalue-minimisations  :    48
 total energy-change (2. order) :-0.2826752E+02  (-0.2826057E+02)
 number of electron      26.0000000 magnetization 
 augmentation part       26.0000000 magnetization 

 Free energy of the ion-electron system (eV)
  ---------------------------------------------------
  alpha Z        PSCENC =         0.19661355
  Ewald energy   TEWEN  =      1675.06761068
  -Hartree energ DENC   =     -2384.33129516
  -exchange      EXHF   =         0.00000000
  -V(xc)+E(xc)   XCENC  =        63.78285225
  PAW double counting   =       761.07819111     -742.68311964
  entropy T*S    EENTRO =        -0.00000000
  eigenvalues    EBANDS =      -455.24436235
  atomic energy  EATOM  =      1020.49086547
  ---------------------------------------------------
  free energy    TOTEN  =       -61.64264410 eV

  energy without entropy =      -61.64264410  energy(sigma->0) =      -61.64264410


--------------------------------------------------------------------------------------------------------




--------------------------------------- Iteration      1(   5)  ---------------------------------------


    TRIAL :  cpu time      0.2001: real time      0.2001
    CORREC:  cpu time      0.0001: real time      0.0001
    CHARGE:  cpu time      0.0715: real time      0.0733
    --------------------------------------------
      LOOP:  cpu time      0.2901: real time      0.3056

 eigenvalue-minimisations  :    48
 total energy-change (2. order) :-0.1260270E+01  (-0.1248264E+01)
 number of electron      26.0000000 magnetization 
 augmentation part       -0.0550854 magnetization 

 Free energy of the ion-electron system (eV)
  ---------------------------------------------------
  alpha Z        PSCENC =         0.19661355
  Ewald energy   TEWEN  =      1675.06761068
  -Hartree energ DENC   =     -2384.33129516
  -exchange      EXHF   =         0.00000000
  -V(xc)+E(xc)   XCENC  =        63.78285225
  PAW double counting   =       761.07819111     -742.68311964
  entropy T*S    EENTRO =        -0.00000000
  eigenvalues    EBANDS =      -456.50463227
  atomic energy  EATOM  =      1020.49086547
  ---------------------------------------------------
  free energy    TOTEN  =       -62.90291402 eV

  energy without entropy =      -62.90291402  energy(sigma->0) =      -62.90291402


--------------------------------------------------------------------------------------------------------




--------------------------------------- Iteration      1(   6)  ---------------------------------------


    POTLOK:  cpu time      0.3020: real time      0.3023
    SETDIJ:  cpu time      0.0016: real time      0.0016
    TRIAL :  cpu time      0.1217: real time      0.1250
    CORREC:  cpu time      0.3837: real time      0.3846
    CHARGE:  cpu time      0.0429: real time      0.0431
    --------------------------------------------
      LOOP:  cpu time      0.8651: real time      0.8861

 eigenvalue-minimisations  :     0
 total energy-change (2. order) : 0.1033456E+02  (-0.4231028E+01)
 number of electron      26.0000000 magnetization 
 augmentation part       -0.0605251 magnetization 

 Free energy of the ion-electron system (eV)
  ---------------------------------------------------
  alpha Z        PSCENC =         0.19661355
  Ewald energy   TEWEN  =      1675.06761068
  -Hartree energ DENC   =     -2601.20661468
  -exchange      EXHF   =         0.00000000
  -V(xc)+E(xc)   XCENC  =        72.27157594
  PAW double counting   =      8359.26079310    -8341.89022122
  entropy T*S    EENTRO =        -0.00000000
  eigenvalues    EBANDS =      -236.75898039
  atomic energy  EATOM  =      1020.49086547
  ---------------------------------------------------
  free energy    TOTEN  =       -52.56835756 eV

  energy without entropy =      -52.56835756  energy(sigma->0) =      -52.56835756


--------------------------------------------------------------------------------------------------------




--------------------------------------- Iteration      1(   7)  ---------------------------------------


    POTLOK:  cpu time      0.3019: real time      0.3022
    SETDIJ:  cpu time      0.0017: real time      0.0017
    TRIAL :  cpu time      0.1038: real time      0.1039
    CORREC:  cpu time      0.3763: real time      0.3765
    CHARGE:  cpu time      0.0424: real time      0.0426
    --------------------------------------------
      LOOP:  cpu time      0.8557: real time      0.8566

 eigenvalue-minimisations  :     0
 total energy-change (2. order) :-0.4270503E+01  (-0.4404656E+00)
 number of electron      26.0000000 magnetization 
 augmentation part       -0.0672939 magnetization 

 Free energy of the ion-electron system (eV)
  ---------------------------------------------------
  alpha Z        PSCENC =         0.19661355
  Ewald energy   TEWEN  =      1675.06761068
  -Hartree energ DENC   =     -2501.92994540
  -exchange      EXHF   =         0.00000000
  -V(xc)+E(xc)   XCENC  =        68.80055935
  PAW double counting   =     10267.00979733   -10249.20440286
  entropy T*S    EENTRO =        -0.00000000
  eigenvalues    EBANDS =      -337.26995873
  atomic energy  EATOM  =      1020.49086547
  ---------------------------------------------------
  free energy    TOTEN  =       -56.83886062 eV

  energy without entropy =      -56.83886062  energy(sigma->0) =      -56.83886062


--------------------------------------------------------------------------------------------------------




--------------------------------------- Iteration      1(   8)  ---------------------------------------


    POTLOK:  cpu time      0.3035: real time      0.3036
    SETDIJ:  cpu time      0.0024: real time      0.0024
    TRIAL :  cpu time      0.1039: real time      0.1045
    CORREC:  cpu time      0.3833: real time      0.3835
    CHARGE:  cpu time      0.0428: real time      0.0430
    --------------------------------------------
      LOOP:  cpu time      0.8489: real time      0.8679

 eigenvalue-minimisations  :     0
 total energy-change (2. order) :-0.4424444E+00  (-0.1841877E+00)
 number of electron      26.0000000 magnetization 
 augmentation part       -0.0676864 magnetization 

 Free energy of the ion-electron system (eV)
  ---------------------------------------------------
  alpha Z        PSCENC =         0.19661355
  Ewald energy   TEWEN  =      1675.06761068
  -Hartree energ DENC   =     -2506.35017796
  -exchange      EXHF   =         0.00000000
  -V(xc)+E(xc)   XCENC  =        69.00376739
  PAW double counting   =     10814.85177439   -10797.01304934
  entropy T*S    EENTRO =        -0.00000000
  eigenvalues    EBANDS =      -333.52870916
  atomic energy  EATOM  =      1020.49086547
  ---------------------------------------------------
  free energy    TOTEN  =       -57.28130499 eV

  energy without entropy =      -57.28130499  energy(sigma->0) =      -57.28130499


--------------------------------------------------------------------------------------------------------




--------------------------------------- Iteration      1(   9)  ---------------------------------------


    POTLOK:  cpu time      0.3024: real time      0.3024
    SETDIJ:  cpu time      0.0016: real time      0.0016
    TRIAL :  cpu time      0.1043: real time      0.1044
    CORREC:  cpu time      0.3760: real time      0.3768
    CHARGE:  cpu time      0.0424: real time      0.0426
    --------------------------------------------
      LOOP:  cpu time      0.8463: real time      0.8584

 eigenvalue-minimisations  :     0
 total energy-change (2. order) :-0.1831668E+00  (-0.8309084E-01)
 number of electron      26.0000000 magnetization 
 augmentation part       -0.0680427 magnetization 

 Free energy of the ion-electron system (eV)
  ---------------------------------------------------
  alpha Z        PSCENC =         0.19661355
  Ewald energy   TEWEN  =      1675.06761068
  -Hartree energ DENC   =     -2503.10499764
  -exchange      EXHF   =         0.00000000
  -V(xc)+E(xc)   XCENC  =        68.89528415
  PAW double counting   =     11164.99311522   -11147.11737310
  entropy T*S    EENTRO =        -0.00000000
  eigenvalues    EBANDS =      -336.88559011
  atomic energy  EATOM  =      1020.49086547
  ---------------------------------------------------
  free energy    TOTEN  =       -57.46447179 eV

  energy without entropy =      -57.46447179  energy(sigma->0) =      -57.46447179


--------------------------------------------------------------------------------------------------------




--------------------------------------- Iteration      1(  10)  ---------------------------------------


    POTLOK:  cpu time      0.3018: real time      0.3018
    SETDIJ:  cpu time      0.0018: real time      0.0018
    TRIAL :  cpu time      0.1050: real time      0.1050
    CORREC:  cpu time      0.3758: real time      0.3764
    CHARGE:  cpu time      0.0424: real time      0.0426
    --------------------------------------------
      LOOP:  cpu time      0.8572: real time      0.8583

 eigenvalue-minimisations  :     0
 total energy-change (2. order) :-0.8217140E-01  (-0.2999036E-01)
 number of electron      26.0000000 magnetization 
 augmentation part       -0.0679926 magnetization 

 Free energy of the ion-electron system (eV)
  ---------------------------------------------------
  alpha Z        PSCENC =         0.19661355
  Ewald energy   TEWEN  =      1675.06761068
  -Hartree energ DENC   =     -2500.21362177
  -exchange      EXHF   =         0.00000000
  -V(xc)+E(xc)   XCENC  =        68.80371167
  PAW double counting   =     11114.33224898   -11096.44669661
  entropy T*S    EENTRO =        -0.00000000
  eigenvalues    EBANDS =      -339.77737515
  atomic energy  EATOM  =      1020.49086547
  ---------------------------------------------------
  free energy    TOTEN  =       -57.54664319 eV

  energy without entropy =      -57.54664319  energy(sigma->0) =      -57.54664319


--------------------------------------------------------------------------------------------------------




--------------------------------------- Iteration      1(  11)  ---------------------------------------


    POTLOK:  cpu time      0.3026: real time      0.3026
    SETDIJ:  cpu time      0.0016: real time      0.0016
    TRIAL :  cpu time      0.1041: real time      0.1041
    CORREC:  cpu time      0.3756: real time      0.3762
    CHARGE:  cpu time      0.0428: real time      0.0429
    --------------------------------------------
      LOOP:  cpu time      0.8403: real time      0.8575

 eigenvalue-minimisations  :     0
 total energy-change (2. order) :-0.2985695E-01  (-0.9309704E-02)
 number of electron      26.0000000 magnetization 
 augmentation part       -0.0677585 magnetization 

 Free energy of the ion-electron system (eV)
  ---------------------------------------------------
  alpha Z        PSCENC =         0.19661355
  Ewald energy   TEWEN  =      1675.06761068
  -Hartree energ DENC   =     -2500.60413528
  -exchange      EXHF   =         0.00000000
  -V(xc)+E(xc)   XCENC  =        68.82540759
  PAW double counting   =     10905.79412657   -10887.92178133
  entropy T*S    EENTRO =        -0.00000000
  eigenvalues    EBANDS =      -339.42520737
  atomic energy  EATOM  =      1020.49086547
  ---------------------------------------------------
  free energy    TOTEN  =       -57.57650013 eV

  energy without entropy =      -57.57650013  energy(sigma->0) =      -57.57650013


--------------------------------------------------------------------------------------------------------




--------------------------------------- Iteration      1(  12)  ---------------------------------------


    POTLOK:  cpu time      0.3006: real time      0.3007
    SETDIJ:  cpu time      0.0018: real time      0.0018
    TRIAL :  cpu time      0.1051: real time      0.1051
    CORREC:  cpu time      0.3731: real time      0.3733
    CHARGE:  cpu time      0.0423: real time      0.0424
    --------------------------------------------
      LOOP:  cpu time      0.8379: real time      0.8550

 eigenvalue-minimisations  :     0
 total energy-change (2. order) :-0.9300881E-02  (-0.2945496E-02)
 number of electron      26.0000000 magnetization 
 augmentation part       -0.0677033 magnetization 

 Free energy of the ion-electron system (eV)
  ---------------------------------------------------
  alpha Z        PSCENC =         0.19661355
  Ewald energy   TEWEN  =      1675.06761068
  -Hartree energ DENC   =     -2500.23690090
  -exchange      EXHF   =         0.00000000
  -V(xc)+E(xc)   XCENC  =        68.81114994
  PAW double counting   =     10803.30787954   -10785.44254569
  entropy T*S    EENTRO =        -0.00000000
  eigenvalues    EBANDS =      -339.78047360
  atomic energy  EATOM  =      1020.49086547
  ---------------------------------------------------
  free energy    TOTEN  =       -57.58580102 eV

  energy without entropy =      -57.58580102  energy(sigma->0) =      -57.58580102


--------------------------------------------------------------------------------------------------------




--------------------------------------- Iteration      1(  13)  ---------------------------------------


    POTLOK:  cpu time      0.3000: real time      0.3005
    SETDIJ:  cpu time      0.0018: real time      0.0018
    TRIAL :  cpu time      0.1046: real time      0.1046
    CORREC:  cpu time      0.3724: real time      0.3726
    CHARGE:  cpu time      0.0429: real time      0.0430
    --------------------------------------------
      LOOP:  cpu time      0.8372: real time      0.8532

 eigenvalue-minimisations  :     0
 total energy-change (2. order) :-0.2945757E-02  (-0.1085705E-02)
 number of electron      26.0000000 magnetization 
 augmentation part       -0.0676340 magnetization 

 Free energy of the ion-electron system (eV)
  ---------------------------------------------------
  alpha Z        PSCENC =         0.19661355
  Ewald energy   TEWEN  =      1675.06761068
  -Hartree energ DENC   =     -2499.92218023
  -exchange      EXHF   =         0.00000000
  -V(xc)+E(xc)   XCENC  =        68.79675576
  PAW double counting   =     10784.71126821   -10766.84813624
  entropy T*S    EENTRO =        -0.00000000
  eigenvalues    EBANDS =      -340.08154397
  atomic energy  EATOM  =      1020.49086547
  ---------------------------------------------------
  free energy    TOTEN  =       -57.58874677 eV

  energy without entropy =      -57.58874677  energy(sigma->0) =      -57.58874677


--------------------------------------------------------------------------------------------------------




--------------------------------------- Iteration      1(  14)  ---------------------------------------


    POTLOK:  cpu time      0.2974: real time      0.2982
    SETDIJ:  cpu time      0.0019: real time      0.0019
    TRIAL :  cpu time      0.1041: real time      0.1041
    CORREC:  cpu time      0.3723: real time      0.3726
    CHARGE:  cpu time      0.0425: real time      0.0427
    --------------------------------------------
      LOOP:  cpu time      0.8317: real time      0.8501

 eigenvalue-minimisations  :     0
 total energy-change (2. order) :-0.1084694E-02  (-0.4687503E-03)
 number of electron      26.0000000 magnetization 
 augmentation part       -0.0676055 magnetization 

 Free energy of the ion-electron system (eV)
  ---------------------------------------------------
  alpha Z        PSCENC =         0.19661355
  Ewald energy   TEWEN  =      1675.06761068
  -Hartree energ DENC   =     -2500.08689147
  -exchange      EXHF   =         0.00000000
  -V(xc)+E(xc)   XCENC  =        68.80025585
  PAW double counting   =     10797.36666038   -10779.50476454
  entropy T*S    EENTRO =        -0.00000000
  eigenvalues    EBANDS =      -339.92018139
  atomic energy  EATOM  =      1020.49086547
  ---------------------------------------------------
  free energy    TOTEN  =       -57.58983147 eV

  energy without entropy =      -57.58983147  energy(sigma->0) =      -57.58983147


--------------------------------------------------------------------------------------------------------




--------------------------------------- Iteration      1(  15)  ---------------------------------------


    POTLOK:  cpu time      0.2974: real time      0.2975
    SETDIJ:  cpu time      0.0018: real time      0.0018
    TRIAL :  cpu time      0.1038: real time      0.1045
    CORREC:  cpu time      0.3684: real time      0.3687
    CHARGE:  cpu time      0.0418: real time      0.0420
    --------------------------------------------
      LOOP:  cpu time      0.8448: real time      0.8462

 eigenvalue-minimisations  :     0
 total energy-change (2. order) :-0.4694207E-03  (-0.2147051E-03)
 number of electron      26.0000000 magnetization 
 augmentation part       -0.0675743 magnetization 

 Free energy of the ion-electron system (eV)
  ---------------------------------------------------
  alpha Z        PSCENC =         0.19661355
  Ewald energy   TEWEN  =      1675.06761068
  -Hartree energ DENC   =     -2500.13546455
  -exchange      EXHF   =         0.00000000
  -V(xc)+E(xc)   XCENC  =        68.80077746
  PAW double counting   =     10818.93654284   -10801.07418901
  entropy T*S    EENTRO =        -0.00000000
  eigenvalues    EBANDS =      -339.87305733
  atomic energy  EATOM  =      1020.49086547
  ---------------------------------------------------
  free energy    TOTEN  =       -57.59030089 eV

  energy without entropy =      -57.59030089  energy(sigma->0) =      -57.59030089


--------------------------------------------------------------------------------------------------------




--------------------------------------- Iteration      1(  16)  ---------------------------------------


    POTLOK:  cpu time      0.2942: real time      0.2943
    SETDIJ:  cpu time      0.0018: real time      0.0018
    TRIAL :  cpu time      0.1045: real time      0.1045
    CORREC:  cpu time      0.3661: real time      0.3667
    CHARGE:  cpu time      0.0431: real time      0.0433
    --------------------------------------------
      LOOP:  cpu time      0.8258: real time      0.8408

 eigenvalue-minimisations  :     0
 total energy-change (2. order) :-0.2143451E-03  (-0.8116249E-04)
 number of electron      26.0000000 magnetization 
 augmentation part       -0.0675358 magnetization 

 Free energy of the ion-electron system (eV)
  ---------------------------------------------------
  alpha Z        PSCENC =         0.19661355
  Ewald energy   TEWEN  =      1675.06761068
  -Hartree energ DENC   =     -2500.19277695
  -exchange      EXHF   =         0.00000000
  -V(xc)+E(xc)   XCENC  =        68.80260010
  PAW double counting   =     10829.66854257   -10811.80569268
  entropy T*S    EENTRO =        -0.00000000
  eigenvalues    EBANDS =      -339.81827797
  atomic energy  EATOM  =      1020.49086547
  ---------------------------------------------------
  free energy    TOTEN  =       -57.59051523 eV

  energy without entropy =      -57.59051523  energy(sigma->0) =      -57.59051523


--------------------------------------------------------------------------------------------------------




--------------------------------------- Iteration      1(  17)  ---------------------------------------


    POTLOK:  cpu time      0.2921: real time      0.2922
    SETDIJ:  cpu time      0.0018: real time      0.0018
    TRIAL :  cpu time      0.1038: real time      0.1038
    CORREC:  cpu time      0.3653: real time      0.3659
    CHARGE:  cpu time      0.0423: real time      0.0425
    --------------------------------------------
      LOOP:  cpu time      0.8205: real time      0.8373

 eigenvalue-minimisations  :     0
 total energy-change (2. order) :-0.8117612E-04  (-0.2709527E-04)
 number of electron      26.0000000 magnetization 
 augmentation part       -0.0675249 magnetization 

 Free energy of the ion-electron system (eV)
  ---------------------------------------------------
  alpha Z        PSCENC =         0.19661355
  Ewald energy   TEWEN  =      1675.06761068
  -Hartree energ DENC   =     -2500.24566160
  -exchange      EXHF   =         0.00000000
  -V(xc)+E(xc)   XCENC  =        68.80462741
  PAW double counting   =     10829.17279947   -10811.30984001
  entropy T*S    EENTRO =        -0.00000000
  eigenvalues    EBANDS =      -339.76761138
  atomic energy  EATOM  =      1020.49086547
  ---------------------------------------------------
  free energy    TOTEN  =       -57.59059641 eV

  energy without entropy =      -57.59059641  energy(sigma->0) =      -57.59059641


--------------------------------------------------------------------------------------------------------




--------------------------------------- Iteration      1(  18)  ---------------------------------------


    POTLOK:  cpu time      0.2906: real time      0.2906
    SETDIJ:  cpu time      0.0017: real time      0.0017
    TRIAL :  cpu time      0.1040: real time      0.1040
    CORREC:  cpu time      0.3642: real time      0.3644
    CHARGE:  cpu time      0.0425: real time      0.0427
    --------------------------------------------
      LOOP:  cpu time      0.8333: real time      0.8342

 eigenvalue-minimisations  :     0
 total energy-change (2. order) :-0.2717997E-04  (-0.9757247E-05)
 number of electron      26.0000000 magnetization 
 augmentation part       -0.0675233 magnetization 

 Free energy of the ion-electron system (eV)
  ---------------------------------------------------
  alpha Z        PSCENC =         0.19661355
  Ewald energy   TEWEN  =      1675.06761068
  -Hartree energ DENC   =     -2500.23950076
  -exchange      EXHF   =         0.00000000
  -V(xc)+E(xc)   XCENC  =        68.80461424
  PAW double counting   =     10826.76046703   -10808.89741222
  entropy T*S    EENTRO =        -0.00000000
  eigenvalues    EBANDS =      -339.77388158
  atomic energy  EATOM  =      1020.49086547
  ---------------------------------------------------
  free energy    TOTEN  =       -57.59062359 eV

  energy without entropy =      -57.59062359  energy(sigma->0) =      -57.59062359


--------------------------------------------------------------------------------------------------------




--------------------------------------- Iteration      1(  19)  ---------------------------------------


    POTLOK:  cpu time      0.2914: real time      0.2918
    SETDIJ:  cpu time      0.0018: real time      0.0018
    TRIAL :  cpu time      0.1041: real time      0.1041
    CORREC:  cpu time      0.3646: real time      0.3648
    CHARGE:  cpu time      0.0424: real time      0.0425
    --------------------------------------------
      LOOP:  cpu time      0.8194: real time      0.8374

 eigenvalue-minimisations  :     0
 total energy-change (2. order) :-0.9723150E-05  (-0.3859720E-05)
 number of electron      26.0000000 magnetization 
 augmentation part       -0.0675348 magnetization 

 Free energy of the ion-electron system (eV)
  ---------------------------------------------------
  alpha Z        PSCENC =         0.19661355
  Ewald energy   TEWEN  =      1675.06761068
  -Hartree energ DENC   =     -2500.24788300
  -exchange      EXHF   =         0.00000000
  -V(xc)+E(xc)   XCENC  =        68.80510951
  PAW double counting   =     10824.88974503   -10807.02675664
  entropy T*S    EENTRO =        -0.00000000
  eigenvalues    EBANDS =      -339.76593790
  atomic energy  EATOM  =      1020.49086547
  ---------------------------------------------------
  free energy    TOTEN  =       -57.59063331 eV

  energy without entropy =      -57.59063331  energy(sigma->0) =      -57.59063331


--------------------------------------------------------------------------------------------------------




--------------------------------------- Iteration      1(  20)  ---------------------------------------


    POTLOK:  cpu time      0.2893: real time      0.2898
    SETDIJ:  cpu time      0.0017: real time      0.0017
    TRIAL :  cpu time      0.1046: real time      0.1046
    CORREC:  cpu time      0.3648: real time      0.3651
    CHARGE:  cpu time      0.0424: real time      0.0426
    --------------------------------------------
      LOOP:  cpu time      0.8169: real time      0.8344

 eigenvalue-minimisations  :     0
 total energy-change (2. order) :-0.3808518E-05  (-0.1475457E-05)
 number of electron      26.0000000 magnetization 
 augmentation part       -0.0675448 magnetization 

 Free energy of the ion-electron system (eV)
  ---------------------------------------------------
  alpha Z        PSCENC =         0.19661355
  Ewald energy   TEWEN  =      1675.06761068
  -Hartree energ DENC   =     -2500.23650773
  -exchange      EXHF   =         0.00000000
  -V(xc)+E(xc)   XCENC  =        68.80478360
  PAW double counting   =     10824.34134048   -10806.47834116
  entropy T*S    EENTRO =        -0.00000000
  eigenvalues    EBANDS =      -339.77700201
  atomic energy  EATOM  =      1020.49086547
  ---------------------------------------------------
  free energy    TOTEN  =       -57.59063712 eV

  energy without entropy =      -57.59063712  energy(sigma->0) =      -57.59063712


--------------------------------------------------------------------------------------------------------




--------------------------------------- Iteration      1(  21)  ---------------------------------------


    POTLOK:  cpu time      0.2901: real time      0.2902
    SETDIJ:  cpu time      0.0018: real time      0.0018
    TRIAL :  cpu time      0.1061: real time      0.1067
    CORREC:  cpu time      0.3662: real time      0.3665
    CHARGE:  cpu time      0.0438: real time      0.0440
    --------------------------------------------
      LOOP:  cpu time      0.8369: real time      0.8385

 eigenvalue-minimisations  :     0
 total energy-change (2. order) :-0.1422632E-05  (-0.5215771E-06)
 number of electron      26.0000000 magnetization 
 augmentation part       -0.0675503 magnetization 

 Free energy of the ion-electron system (eV)
  ---------------------------------------------------
  alpha Z        PSCENC =         0.19661355
  Ewald energy   TEWEN  =      1675.06761068
  -Hartree energ DENC   =     -2500.23736963
  -exchange      EXHF   =         0.00000000
  -V(xc)+E(xc)   XCENC  =        68.80479897
  PAW double counting   =     10824.27214897   -10806.40915983
  entropy T*S    EENTRO =        -0.00000000
  eigenvalues    EBANDS =      -339.77614672
  atomic energy  EATOM  =      1020.49086547
  ---------------------------------------------------
  free energy    TOTEN  =       -57.59063854 eV

  energy without entropy =      -57.59063854  energy(sigma->0) =      -57.59063854


--------------------------------------------------------------------------------------------------------




--------------------------------------- Iteration      1(  22)  ---------------------------------------


    POTLOK:  cpu time      0.2898: real time      0.2898
    SETDIJ:  cpu time      0.0017: real time      0.0017
    TRIAL :  cpu time      0.1045: real time      0.1045
    CORREC:  cpu time      0.3686: real time      0.3693
    CHARGE:  cpu time      0.0428: real time      0.0430
    --------------------------------------------
      LOOP:  cpu time      0.8221: real time      0.8395

 eigenvalue-minimisations  :     0
 total energy-change (2. order) :-0.5074799E-06  (-0.2053874E-06)
 number of electron      26.0000000 magnetization 
 augmentation part       -0.0675534 magnetization 

 Free energy of the ion-electron system (eV)
  ---------------------------------------------------
  alpha Z        PSCENC =         0.19661355
  Ewald energy   TEWEN  =      1675.06761068
  -Hartree energ DENC   =     -2500.23456278
  -exchange      EXHF   =         0.00000000
  -V(xc)+E(xc)   XCENC  =        68.80467637
  PAW double counting   =     10824.20348791   -10806.34049708
  entropy T*S    EENTRO =        -0.00000000
  eigenvalues    EBANDS =      -339.77883316
  atomic energy  EATOM  =      1020.49086547
  ---------------------------------------------------
  free energy    TOTEN  =       -57.59063905 eV

  energy without entropy =      -57.59063905  energy(sigma->0) =      -57.59063905


--------------------------------------------------------------------------------------------------------




--------------------------------------- Iteration      1(  23)  ---------------------------------------


    POTLOK:  cpu time      0.2894: real time      0.2894
    SETDIJ:  cpu time      0.0017: real time      0.0017
    TRIAL :  cpu time      0.1058: real time      0.1058
    CORREC:  cpu time      0.3787: real time      0.3794
    CHARGE:  cpu time      0.0431: real time      0.0433
    --------------------------------------------
      LOOP:  cpu time      0.8353: real time      0.8509

 eigenvalue-minimisations  :     0
 total energy-change (2. order) :-0.2002780E-06  (-0.8414000E-07)
 number of electron      26.0000000 magnetization 
 augmentation part       -0.0675538 magnetization 

 Free energy of the ion-electron system (eV)
  ---------------------------------------------------
  alpha Z        PSCENC =         0.19661355
  Ewald energy   TEWEN  =      1675.06761068
  -Hartree energ DENC   =     -2500.23297242
  -exchange      EXHF   =         0.00000000
  -V(xc)+E(xc)   XCENC  =        68.80459069
  PAW double counting   =     10824.20385054   -10806.34085124
  entropy T*S    EENTRO =        -0.00000000
  eigenvalues    EBANDS =      -339.78034651
  atomic energy  EATOM  =      1020.49086547
  ---------------------------------------------------
  free energy    TOTEN  =       -57.59063925 eV

  energy without entropy =      -57.59063925  energy(sigma->0) =      -57.59063925


--------------------------------------------------------------------------------------------------------




--------------------------------------- Iteration      1(  24)  ---------------------------------------


    POTLOK:  cpu time      0.2922: real time      0.2922
    SETDIJ:  cpu time      0.0017: real time      0.0017
    TRIAL :  cpu time      0.1043: real time      0.1043
    CORREC:  cpu time      0.3714: real time      0.3717
    EDDIAG:  cpu time      0.0583: real time      0.0594
    CHARGE:  cpu time      0.0431: real time      0.0432
    --------------------------------------------
      LOOP:  cpu time      0.8826: real time      0.9065

 eigenvalue-minimisations  :     0
 total energy-change (2. order) :-0.8071038E-07  (-0.2494868E-07)
 number of electron      26.0000000 magnetization 
 augmentation part       -0.0675539 magnetization 

 Free energy of the ion-electron system (eV)
  ---------------------------------------------------
  alpha Z        PSCENC =         0.19661355
  Ewald energy   TEWEN  =      1675.06761068
  -Hartree energ DENC   =     -2500.23511018
  -exchange      EXHF   =         0.00000000
  -V(xc)+E(xc)   XCENC  =        68.80465036
  PAW double counting   =     10824.21373402   -10806.35074071
  entropy T*S    EENTRO =        -0.00000000
  eigenvalues    EBANDS =      -339.77826252
  atomic energy  EATOM  =      1020.49086547
  ---------------------------------------------------
  free energy    TOTEN  =       -57.59063933 eV

  energy without entropy =      -57.59063933  energy(sigma->0) =      -57.59063933


--------------------------------------------------------------------------------------------------------


  average scaling for gradient   0.9439


 average (electrostatic) potential at core
  the test charge radii are     0.5770  0.4325  0.5902
  (the norm of the test charge is              1.0000)
       1 -86.3967       2 -85.9225       3 -86.9664       4 -45.8485       5 -45.2342
       6 -45.1370       7 -47.9266       8-105.5698       9-103.7711



 E-fermi :  -6.0535     XC(G=0):  -0.1361     alpha+bet : -0.0573

 Fermi energy:        -6.0534594037

 k-point     1 :       0.0000    0.0000    0.0000
  band No.  band energies     occupation 
      1     -26.1626      2.00000
      2     -20.2851      2.00000
      3     -19.3011      2.00000
      4     -15.1030      2.00000
      5     -14.6946      2.00000
      6     -13.4031      2.00000
      7     -10.8644      2.00000
      8     -10.7246      2.00000
      9     -10.4171      2.00000
     10      -9.6480      2.00000
     11      -6.7813      2.00000
     12      -6.3718      2.00000
     13      -6.1328      2.00000
     14      -0.7217      0.00000
     15      -0.5987      0.00000
     16      -0.0391      0.00000
     17       0.1358      0.00000
     18       0.1895      0.00000
     19       0.2363      0.00000
     20       0.5044      0.00000


--------------------------------------------------------------------------------------------------------


 soft charge-density along one line, spin component           1
         0         1         2         3         4         5         6         7         8         9
 total charge-density along one line

 pseudopotential strength for first ion, spin component:           1
 12.731  21.425  -0.000  -0.003   0.006  -0.000  -0.005   0.010
 21.425  36.053  -0.000  -0.005   0.010  -0.001  -0.008   0.017
 -0.000  -0.000  -3.181   0.000   0.000  -5.702   0.000   0.000
 -0.003  -0.005   0.000  -3.181   0.000   0.000  -5.703   0.000
  0.006   0.010   0.000   0.000  -3.181   0.000   0.000  -5.703
 -0.000  -0.001  -5.702   0.000   0.000 -10.200   0.000   0.000
 -0.005  -0.008   0.000  -5.703   0.000   0.000 -10.201   0.001
  0.010   0.017   0.000   0.000  -5.703   0.000   0.001 -10.202
 total augmentation occupancy for first ion, spin component:           1
  7.919  -2.800  -0.577  -0.920   0.932   0.266   0.435  -0.455
 -2.800   1.041   0.280   0.469  -0.504  -0.126  -0.215   0.235
 -0.577   0.280   5.421   1.714   0.743  -1.706  -0.675  -0.299
 -0.920   0.469   1.714   5.155  -1.087  -0.675  -1.615   0.470
  0.932  -0.504   0.743  -1.087   7.210  -0.299   0.470  -2.517
  0.266  -0.126  -1.706  -0.675  -0.299   0.552   0.254   0.114
  0.435  -0.215  -0.675  -1.615   0.470   0.254   0.524  -0.194
 -0.455   0.235  -0.299   0.470  -2.517   0.114  -0.194   0.900


------------------------ aborting loop because EDIFF is reached ----------------------------------------


    FORLOC:  cpu time      0.0206: real time      0.0206
    FORNL :  cpu time      0.0145: real time      0.0149
    FORCOR:  cpu time      0.2549: real time      0.2550
    OFIELD:  cpu time      0.0027: real time      0.0027

  Hirshfeld charges:
            ion         q(e)     
   ------------------------------
      1     C       -0.03173033
      2     C       -0.09271780
      3     C       -0.02241931
      4     H        0.06088020
      5     H        0.05209379
      6     H        0.05462651
      7     H        0.15294817
      8     N       -0.01993345
      9     N       -0.15374778

  Atomic reference data used in the T-S method for vdW correction:
            C6at              R0at           ALPHAat      REFSTATE
            (au)              (au)            (au)                
   ---------------------------------------------------------------
   C          46.600          3.590         12.000         0
   H           6.500          3.099          4.500         0
   N          24.200          3.345          7.400         0

  Tkatchenko/Scheffler method for vdW energy calculation
  ---------------------------------------------------------------------------------------------

  Parameters of vdW forcefield:
            C6ts              R0ts           ALPHAts        RELVOL
            (au)              (au)            (au)                
   ---------------------------------------------------------------
   C          31.757          3.368          9.906          0.82551638
   C          30.945          3.354          9.779          0.81489342
   C          29.919          3.335          9.615          0.80126436
   H           2.272          2.601          2.661          0.59125961
   H           2.408          2.626          2.739          0.60866518
   H           2.480          2.639          2.779          0.61765382
   H           2.158          2.579          2.593          0.57624841
   N          17.212          3.160          6.241          0.84335412
   N          21.286          3.274          6.940          0.93785582

  vdW correction parametrized for the method pbe       

  IVDW =   2
  VDW_RADIUS =    50.000 A
  VDW_IDAMPF =  0
  VDW_S6 =     1.000
  VDW_SR =     0.940
  VDW_D =    20.000
  LVDW_ONECELL = F F F
  LVDW_SAMETYPE T T T
  LVDW_EWALD = F

  Number of pair interactions contributing to vdW energy:    2272
  Edisp (eV):   -0.03856
    FORVDW:  cpu time      6.3955: real time      6.3985

 VOLUME and BASIS-vectors are now :
 -----------------------------------------------------------------------------
  energy-cutoff  :     1000.00
  volume of cell :    10648.00
      direct lattice vectors                 reciprocal lattice vectors
    22.000000000  0.000000000  0.000000000     0.045454545  0.000000000  0.000000000
     0.000000000 22.000000000  0.000000000     0.000000000  0.045454545  0.000000000
     0.000000000  0.000000000 22.000000000     0.000000000  0.000000000  0.045454545

  length of vectors
    22.000000000 22.000000000 22.000000000     0.045454545  0.045454545  0.045454545


 FORCES acting on ions:
    Electron-Ion                     Ewald-Force                    Non-Local-Force
 -----------------------------------------------------------------------------------------------
   0.838E+02 -.136E+03 -.158E+03   -.870E+02 0.136E+03 0.159E+03   0.318E+01 0.348E-01 -.134E+01
   0.204E+03 0.315E+02 -.600E+02   -.205E+03 -.310E+02 0.607E+02   0.368E+00 -.546E+00 -.652E+00
   0.966E+02 0.170E+03 0.111E+03   -.104E+03 -.172E+03 -.109E+03   0.785E+01 0.183E+01 -.172E+01
   0.230E+02 0.628E+02 0.463E+02   -.245E+02 -.675E+02 -.498E+02   0.145E+01 0.460E+01 0.349E+01
   0.755E+02 0.128E+02 -.209E+02   -.811E+02 -.138E+02 0.225E+02   0.559E+01 0.959E+00 -.154E+01
   0.168E+02 -.556E+02 -.571E+02   -.178E+02 0.598E+02 0.613E+02   0.989E+00 -.414E+01 -.414E+01
   -.786E+02 0.272E+02 0.585E+02   0.847E+02 -.291E+02 -.629E+02   -.608E+01 0.185E+01 0.431E+01
   -.175E+03 0.929E+02 0.159E+03   0.175E+03 -.958E+02 -.161E+03   0.526E+00 0.310E+01 0.247E+01
   -.229E+03 -.187E+03 -.685E+02   0.260E+03 0.214E+03 0.794E+02   -.310E+02 -.275E+02 -.112E+02
 -----------------------------------------------------------------------------------------------
   0.171E+02 0.198E+02 0.103E+02   0.000E+00 0.000E+00 0.568E-13   -.171E+02 -.198E+02 -.103E+02


 POSITION                                       TOTAL-FORCE (eV/Angst)
 -----------------------------------------------------------------------------------
     11.01592     11.87822     11.66173         0.006778     -0.054919     -0.056270
     10.13162     10.89700     11.16415        -0.012890      0.025719      0.025178
     10.86960     10.20273     10.22385         0.089972      0.039248     -0.001567
     10.62191      9.36726      9.58344        -0.027875     -0.078856     -0.061205
      9.10345     10.71911     11.44618        -0.086152     -0.021203      0.023226
     10.83243     12.63274     12.41656        -0.008402      0.066872      0.063675
     12.89655     10.52869      9.63866         0.039700     -0.007219     -0.020335
     12.10054     10.77938     10.20966        -0.063672      0.139743      0.149275
     12.21825     11.80899     11.08057         0.062541     -0.109385     -0.121976
 -----------------------------------------------------------------------------------
    total drift:                                0.000100      0.000362      0.000109


--------------------------------------------------------------------------------------------------------



  FREE ENERGIE OF THE ION-ELECTRON SYSTEM (eV)
  ---------------------------------------------------
  free  energy   TOTEN  =       -57.62920000 eV

  energy  without entropy=      -57.62920000  energy(sigma->0) =      -57.62920000



--------------------------------------------------------------------------------------------------------


    POTLOK:  cpu time      0.2998: real time      0.3005


--------------------------------------------------------------------------------------------------------


 stress matrix after NEB project (eV)
     -0.01755      0.00033      0.00782
      0.00033     -0.01916     -0.01726
      0.00782     -0.01726     -0.01887
  FORCES: max atom, RMS     0.214161    0.117255
  FORCE total and by dimension    0.351765    0.149275
  Stress total and by dimension    0.041829    0.019155
     LOOP+:  cpu time     24.7003: real time     25.0087
    4ORBIT:  cpu time      0.0000: real time      0.0000

 total amount of memory used by VASP MPI-rank0    61522. kBytes
=======================================================================

   base      :      30000. kBytes
   nonl-proj :       1002. kBytes
   fftplans  :      10395. kBytes
   grid      :      19407. kBytes
   one-center:          1. kBytes
   wavefun   :        717. kBytes

  
  
 General timing and accounting informations for this job:
 ========================================================
  
                  Total CPU time used (sec):       76.225
                            User time (sec):       74.180
                          System time (sec):        2.044
                         Elapsed time (sec):       96.676
  
                   Maximum memory used (kb):      246752.
                   Average memory used (kb):          N/A
  
                          Minor page faults:       156254
                          Major page faults:          304
                 Voluntary context switches:        11695
