 vasp.6.4.1 05Apr23 (build Jun  6 2023 14:46:38) gamma-only                      
 executed on        HPECrayEX_GCC date 2024.08.22  03:51:36
 running  512 mpi-ranks, with    1 threads/rank, on    4 nodes
 distrk:  each k-point on  512 cores,    1 groups
 distr:  one band on NCORE= 128 cores,    4 groups


--------------------------------------------------------------------------------------------------------


 INCAR:
   ALGO = Conjugate
   NPAR = 4
   ISMEAR = 0
   SIGMA = 0.01
   PREC = Accurate
   EDIFF = 1E-7
   ENCUT = 1000
   ISIF = 0
   GGA = RE
   LUSE_VDW = .TRUE.
   AGGAC = 0.0000
   LASPH = .TRUE.
   LWAVE = .FALSE.
   LCHARG = .FALSE.

 POTCAR:    PAW_PBE C_h 06Feb2004                 
 POTCAR:    PAW_PBE H_h 06Feb2004                 
 POTCAR:    PAW_PBE N_h 06Feb2004                 
 -----------------------------------------------------------------------------
|                                                                             |
|               ----> ADVICE to this user running VASP <----                  |
|                                                                             |
|     You have switched on vdW-DFT.                                           |
|     This routine was written and supplied by Jiri Klimes. We recommend      |
|     that you carefully read and cite the following publications:            |
|       J. Klimes, D.R. Bowler, A. Michelides                                 |
|          J. Phys.: Cond Matt. 22 022201 (2010)                              |
|       J. Klimes, D.R. Bowler, A. Michelides                                 |
|          Phys. Rev. B. 83, 195131 (2011)                                    |
|     and references therein.                                                 |
|                                                                             |
 -----------------------------------------------------------------------------

 POTCAR:    PAW_PBE C_h 06Feb2004                 
   VRHFIN =C: s2p2                                                                                  
   LEXCH  = PE                                                                                      
   EATOM  =   147.1560 eV,   10.8157 Ry                                                             
                                                                                                    
   TITEL  = PAW_PBE C_h 06Feb2004                                                                   
   LULTRA =        F    use ultrasoft PP ?                                                          
   IUNSCR =        1    unscreen: 0-lin 1-nonlin 2-no                                               
   RPACOR =    0.800    partial core radius                                                         
   POMASS =   12.011; ZVAL   =    4.000    mass and valenz                                          
   RCORE  =    1.100    outmost cutoff radius                                                       
   RWIGS  =    1.630; RWIGS  =    0.863    wigner-seitz radius (au A)                               
   ENMAX  =  700.000; ENMIN  =  500.000 eV                                                          
   ICORE  =        2    local potential                                                             
   LCOR   =        T    correct aug charges                                                         
   LPAW   =        T    paw PP                                                                      
   EAUG   =  946.768                                                                                
   DEXC   =    0.000                                                                                
   RMAX   =    1.128    core radius for proj-oper                                                   
   RAUG   =    1.300    factor for augmentation sphere                                              
   RDEP   =    1.162    radius for radial grids                                                     
   RDEPT  =    1.088    core radius for aug-charge                                                  
                                                                                                    
   Atomic configuration                                                                             
    4 entries                                                                                       
     n  l   j            E        occ.                                                              
     1  0  0.50      -273.3789   2.0000                                                             
     2  0  0.50       -13.7508   2.0000                                                             
     2  1  0.50        -5.2854   2.0000                                                             
     3  2  1.50        -5.4423   0.0000                                                             
   Description                                                                                      
     l       E           TYP  RCUT    TYP  RCUT                                                     
     0    -13.7508458     23  1.100                                                                 
     0     -8.2022199     23  1.100                                                                 
     1     -5.2854383     23  1.100                                                                 
     1      1.1560700     23  1.100                                                                 
     2     -5.4423304      7  1.100                                                                 
  local pseudopotential read in
  partial core-charges read in
  partial kinetic energy density read in
  atomic valenz-charges read in
  non local Contribution for L=           0  read in
    real space projection operators read in
  non local Contribution for L=           0  read in
    real space projection operators read in
  non local Contribution for L=           1  read in
    real space projection operators read in
  non local Contribution for L=           1  read in
    real space projection operators read in
    PAW grid and wavefunctions read in

   number of l-projection  operators is LMAX  =           4
   number of lm-projection operators is LMMAX =           8

 POTCAR:    PAW_PBE H_h 06Feb2004                 
   VRHFIN =H: ultrasoft test                                                                        
   LEXCH  = PE                                                                                      
   EATOM  =    12.4884 eV,    0.9179 Ry                                                             
                                                                                                    
   TITEL  = PAW_PBE H_h 06Feb2004                                                                   
   LULTRA =        F    use ultrasoft PP ?                                                          
   IUNSCR =        0    unscreen: 0-lin 1-nonlin 2-no                                               
   RPACOR =    0.000    partial core radius                                                         
   POMASS =    1.000; ZVAL   =    1.000    mass and valenz                                          
   RCORE  =    0.800    outmost cutoff radius                                                       
   RWIGS  =    0.700; RWIGS  =    0.370    wigner-seitz radius (au A)                               
   ENMAX  =  700.000; ENMIN  =  350.000 eV                                                          
   RCLOC  =    0.701    cutoff for local pot                                                        
   LCOR   =        T    correct aug charges                                                         
   LPAW   =        T    paw PP                                                                      
   EAUG   = 1000.000                                                                                
   RMAX   =    0.819    core radius for proj-oper                                                   
   RAUG   =    1.000    factor for augmentation sphere                                              
   RDEP   =    0.817    radius for radial grids                                                     
   RDEPT  =    0.817    core radius for aug-charge                                                  
                                                                                                    
   Atomic configuration                                                                             
    2 entries                                                                                       
     n  l   j            E        occ.                                                              
     1  0  0.50        -6.4927   1.0000                                                             
     2  1  0.50        -3.4015   0.0000                                                             
   Description                                                                                      
     l       E           TYP  RCUT    TYP  RCUT                                                     
     0     -6.4927493     23  0.800                                                                 
     0      6.8029130     23  0.800                                                                 
     1     -6.8029130     23  0.800                                                                 
  local pseudopotential read in
  atomic valenz-charges read in
  non local Contribution for L=           0  read in
    real space projection operators read in
  non local Contribution for L=           0  read in
    real space projection operators read in
  non local Contribution for L=           1  read in
    real space projection operators read in
    PAW grid and wavefunctions read in

   number of l-projection  operators is LMAX  =           3
   number of lm-projection operators is LMMAX =           5

 POTCAR:    PAW_PBE N_h 06Feb2004                 
   VRHFIN =N: s2p3                                                                                  
   LEXCH  = PE                                                                                      
   EATOM  =   264.5486 eV,   19.4438 Ry                                                             
                                                                                                    
   TITEL  = PAW_PBE N_h 06Feb2004                                                                   
   LULTRA =        F    use ultrasoft PP ?                                                          
   IUNSCR =        1    unscreen: 0-lin 1-nonlin 2-no                                               
   RPACOR =    0.800    partial core radius                                                         
   POMASS =   14.001; ZVAL   =    5.000    mass and valenz                                          
   RCORE  =    1.100    outmost cutoff radius                                                       
   RWIGS  =    1.480; RWIGS  =    0.783    wigner-seitz radius (au A)                               
   ENMAX  =  700.000; ENMIN  =  500.000 eV                                                          
   ICORE  =        2    local potential                                                             
   LCOR   =        T    correct aug charges                                                         
   LPAW   =        T    paw PP                                                                      
   EAUG   =  904.640                                                                                
   DEXC   =    0.000                                                                                
   RMAX   =    1.127    core radius for proj-oper                                                   
   RAUG   =    1.300    factor for augmentation sphere                                              
   RDEP   =    1.115    radius for radial grids                                                     
   RDEPT  =    1.106    core radius for aug-charge                                                  
                                                                                                    
   Atomic configuration                                                                             
    4 entries                                                                                       
     n  l   j            E        occ.                                                              
     1  0  0.50      -384.7179   2.0000                                                             
     2  0  0.50       -18.5828   2.0000                                                             
     2  1  0.50        -7.0898   3.0000                                                             
     3  2  1.50        -6.8029   0.0000                                                             
   Description                                                                                      
     l       E           TYP  RCUT    TYP  RCUT                                                     
     0    -18.5828117     23  1.100                                                                 
     0    -15.0750597     23  1.100                                                                 
     1     -7.0897851     23  1.100                                                                 
     1     -1.9663412     23  1.100                                                                 
     2     -6.8029130      7  1.100                                                                 
  local pseudopotential read in
  partial core-charges read in
  partial kinetic energy density read in
  kinetic energy density of atom read in
  atomic valenz-charges read in
  non local Contribution for L=           0  read in
    real space projection operators read in
  non local Contribution for L=           0  read in
    real space projection operators read in
  non local Contribution for L=           1  read in
    real space projection operators read in
  non local Contribution for L=           1  read in
    real space projection operators read in
    PAW grid and wavefunctions read in

   number of l-projection  operators is LMAX  =           4
   number of lm-projection operators is LMMAX =           8

 -----------------------------------------------------------------------------
|                                                                             |
|               ----> ADVICE to this user running VASP <----                  |
|                                                                             |
|     You enforced a specific xc type in the INCAR file but a different       |
|     type was found in the POTCAR file.                                      |
|     I HOPE YOU KNOW WHAT YOU ARE DOING!                                     |
|                                                                             |
 -----------------------------------------------------------------------------

  PAW_PBE C_h 06Feb2004                 :
 energy of atom  1       EATOM= -147.1560
 kinetic energy error for atom=    0.0031 (will be added to EATOM!!)
  PAW_PBE H_h 06Feb2004                 :
 energy of atom  2       EATOM=  -12.4884
 kinetic energy error for atom=    0.0006 (will be added to EATOM!!)
  PAW_PBE N_h 06Feb2004                 :
 energy of atom  3       EATOM= -264.5486
 kinetic energy error for atom=    0.0081 (will be added to EATOM!!)


 POSCAR:  C  H  N
  positions in cartesian coordinates
  No initial velocities read in
 exchange correlation table for  LEXCH =       40
   RHO(1)=    0.500       N(1)  =     2000
   RHO(2)=  100.500       N(2)  =     4000

 VTST: version 4.1, (05/19/21)

 CHAIN: initializing optimizer
 
 OPT: Using VASP Dynamics algorithm
 CHAIN: Read ICHAIN            0

 POSCAR:  C  H  N
  positions in cartesian coordinates
  No initial velocities read in



--------------------------------------------------------------------------------------------------------


 ion  position               nearest neighbor table
   1  0.501  0.540  0.530-   6 1.08   9 1.34   2 1.41
   2  0.461  0.495  0.507-   5 1.08   3 1.38   1 1.41
   3  0.494  0.464  0.465-   4 1.08   8 1.36   2 1.38
   4  0.483  0.426  0.436-   3 1.08
   5  0.414  0.487  0.520-   2 1.08
   6  0.492  0.574  0.564-   1 1.08
   7  0.586  0.479  0.438-   8 1.01
   8  0.550  0.490  0.464-   7 1.01   9 1.35   3 1.36
   9  0.555  0.537  0.504-   1 1.34   8 1.35

  LATTYP: Found a simple cubic cell.
 ALAT       =    22.0000000000
  
  Lattice vectors:
  
 A1 = (  22.0000000000,   0.0000000000,   0.0000000000)
 A2 = (   0.0000000000,  22.0000000000,   0.0000000000)
 A3 = (   0.0000000000,   0.0000000000,  22.0000000000)


Analysis of symmetry for initial positions (statically):
=====================================================================
 Subroutine PRICEL returns:
 Original cell was already a primitive cell.
 

 Routine SETGRP: Setting up the symmetry group for a 
 simple cubic supercell.


 Subroutine GETGRP returns: Found  1 space group operations
 (whereof  1 operations were pure point group operations)
 out of a pool of 48 trial point group operations.


The static configuration has the point symmetry C_1 .


Analysis of symmetry for dynamics (positions and initial velocities):
=====================================================================
 Subroutine PRICEL returns:
 Original cell was already a primitive cell.
 

 Routine SETGRP: Setting up the symmetry group for a 
 simple cubic supercell.


 Subroutine GETGRP returns: Found  1 space group operations
 (whereof  1 operations were pure point group operations)
 out of a pool of 48 trial point group operations.


The dynamic configuration has the point symmetry C_1 .


 Subroutine INISYM returns: Found  1 space group operations
 (whereof  1 operations are pure point group operations),
 and found     1 'primitive' translations


----------------------------------------------------------------------------------------

                                     Primitive cell                                     

  volume of cell :   10648.0000

  direct lattice vectors                    reciprocal lattice vectors
    22.000000000  0.000000000  0.000000000     0.045454545  0.000000000  0.000000000
     0.000000000 22.000000000  0.000000000     0.000000000  0.045454545  0.000000000
     0.000000000  0.000000000 22.000000000     0.000000000  0.000000000  0.045454545

  length of vectors
    22.000000000 22.000000000 22.000000000     0.045454545  0.045454545  0.045454545

  position of ions in fractional coordinates (direct lattice)
     0.500723409  0.539918864  0.530078409
     0.460527955  0.495318409  0.507461591
     0.494072955  0.463760227  0.464720227
     0.482814318  0.425784318  0.435610682
     0.413793409  0.487232500  0.520281136
     0.492382955  0.574215682  0.564389318
     0.586206591  0.478577045  0.438121136
     0.550024318  0.489972045  0.464075682
     0.555375227  0.536772045  0.503662500

  ion indices of the primitive-cell ions
   primitive index   ion index
                 1           1
                 2           2
                 3           3
                 4           4
                 5           5
                 6           6
                 7           7
                 8           8
                 9           9

----------------------------------------------------------------------------------------



 KPOINTS: auto                                    

Automatic generation of k-mesh.
 Grid dimensions read from file:
 generate k-points for:    1    1    1

 Generating k-lattice:

  Cartesian coordinates                     Fractional coordinates (reciprocal lattice)
     0.045454545  0.000000000  0.000000000     1.000000000  0.000000000  0.000000000
     0.000000000  0.045454545  0.000000000     0.000000000  1.000000000  0.000000000
     0.000000000  0.000000000  0.045454545     0.000000000  0.000000000  1.000000000

  Length of vectors
     0.045454545  0.045454545  0.045454545

  Shift w.r.t. Gamma in fractional coordinates (k-lattice)
     0.000000000  0.000000000  0.000000000

 
 Subroutine IBZKPT returns following result:
 ===========================================
 
 Found      1 irreducible k-points:
 
 Following reciprocal coordinates:
            Coordinates               Weight
  0.000000  0.000000  0.000000      1.000000
 
 Following cartesian coordinates:
            Coordinates               Weight
  0.000000  0.000000  0.000000      1.000000
 


--------------------------------------------------------------------------------------------------------




 Dimension of arrays:
   k-points           NKPTS =      1   k-points in BZ     NKDIM =      1   number of bands    NBANDS=     20
   number of dos      NEDOS =    301   number of ions     NIONS =      9
   non local maximal  LDIM  =      4   non local SUM 2l+1 LMDIM =      8
   total plane-waves  NPLWV = ******
   max r-space proj   IRMAX =      1   max aug-charges    IRDMAX=   9419
   dimension x,y,z NGX =   240 NGY =  240 NGZ =  240
   dimension x,y,z NGXF=   480 NGYF=  480 NGZF=  480
   support grid    NGXF=   480 NGYF=  480 NGZF=  480
   ions per type =               3   4   2
   NGX,Y,Z   is equivalent  to a cutoff of  18.14, 18.14, 18.14 a.u.
   NGXF,Y,Z  is equivalent  to a cutoff of  36.27, 36.27, 36.27 a.u.

 SYSTEM =  unknown system                          
 POSCAR =   C  H  N                                

 Startparameter for this run:
   NWRITE =      2    write-flag & timer
   PREC   = accura    normal or accurate (medium, high low for compatibility)
   ISTART =      0    job   : 0-new  1-cont  2-samecut
   ICHARG =      2    charge: 1-file 2-atom 10-const
   ISPIN  =      1    spin polarized calculation?
   LNONCOLLINEAR =      F non collinear calculations
   LSORBIT =      F    spin-orbit coupling
   INIWAV =      1    electr: 0-lowe 1-rand  2-diag
   LASPH  =      T    aspherical Exc in radial PAW
 Electronic Relaxation 1
   ENCUT  = 1000.0 eV  73.50 Ry    8.57 a.u.  56.73 56.73 56.73*2*pi/ulx,y,z
   ENINI  = 1000.0     initial cutoff
   ENAUG  = 1000.0 eV  augmentation charge cutoff
   NELM   =     60;   NELMIN=  2; NELMDL= -5     # of ELM steps 
   EDIFF  = 0.1E-06   stopping-criterion for ELM
   LREAL  =      F    real-space projection
   NLSPLINE    = F    spline interpolate recip. space projectors
   LCOMPAT=      F    compatible to vasp.4.4
   GGA_COMPAT  = T    GGA compatible to vasp.4.4-vasp.4.6
   LMAXPAW     = -100 max onsite density
   LMAXMIX     =    2 max onsite mixed and CHGCAR
   VOSKOWN=      0    Vosko Wilk Nusair interpolation
   ROPT   =    0.00000   0.00000   0.00000
 Ionic relaxation
   EDIFFG = 0.1E-05   stopping-criterion for IOM
   NSW    =      0    number of steps for IOM
   NBLOCK =      1;   KBLOCK =      1    inner block; outer block 
   IBRION =     -1    ionic relax: 0-MD 1-quasi-New 2-CG
   NFREE  =      0    steps in history (QN), initial steepest desc. (CG)
   ISIF   =      0    stress and relaxation
   IWAVPR =     10    prediction:  0-non 1-charg 2-wave 3-comb
   ISYM   =      2    0-nonsym 1-usesym 2-fastsym
   LCORR  =      T    Harris-Foulkes like correction to forces

   POTIM  = 0.5000    time-step for ionic-motion
   TEIN   =    0.0    initial temperature
   TEBEG  =    0.0;   TEEND  =   0.0 temperature during run
   SMASS  =  -3.00    Nose mass-parameter (am)
   estimated Nose-frequenzy (Omega)   =  0.10E-29 period in steps = 0.13E+47 mass=  -0.111E-25a.u.
   SCALEE = 1.0000    scale energy and forces
   NPACO  =    256;   APACO  = 10.0  distance and # of slots for P.C.
   PSTRESS=    0.0 pullay stress

  Mass of Ions in am
   POMASS =  12.01  1.00 14.00
  Ionic Valenz
   ZVAL   =   4.00  1.00  5.00
  Atomic Wigner-Seitz radii
   RWIGS  =  -1.00 -1.00 -1.00
  virtual crystal weights 
   VCA    =   1.00  1.00  1.00
   NELECT =      26.0000    total number of electrons
   NUPDOWN=      -1.0000    fix difference up-down

 DOS related values:
   EMIN   =  10.00;   EMAX   =-10.00  energy-range for DOS
   EFERMI =   0.00;   METHOD = LEGACY      
   ISMEAR =     0;   SIGMA  =   0.01  broadening in eV -4-tet -1-fermi 0-gaus

 Electronic relaxation 2 (details)
   IALGO  =     58    algorithm
   LDIAG  =      T    sub-space diagonalisation (order eigenvalues)
   LSUBROT=      F    optimize rotation matrix (better conditioning)
   TURBO    =      0    0=normal 1=particle mesh
   IRESTART =      0    0=no restart 2=restart with 2 vectors
   NREBOOT  =      0    no. of reboots
   NMIN     =      0    reboot dimension
   EREF     =   0.00    reference energy to select bands
   IMIX   =      4    mixing-type and parameters
     AMIX     =   0.40;   BMIX     =  1.00
     AMIX_MAG =   1.60;   BMIX_MAG =  1.00
     AMIN     =   0.10
     WC   =   100.;   INIMIX=   1;  MIXPRE=   1;  MAXMIX= -45

 Intra band minimization:
   WEIMIN = 0.0000     energy-eigenvalue tresh-hold
   EBREAK =  0.13E-08  absolut break condition
   DEPER  =   0.30     relativ break condition  

   TIME   =   0.40     timestep for ELM

  volume/ion in A,a.u.               =    1183.11      7984.03
  Fermi-wavevector in a.u.,A,eV,Ry     =   0.220450  0.416590  0.661218  0.048598
  Thomas-Fermi vector in A             =   1.001172

 Write flags
   LWAVE        =      F    write WAVECAR
   LDOWNSAMPLE  =      F    k-point downsampling of WAVECAR
   LCHARG       =      F    write CHGCAR
   LVTOT        =      F    write LOCPOT, total local potential
   LVHAR        =      F    write LOCPOT, Hartree potential only
   LELF         =      F    write electronic localiz. function (ELF)
   LORBIT       =      0    0 simple, 1 ext, 2 COOP (PROOUT), +10 PAW based schemes


 Dipole corrections
   LMONO  =      F    monopole corrections only (constant potential shift)
   LDIPOL =      F    correct potential (dipole corrections)
   IDIPOL =      0    1-x, 2-y, 3-z, 4-all directions 
   EPSILON=  1.0000000 bulk dielectric constant

 Exchange correlation treatment:
   GGA     =    RE    GGA type
   LEXCH   =    40    internal setting for exchange type
   LIBXC   =     F    Libxc                    
   VOSKOWN =     0    Vosko Wilk Nusair interpolation
   LHFCALC =     F    Hartree Fock is set to
   LHFONE  =     F    Hartree Fock one center treatment
   AEXX    =    0.0000 exact exchange contribution

 vdW DFT:
   LUSE_VDW   =     T    switch on vdW DFT
   IVDW_NL    =     1    kernel type
   LSPIN_VDW  =     F    use spin-polarized vdW DFT
   Zab_VDW    =-.8491    correlation parameter
   PARAM1     =0.1234
   PARAM2     =1.0000
   PARAM3     =0.0000
   -- rVV10 --
   BPARAM     = 6.3000
   CPARAM     = 0.0093

 Linear response parameters
   LEPSILON=     F    determine dielectric tensor
   LRPA    =     F    only Hartree local field effects (RPA)
   LNABLA  =     F    use nabla operator in PAW spheres
   LVEL    =     F    velocity operator in full k-point grid
   CSHIFT  =0.1000    complex shift for real part using Kramers Kronig
   OMEGAMAX=  -1.0    maximum frequency
   DEG_THRESHOLD= 0.2000000E-02 threshold for treating states as degnerate
   RTIME   =   -0.100 relaxation time in fs
  (WPLASMAI=    0.000 imaginary part of plasma frequency in eV, 0.658/RTIME)
   DFIELD  = 0.0000000 0.0000000 0.0000000 field for delta impulse in time

  Optional k-point grid parameters
   LKPOINTS_OPT  =     F    use optional k-point grid
   KPOINTS_OPT_MODE=     1    mode for optional k-point grid

 Orbital magnetization related:
   ORBITALMAG=     F  switch on orbital magnetization
   LCHIMAG   =     F  perturbation theory with respect to B field
   DQ        =  0.001000  dq finite difference perturbation B field
   LLRAUG    =     F  two centre corrections for induced B field
   LBONE     =     F  B-component reconstruction in AE one-centre
   LVGVCALC  =     T  calculate vGv susceptibility
   LVGVAPPL  =     F  apply vGv susceptibility instead of pGv for G=0

 Random number generation:
   RANDOM_GENERATOR = DEFAULT
   PCG_SEED         = not used


--------------------------------------------------------------------------------------------------------


 Static calculation
 charge density and potential will be updated during run
 non-spin polarized calculation
 Conjugate gradient for all bands (Freysoldt, et al. PRB 79, 241103 (2009))
 preconditioned conjugated gradient                                        
 perform sub-space diagonalisation
    before iterative eigenvector-optimisation
 modified Broyden-mixing scheme, WC =      100.0
 initial mixing is a Kerker type mixing with AMIX =  0.4000 and BMIX =      1.0000
 Hartree-type preconditioning will be used
 using additional bands            7
 reciprocal scheme for non local part
 use partial core corrections
 no Harris-corrections to forces 
 use gradient corrections 
 use of overlap-Matrix (Vanderbilt PP)
 Gauss-broadening in eV      SIGMA  =   0.01


--------------------------------------------------------------------------------------------------------


  energy-cutoff  :     1000.00
  volume of cell :    10648.00
      direct lattice vectors                 reciprocal lattice vectors
    22.000000000  0.000000000  0.000000000     0.045454545  0.000000000  0.000000000
     0.000000000 22.000000000  0.000000000     0.000000000  0.045454545  0.000000000
     0.000000000  0.000000000 22.000000000     0.000000000  0.000000000  0.045454545

  length of vectors
    22.000000000 22.000000000 22.000000000     0.045454545  0.045454545  0.045454545



 k-points in units of 2pi/SCALE and weight: auto                                    
   0.00000000  0.00000000  0.00000000       1.000

 k-points in reciprocal lattice and weights: auto                                    
   0.00000000  0.00000000  0.00000000       1.000

 position of ions in fractional coordinates (direct lattice) 
   0.50072341  0.53991886  0.53007841
   0.46052795  0.49531841  0.50746159
   0.49407295  0.46376023  0.46472023
   0.48281432  0.42578432  0.43561068
   0.41379341  0.48723250  0.52028114
   0.49238295  0.57421568  0.56438932
   0.58620659  0.47857705  0.43812114
   0.55002432  0.48997205  0.46407568
   0.55537523  0.53677205  0.50366250

 position of ions in cartesian coordinates  (Angst):
  11.01591500 11.87821500 11.66172500
  10.13161500 10.89700500 11.16415500
  10.86960500 10.20272500 10.22384500
  10.62191500  9.36725500  9.58343500
   9.10345500 10.71911500 11.44618500
  10.83242500 12.63274500 12.41656500
  12.89654500 10.52869500  9.63866500
  12.10053500 10.77938500 10.20966500
  12.21825500 11.80898500 11.08057500



--------------------------------------------------------------------------------------------------------


 use parallel FFT for orbitals z direction half grid
 k-point   1 :   0.0000 0.0000 0.0000  plane waves:  381993

 maximum and minimum number of plane-waves per node :      2992     2977

 maximum number of plane-waves:    381993
 maximum index in each direction: 
   IXMAX=   56   IYMAX=   56   IZMAX=   56
   IXMIN=  -56   IYMIN=  -56   IZMIN=    0


 parallel 3D FFT for wavefunctions:
    minimum data exchange during FFTs selected (reduces bandwidth)
 parallel 3D FFT for charge:
    minimum data exchange during FFTs selected (reduces bandwidth)


 total amount of memory used by VASP MPI-rank0    61522. kBytes
=======================================================================

   base      :      30000. kBytes
   nonl-proj :       1002. kBytes
   fftplans  :      10395. kBytes
   grid      :      19407. kBytes
   one-center:          1. kBytes
   wavefun   :        717. kBytes

     INWAV:  cpu time      0.0001: real time      0.0003
 Broyden mixing: mesh for mixing (old mesh)
   NGX =113   NGY =113   NGZ =113
  (NGX  =480   NGY  =480   NGZ  =480)
  gives a total of ****** points

 initial charge density was supplied:
 charge density of overlapping atoms calculated
 number of electron      26.0000000 magnetization 
 keeping initial charge density in first step


--------------------------------------------------------------------------------------------------------


 Maximum index for augmentation-charges            0 (set IRDMAX)


--------------------------------------------------------------------------------------------------------


 First call to EWALD:  gamma=   0.081
 Maximum number of real-space cells 3x 3x 3
 Maximum number of reciprocal cells 3x 3x 3

    FEWALD:  cpu time      0.0021: real time      0.0021


--------------------------------------- Ionic step        1  -------------------------------------------




--------------------------------------- Iteration      1(   1)  ---------------------------------------


vdW kernel read from vdw_kernel.bindat
  0.0000  0.2424  0.5071  0.7962  1.1119  1.4567  1.8333  2.2446  2.6937  3.1842
  3.7199  4.3049  4.9438  5.6415  6.4036  7.2358  8.1446  9.1372 10.2212 11.4050
 12.6979 14.1099 15.6519 17.3360 19.1751 21.1837 23.3773 25.7729 28.3892 31.2465
 34.3669 37.7748 41.4965 45.5611 50.0000

    POTLOK:  cpu time     11.3823: real time     11.3934
    SETDIJ:  cpu time      0.0745: real time      0.0750
    TRIAL :  cpu time      0.2664: real time      0.2683
    CORREC:  cpu time      0.0019: real time      0.0019
    --------------------------------------------
      LOOP:  cpu time     11.7303: real time     11.7441

 eigenvalue-minimisations  :    56
 total energy-change (2. order) : 0.2619766E+03  (-0.6343554E+03)
 number of electron      26.0000000 magnetization 
 augmentation part       26.0000000 magnetization 

 Free energy of the ion-electron system (eV)
  ---------------------------------------------------
  alpha Z        PSCENC =         0.19661355
  Ewald energy   TEWEN  =      1675.06761068
  -Hartree energ DENC   =     -2384.33129516
  -exchange      EXHF   =         0.00000000
  -V(xc)+E(xc)   XCENC  =        60.32445535
  PAW double counting   =       765.29479429     -744.52427439
  entropy T*S    EENTRO =        -0.00001261
  eigenvalues    EBANDS =      -145.06893348
  atomic energy  EATOM  =      1035.01767811
  ---------------------------------------------------
  free energy    TOTEN  =       261.97663633 eV

  energy without entropy =      261.97664894  energy(sigma->0) =      261.97664264


--------------------------------------------------------------------------------------------------------




--------------------------------------- Iteration      1(   2)  ---------------------------------------


    TRIAL :  cpu time      0.2829: real time      0.2830
    CORREC:  cpu time      0.0001: real time      0.0001
    --------------------------------------------
      LOOP:  cpu time      0.2971: real time      0.3106

 eigenvalue-minimisations  :    76
 total energy-change (2. order) :-0.1791329E+03  (-0.1782160E+03)
 number of electron      26.0000000 magnetization 
 augmentation part       26.0000000 magnetization 

 Free energy of the ion-electron system (eV)
  ---------------------------------------------------
  alpha Z        PSCENC =         0.19661355
  Ewald energy   TEWEN  =      1675.06761068
  -Hartree energ DENC   =     -2384.33129516
  -exchange      EXHF   =         0.00000000
  -V(xc)+E(xc)   XCENC  =        60.32445535
  PAW double counting   =       765.29479429     -744.52427439
  entropy T*S    EENTRO =        -0.00000000
  eigenvalues    EBANDS =      -324.20181650
  atomic energy  EATOM  =      1035.01767811
  ---------------------------------------------------
  free energy    TOTEN  =        82.84376592 eV

  energy without entropy =       82.84376592  energy(sigma->0) =       82.84376592


--------------------------------------------------------------------------------------------------------




--------------------------------------- Iteration      1(   3)  ---------------------------------------


    TRIAL :  cpu time      0.2690: real time      0.2696
    CORREC:  cpu time      0.0001: real time      0.0001
    --------------------------------------------
      LOOP:  cpu time      0.2837: real time      0.3002

 eigenvalue-minimisations  :    72
 total energy-change (2. order) :-0.1081173E+03  (-0.1075498E+03)
 number of electron      26.0000000 magnetization 
 augmentation part       26.0000000 magnetization 

 Free energy of the ion-electron system (eV)
  ---------------------------------------------------
  alpha Z        PSCENC =         0.19661355
  Ewald energy   TEWEN  =      1675.06761068
  -Hartree energ DENC   =     -2384.33129516
  -exchange      EXHF   =         0.00000000
  -V(xc)+E(xc)   XCENC  =        60.32445535
  PAW double counting   =       765.29479429     -744.52427439
  entropy T*S    EENTRO =        -0.00000000
  eigenvalues    EBANDS =      -432.31915933
  atomic energy  EATOM  =      1035.01767811
  ---------------------------------------------------
  free energy    TOTEN  =       -25.27357691 eV

  energy without entropy =      -25.27357691  energy(sigma->0) =      -25.27357691


--------------------------------------------------------------------------------------------------------




--------------------------------------- Iteration      1(   4)  ---------------------------------------


    TRIAL :  cpu time      0.2000: real time      0.2001
    CORREC:  cpu time      0.0001: real time      0.0001
    --------------------------------------------
      LOOP:  cpu time      0.2297: real time      0.2300

 eigenvalue-minimisations  :    48
 total energy-change (2. order) :-0.2775519E+02  (-0.2774827E+02)
 number of electron      26.0000000 magnetization 
 augmentation part       26.0000000 magnetization 

 Free energy of the ion-electron system (eV)
  ---------------------------------------------------
  alpha Z        PSCENC =         0.19661355
  Ewald energy   TEWEN  =      1675.06761068
  -Hartree energ DENC   =     -2384.33129516
  -exchange      EXHF   =         0.00000000
  -V(xc)+E(xc)   XCENC  =        60.32445535
  PAW double counting   =       765.29479429     -744.52427439
  entropy T*S    EENTRO =        -0.00000000
  eigenvalues    EBANDS =      -460.07435182
  atomic energy  EATOM  =      1035.01767811
  ---------------------------------------------------
  free energy    TOTEN  =       -53.02876940 eV

  energy without entropy =      -53.02876940  energy(sigma->0) =      -53.02876940


--------------------------------------------------------------------------------------------------------




--------------------------------------- Iteration      1(   5)  ---------------------------------------


    TRIAL :  cpu time      0.2004: real time      0.2004
    CORREC:  cpu time      0.0001: real time      0.0001
    CHARGE:  cpu time      0.0693: real time      0.0715
    --------------------------------------------
      LOOP:  cpu time      0.2843: real time      0.3029

 eigenvalue-minimisations  :    48
 total energy-change (2. order) :-0.1227018E+01  (-0.1208327E+01)
 number of electron      26.0000000 magnetization 
 augmentation part       -0.0521177 magnetization 

 Free energy of the ion-electron system (eV)
  ---------------------------------------------------
  alpha Z        PSCENC =         0.19661355
  Ewald energy   TEWEN  =      1675.06761068
  -Hartree energ DENC   =     -2384.33129516
  -exchange      EXHF   =         0.00000000
  -V(xc)+E(xc)   XCENC  =        60.32445535
  PAW double counting   =       765.29479429     -744.52427439
  entropy T*S    EENTRO =        -0.00000000
  eigenvalues    EBANDS =      -461.30136999
  atomic energy  EATOM  =      1035.01767811
  ---------------------------------------------------
  free energy    TOTEN  =       -54.25578757 eV

  energy without entropy =      -54.25578757  energy(sigma->0) =      -54.25578757


--------------------------------------------------------------------------------------------------------




--------------------------------------- Iteration      1(   6)  ---------------------------------------


    POTLOK:  cpu time     10.6558: real time     10.6587
    SETDIJ:  cpu time      0.0678: real time      0.0678
    TRIAL :  cpu time      0.1217: real time      0.1239
    CORREC:  cpu time     11.0803: real time     11.0834
    CHARGE:  cpu time      0.0434: real time      0.0434
    --------------------------------------------
      LOOP:  cpu time     21.9858: real time     22.0085

 eigenvalue-minimisations  :     0
 total energy-change (2. order) : 0.1063795E+02  (-0.4399772E+01)
 number of electron      26.0000000 magnetization 
 augmentation part       -0.0592056 magnetization 

 Free energy of the ion-electron system (eV)
  ---------------------------------------------------
  alpha Z        PSCENC =         0.19661355
  Ewald energy   TEWEN  =      1675.06761068
  -Hartree energ DENC   =     -2605.97053924
  -exchange      EXHF   =         0.00000000
  -V(xc)+E(xc)   XCENC  =        69.14014651
  PAW double counting   =      7460.22243880    -7440.59046943
  entropy T*S    EENTRO =        -0.00000000
  eigenvalues    EBANDS =      -236.70131497
  atomic energy  EATOM  =      1035.01767811
  ---------------------------------------------------
  free energy    TOTEN  =       -43.61783599 eV

  energy without entropy =      -43.61783599  energy(sigma->0) =      -43.61783599


--------------------------------------------------------------------------------------------------------




--------------------------------------- Iteration      1(   7)  ---------------------------------------


    POTLOK:  cpu time     10.8377: real time     10.8403
    SETDIJ:  cpu time      0.0677: real time      0.0677
    TRIAL :  cpu time      0.1038: real time      0.1038
    CORREC:  cpu time     10.7364: real time     10.7390
    CHARGE:  cpu time      0.0434: real time      0.0434
    --------------------------------------------
      LOOP:  cpu time     21.8189: real time     21.8244

 eigenvalue-minimisations  :     0
 total energy-change (2. order) :-0.4452609E+01  (-0.4457711E+00)
 number of electron      26.0000000 magnetization 
 augmentation part       -0.0668428 magnetization 

 Free energy of the ion-electron system (eV)
  ---------------------------------------------------
  alpha Z        PSCENC =         0.19661355
  Ewald energy   TEWEN  =      1675.06761068
  -Hartree energ DENC   =     -2503.65677169
  -exchange      EXHF   =         0.00000000
  -V(xc)+E(xc)   XCENC  =        65.44142090
  PAW double counting   =      9348.69756501    -9328.59684754
  entropy T*S    EENTRO =        -0.00000000
  eigenvalues    EBANDS =      -340.23771434
  atomic energy  EATOM  =      1035.01767811
  ---------------------------------------------------
  free energy    TOTEN  =       -48.07044532 eV

  energy without entropy =      -48.07044532  energy(sigma->0) =      -48.07044532


--------------------------------------------------------------------------------------------------------




--------------------------------------- Iteration      1(   8)  ---------------------------------------


    POTLOK:  cpu time     10.7484: real time     10.7512
    SETDIJ:  cpu time      0.0678: real time      0.0678
    TRIAL :  cpu time      0.1038: real time      0.1038
    CORREC:  cpu time     10.8953: real time     10.8982
    CHARGE:  cpu time      0.0436: real time      0.0436
    --------------------------------------------
      LOOP:  cpu time     21.8738: real time     21.8957

 eigenvalue-minimisations  :     0
 total energy-change (2. order) :-0.4473827E+00  (-0.1845298E+00)
 number of electron      26.0000000 magnetization 
 augmentation part       -0.0674815 magnetization 

 Free energy of the ion-electron system (eV)
  ---------------------------------------------------
  alpha Z        PSCENC =         0.19661355
  Ewald energy   TEWEN  =      1675.06761068
  -Hartree energ DENC   =     -2506.78666430
  -exchange      EXHF   =         0.00000000
  -V(xc)+E(xc)   XCENC  =        65.62014148
  PAW double counting   =     10008.27895834    -9988.13423085
  entropy T*S    EENTRO =        -0.00000000
  eigenvalues    EBANDS =      -337.77793504
  atomic energy  EATOM  =      1035.01767811
  ---------------------------------------------------
  free energy    TOTEN  =       -48.51782804 eV

  energy without entropy =      -48.51782804  energy(sigma->0) =      -48.51782804


--------------------------------------------------------------------------------------------------------




--------------------------------------- Iteration      1(   9)  ---------------------------------------


    POTLOK:  cpu time     10.6195: real time     10.6225
    SETDIJ:  cpu time      0.0679: real time      0.0679
    TRIAL :  cpu time      0.1037: real time      0.1037
    CORREC:  cpu time     10.9636: real time     10.9670
    CHARGE:  cpu time      0.0430: real time      0.0430
    --------------------------------------------
      LOOP:  cpu time     21.8120: real time     21.8339

 eigenvalue-minimisations  :     0
 total energy-change (2. order) :-0.1836148E+00  (-0.8634141E-01)
 number of electron      26.0000000 magnetization 
 augmentation part       -0.0676946 magnetization 

 Free energy of the ion-electron system (eV)
  ---------------------------------------------------
  alpha Z        PSCENC =         0.19661355
  Ewald energy   TEWEN  =      1675.06761068
  -Hartree energ DENC   =     -2503.33842248
  -exchange      EXHF   =         0.00000000
  -V(xc)+E(xc)   XCENC  =        65.51497616
  PAW double counting   =     10468.12595265   -10447.93788664
  entropy T*S    EENTRO =        -0.00000000
  eigenvalues    EBANDS =      -341.34796489
  atomic energy  EATOM  =      1035.01767811
  ---------------------------------------------------
  free energy    TOTEN  =       -48.70144286 eV

  energy without entropy =      -48.70144286  energy(sigma->0) =      -48.70144286


--------------------------------------------------------------------------------------------------------




--------------------------------------- Iteration      1(  10)  ---------------------------------------


    POTLOK:  cpu time     10.6937: real time     10.6966
    SETDIJ:  cpu time      0.0678: real time      0.0678
    TRIAL :  cpu time      0.1038: real time      0.1038
    CORREC:  cpu time     10.8695: real time     10.8725
    CHARGE:  cpu time      0.0434: real time      0.0434
    --------------------------------------------
      LOOP:  cpu time     21.7943: real time     21.8174

 eigenvalue-minimisations  :     0
 total energy-change (2. order) :-0.8519946E-01  (-0.3070986E-01)
 number of electron      26.0000000 magnetization 
 augmentation part       -0.0674231 magnetization 

 Free energy of the ion-electron system (eV)
  ---------------------------------------------------
  alpha Z        PSCENC =         0.19661355
  Ewald energy   TEWEN  =      1675.06761068
  -Hartree energ DENC   =     -2500.32848945
  -exchange      EXHF   =         0.00000000
  -V(xc)+E(xc)   XCENC  =        65.41737569
  PAW double counting   =     10472.30429445   -10452.10317662
  entropy T*S    EENTRO =        -0.00000000
  eigenvalues    EBANDS =      -344.35854874
  atomic energy  EATOM  =      1035.01767811
  ---------------------------------------------------
  free energy    TOTEN  =       -48.78664233 eV

  energy without entropy =      -48.78664233  energy(sigma->0) =      -48.78664233


--------------------------------------------------------------------------------------------------------




--------------------------------------- Iteration      1(  11)  ---------------------------------------


    POTLOK:  cpu time     10.7247: real time     10.7274
    SETDIJ:  cpu time      0.0679: real time      0.0679
    TRIAL :  cpu time      0.1037: real time      0.1040
    CORREC:  cpu time     10.7149: real time     10.7176
    CHARGE:  cpu time      0.0435: real time      0.0435
    --------------------------------------------
      LOOP:  cpu time     21.6698: real time     21.6905

 eigenvalue-minimisations  :     0
 total energy-change (2. order) :-0.3055478E-01  (-0.9425461E-02)
 number of electron      26.0000000 magnetization 
 augmentation part       -0.0670354 magnetization 

 Free energy of the ion-electron system (eV)
  ---------------------------------------------------
  alpha Z        PSCENC =         0.19661355
  Ewald energy   TEWEN  =      1675.06761068
  -Hartree energ DENC   =     -2500.63564995
  -exchange      EXHF   =         0.00000000
  -V(xc)+E(xc)   XCENC  =        65.43241701
  PAW double counting   =     10264.12171945   -10243.93359147
  entropy T*S    EENTRO =        -0.00000000
  eigenvalues    EBANDS =      -344.08399449
  atomic energy  EATOM  =      1035.01767811
  ---------------------------------------------------
  free energy    TOTEN  =       -48.81719710 eV

  energy without entropy =      -48.81719710  energy(sigma->0) =      -48.81719710


--------------------------------------------------------------------------------------------------------




--------------------------------------- Iteration      1(  12)  ---------------------------------------


    POTLOK:  cpu time     10.7838: real time     10.7864
    SETDIJ:  cpu time      0.0679: real time      0.0679
    TRIAL :  cpu time      0.1037: real time      0.1037
    CORREC:  cpu time     10.8377: real time     10.8405
    CHARGE:  cpu time      0.0435: real time      0.0435
    --------------------------------------------
      LOOP:  cpu time     21.8669: real time     21.8726

 eigenvalue-minimisations  :     0
 total energy-change (2. order) :-0.9412684E-02  (-0.3107880E-02)
 number of electron      26.0000000 magnetization 
 augmentation part       -0.0668501 magnetization 

 Free energy of the ion-electron system (eV)
  ---------------------------------------------------
  alpha Z        PSCENC =         0.19661355
  Ewald energy   TEWEN  =      1675.06761068
  -Hartree energ DENC   =     -2500.28686384
  -exchange      EXHF   =         0.00000000
  -V(xc)+E(xc)   XCENC  =        65.41581437
  PAW double counting   =     10140.50947616   -10120.32938812
  entropy T*S    EENTRO =        -0.00000000
  eigenvalues    EBANDS =      -344.41755069
  atomic energy  EATOM  =      1035.01767811
  ---------------------------------------------------
  free energy    TOTEN  =       -48.82660979 eV

  energy without entropy =      -48.82660979  energy(sigma->0) =      -48.82660979


--------------------------------------------------------------------------------------------------------




--------------------------------------- Iteration      1(  13)  ---------------------------------------


    POTLOK:  cpu time     10.6670: real time     10.6700
    SETDIJ:  cpu time      0.0678: real time      0.0678
    TRIAL :  cpu time      0.1036: real time      0.1036
    CORREC:  cpu time     10.9801: real time     10.9831
    CHARGE:  cpu time      0.0432: real time      0.0432
    --------------------------------------------
      LOOP:  cpu time     21.8769: real time     21.8983

 eigenvalue-minimisations  :     0
 total energy-change (2. order) :-0.3106355E-02  (-0.1200477E-02)
 number of electron      26.0000000 magnetization 
 augmentation part       -0.0667392 magnetization 

 Free energy of the ion-electron system (eV)
  ---------------------------------------------------
  alpha Z        PSCENC =         0.19661355
  Ewald energy   TEWEN  =      1675.06761068
  -Hartree energ DENC   =     -2500.03604416
  -exchange      EXHF   =         0.00000000
  -V(xc)+E(xc)   XCENC  =        65.40184696
  PAW double counting   =     10099.17153404   -10078.99505699
  entropy T*S    EENTRO =        -0.00000000
  eigenvalues    EBANDS =      -344.65389833
  atomic energy  EATOM  =      1035.01767811
  ---------------------------------------------------
  free energy    TOTEN  =       -48.82971614 eV

  energy without entropy =      -48.82971614  energy(sigma->0) =      -48.82971614


--------------------------------------------------------------------------------------------------------




--------------------------------------- Iteration      1(  14)  ---------------------------------------


    POTLOK:  cpu time     10.6238: real time     10.6268
    SETDIJ:  cpu time      0.0678: real time      0.0678
    TRIAL :  cpu time      0.1038: real time      0.1038
    CORREC:  cpu time     10.8002: real time     10.8036
    CHARGE:  cpu time      0.0432: real time      0.0432
    --------------------------------------------
      LOOP:  cpu time     21.6546: real time     21.6760

 eigenvalue-minimisations  :     0
 total energy-change (2. order) :-0.1198506E-02  (-0.5542930E-03)
 number of electron      26.0000000 magnetization 
 augmentation part       -0.0667411 magnetization 

 Free energy of the ion-electron system (eV)
  ---------------------------------------------------
  alpha Z        PSCENC =         0.19661355
  Ewald energy   TEWEN  =      1675.06761068
  -Hartree energ DENC   =     -2500.24432495
  -exchange      EXHF   =         0.00000000
  -V(xc)+E(xc)   XCENC  =        65.40648219
  PAW double counting   =     10099.40462412   -10079.23024570
  entropy T*S    EENTRO =        -0.00000000
  eigenvalues    EBANDS =      -344.44935265
  atomic energy  EATOM  =      1035.01767811
  ---------------------------------------------------
  free energy    TOTEN  =       -48.83091465 eV

  energy without entropy =      -48.83091465  energy(sigma->0) =      -48.83091465


--------------------------------------------------------------------------------------------------------




--------------------------------------- Iteration      1(  15)  ---------------------------------------


    POTLOK:  cpu time     10.8152: real time     10.8179
    SETDIJ:  cpu time      0.0688: real time      0.0688
    TRIAL :  cpu time      0.1033: real time      0.1034
    CORREC:  cpu time     10.6911: real time     10.6941
    CHARGE:  cpu time      0.0434: real time      0.0434
    --------------------------------------------
      LOOP:  cpu time     21.7365: real time     21.7602

 eigenvalue-minimisations  :     0
 total energy-change (2. order) :-0.5548963E-03  (-0.2695530E-03)
 number of electron      26.0000000 magnetization 
 augmentation part       -0.0667388 magnetization 

 Free energy of the ion-electron system (eV)
  ---------------------------------------------------
  alpha Z        PSCENC =         0.19661355
  Ewald energy   TEWEN  =      1675.06761068
  -Hartree energ DENC   =     -2500.31900331
  -exchange      EXHF   =         0.00000000
  -V(xc)+E(xc)   XCENC  =        65.40799277
  PAW double counting   =     10118.88184046   -10098.70718785
  entropy T*S    EENTRO =        -0.00000000
  eigenvalues    EBANDS =      -344.37701395
  atomic energy  EATOM  =      1035.01767811
  ---------------------------------------------------
  free energy    TOTEN  =       -48.83146954 eV

  energy without entropy =      -48.83146954  energy(sigma->0) =      -48.83146954


--------------------------------------------------------------------------------------------------------




--------------------------------------- Iteration      1(  16)  ---------------------------------------


    POTLOK:  cpu time     10.7176: real time     10.7200
    SETDIJ:  cpu time      0.0678: real time      0.0678
    TRIAL :  cpu time      0.1034: real time      0.1037
    CORREC:  cpu time     10.9191: real time     10.9217
    CHARGE:  cpu time      0.0429: real time      0.0429
    --------------------------------------------
      LOOP:  cpu time     21.8664: real time     21.8864

 eigenvalue-minimisations  :     0
 total energy-change (2. order) :-0.2693308E-03  (-0.1037183E-03)
 number of electron      26.0000000 magnetization 
 augmentation part       -0.0667023 magnetization 

 Free energy of the ion-electron system (eV)
  ---------------------------------------------------
  alpha Z        PSCENC =         0.19661355
  Ewald energy   TEWEN  =      1675.06761068
  -Hartree energ DENC   =     -2500.40683949
  -exchange      EXHF   =         0.00000000
  -V(xc)+E(xc)   XCENC  =        65.41109219
  PAW double counting   =     10132.44198567   -10112.26671353
  entropy T*S    EENTRO =        -0.00000000
  eigenvalues    EBANDS =      -344.29316606
  atomic energy  EATOM  =      1035.01767811
  ---------------------------------------------------
  free energy    TOTEN  =       -48.83173887 eV

  energy without entropy =      -48.83173887  energy(sigma->0) =      -48.83173887


--------------------------------------------------------------------------------------------------------




--------------------------------------- Iteration      1(  17)  ---------------------------------------


    POTLOK:  cpu time     10.6272: real time     10.6303
    SETDIJ:  cpu time      0.0680: real time      0.0680
    TRIAL :  cpu time      0.1036: real time      0.1037
    CORREC:  cpu time     10.9297: real time     10.9328
    CHARGE:  cpu time      0.0434: real time      0.0434
    --------------------------------------------
      LOOP:  cpu time     21.7845: real time     21.8094

 eigenvalue-minimisations  :     0
 total energy-change (2. order) :-0.1038889E-03  (-0.3631367E-04)
 number of electron      26.0000000 magnetization 
 augmentation part       -0.0666824 magnetization 

 Free energy of the ion-electron system (eV)
  ---------------------------------------------------
  alpha Z        PSCENC =         0.19661355
  Ewald energy   TEWEN  =      1675.06761068
  -Hartree energ DENC   =     -2500.46570172
  -exchange      EXHF   =         0.00000000
  -V(xc)+E(xc)   XCENC  =        65.41354746
  PAW double counting   =     10134.04776038   -10113.87223879
  entropy T*S    EENTRO =        -0.00000000
  eigenvalues    EBANDS =      -344.23711243
  atomic energy  EATOM  =      1035.01767811
  ---------------------------------------------------
  free energy    TOTEN  =       -48.83184276 eV

  energy without entropy =      -48.83184276  energy(sigma->0) =      -48.83184276


--------------------------------------------------------------------------------------------------------




--------------------------------------- Iteration      1(  18)  ---------------------------------------


    POTLOK:  cpu time     10.6025: real time     10.6058
    SETDIJ:  cpu time      0.0679: real time      0.0679
    TRIAL :  cpu time      0.1031: real time      0.1031
    CORREC:  cpu time     10.8561: real time     10.8590
    CHARGE:  cpu time      0.0431: real time      0.0431
    --------------------------------------------
      LOOP:  cpu time     21.7024: real time     21.7088

 eigenvalue-minimisations  :     0
 total energy-change (2. order) :-0.3648925E-04  (-0.1381258E-04)
 number of electron      26.0000000 magnetization 
 augmentation part       -0.0666693 magnetization 

 Free energy of the ion-electron system (eV)
  ---------------------------------------------------
  alpha Z        PSCENC =         0.19661355
  Ewald energy   TEWEN  =      1675.06761068
  -Hartree energ DENC   =     -2500.45084252
  -exchange      EXHF   =         0.00000000
  -V(xc)+E(xc)   XCENC  =        65.41335459
  PAW double counting   =     10132.24541036   -10112.06971443
  entropy T*S    EENTRO =        -0.00000000
  eigenvalues    EBANDS =      -344.25198959
  atomic energy  EATOM  =      1035.01767811
  ---------------------------------------------------
  free energy    TOTEN  =       -48.83187925 eV

  energy without entropy =      -48.83187925  energy(sigma->0) =      -48.83187925


--------------------------------------------------------------------------------------------------------




--------------------------------------- Iteration      1(  19)  ---------------------------------------


    POTLOK:  cpu time     10.7243: real time     10.7270
    SETDIJ:  cpu time      0.0679: real time      0.0679
    TRIAL :  cpu time      0.1047: real time      0.1047
    CORREC:  cpu time     10.6870: real time     10.6901
    CHARGE:  cpu time      0.0432: real time      0.0432
    --------------------------------------------
      LOOP:  cpu time     21.6450: real time     21.6639

 eigenvalue-minimisations  :     0
 total energy-change (2. order) :-0.1381552E-04  (-0.5376722E-05)
 number of electron      26.0000000 magnetization 
 augmentation part       -0.0666755 magnetization 

 Free energy of the ion-electron system (eV)
  ---------------------------------------------------
  alpha Z        PSCENC =         0.19661355
  Ewald energy   TEWEN  =      1675.06761068
  -Hartree energ DENC   =     -2500.45559080
  -exchange      EXHF   =         0.00000000
  -V(xc)+E(xc)   XCENC  =        65.41378263
  PAW double counting   =     10130.35506999   -10110.17943473
  entropy T*S    EENTRO =        -0.00000000
  eigenvalues    EBANDS =      -344.24762250
  atomic energy  EATOM  =      1035.01767811
  ---------------------------------------------------
  free energy    TOTEN  =       -48.83189307 eV

  energy without entropy =      -48.83189307  energy(sigma->0) =      -48.83189307


--------------------------------------------------------------------------------------------------------




--------------------------------------- Iteration      1(  20)  ---------------------------------------


    POTLOK:  cpu time     10.7105: real time     10.7130
    SETDIJ:  cpu time      0.0678: real time      0.0678
    TRIAL :  cpu time      0.1046: real time      0.1050
    CORREC:  cpu time     11.0699: real time     11.0724
    CHARGE:  cpu time      0.0430: real time      0.0430
    --------------------------------------------
      LOOP:  cpu time     22.0103: real time     22.0313

 eigenvalue-minimisations  :     0
 total energy-change (2. order) :-0.5348302E-05  (-0.2027424E-05)
 number of electron      26.0000000 magnetization 
 augmentation part       -0.0666853 magnetization 

 Free energy of the ion-electron system (eV)
  ---------------------------------------------------
  alpha Z        PSCENC =         0.19661355
  Ewald energy   TEWEN  =      1675.06761068
  -Hartree energ DENC   =     -2500.43816655
  -exchange      EXHF   =         0.00000000
  -V(xc)+E(xc)   XCENC  =        65.41323702
  PAW double counting   =     10129.91342438   -10109.73777109
  entropy T*S    EENTRO =        -0.00000000
  eigenvalues    EBANDS =      -344.26452452
  atomic energy  EATOM  =      1035.01767811
  ---------------------------------------------------
  free energy    TOTEN  =       -48.83189842 eV

  energy without entropy =      -48.83189842  energy(sigma->0) =      -48.83189842


--------------------------------------------------------------------------------------------------------




--------------------------------------- Iteration      1(  21)  ---------------------------------------


    POTLOK:  cpu time     10.6016: real time     10.6039
    SETDIJ:  cpu time      0.0680: real time      0.0680
    TRIAL :  cpu time      0.1038: real time      0.1038
    CORREC:  cpu time     10.9483: real time     10.9508
    CHARGE:  cpu time      0.0434: real time      0.0435
    --------------------------------------------
      LOOP:  cpu time     21.7805: real time     21.8007

 eigenvalue-minimisations  :     0
 total energy-change (2. order) :-0.1975930E-05  (-0.7303778E-06)
 number of electron      26.0000000 magnetization 
 augmentation part       -0.0666919 magnetization 

 Free energy of the ion-electron system (eV)
  ---------------------------------------------------
  alpha Z        PSCENC =         0.19661355
  Ewald energy   TEWEN  =      1675.06761068
  -Hartree energ DENC   =     -2500.43587593
  -exchange      EXHF   =         0.00000000
  -V(xc)+E(xc)   XCENC  =        65.41313623
  PAW double counting   =     10130.08447863   -10109.90883284
  entropy T*S    EENTRO =        -0.00000000
  eigenvalues    EBANDS =      -344.26670882
  atomic energy  EATOM  =      1035.01767811
  ---------------------------------------------------
  free energy    TOTEN  =       -48.83190039 eV

  energy without entropy =      -48.83190039  energy(sigma->0) =      -48.83190039


--------------------------------------------------------------------------------------------------------




--------------------------------------- Iteration      1(  22)  ---------------------------------------


    POTLOK:  cpu time     10.5957: real time     10.5980
    SETDIJ:  cpu time      0.0672: real time      0.0672
    TRIAL :  cpu time      0.1041: real time      0.1041
    CORREC:  cpu time     10.7675: real time     10.7701
    CHARGE:  cpu time      0.0435: real time      0.0435
    --------------------------------------------
      LOOP:  cpu time     21.6093: real time     21.6148

 eigenvalue-minimisations  :     0
 total energy-change (2. order) :-0.7037906E-06  (-0.2765590E-06)
 number of electron      26.0000000 magnetization 
 augmentation part       -0.0666970 magnetization 

 Free energy of the ion-electron system (eV)
  ---------------------------------------------------
  alpha Z        PSCENC =         0.19661355
  Ewald energy   TEWEN  =      1675.06761068
  -Hartree energ DENC   =     -2500.43394105
  -exchange      EXHF   =         0.00000000
  -V(xc)+E(xc)   XCENC  =        65.41303877
  PAW double counting   =     10130.15844332   -10109.98280392
  entropy T*S    EENTRO =        -0.00000000
  eigenvalues    EBANDS =      -344.26854055
  atomic energy  EATOM  =      1035.01767811
  ---------------------------------------------------
  free energy    TOTEN  =       -48.83190110 eV

  energy without entropy =      -48.83190110  energy(sigma->0) =      -48.83190110


--------------------------------------------------------------------------------------------------------




--------------------------------------- Iteration      1(  23)  ---------------------------------------


    POTLOK:  cpu time     10.7192: real time     10.7218
    SETDIJ:  cpu time      0.0674: real time      0.0674
    TRIAL :  cpu time      0.1035: real time      0.1035
    CORREC:  cpu time     10.6709: real time     10.6735
    CHARGE:  cpu time      0.0436: real time      0.0436
    --------------------------------------------
      LOOP:  cpu time     21.6198: real time     21.6416

 eigenvalue-minimisations  :     0
 total energy-change (2. order) :-0.2646811E-06  (-0.1193618E-06)
 number of electron      26.0000000 magnetization 
 augmentation part       -0.0666978 magnetization 

 Free energy of the ion-electron system (eV)
  ---------------------------------------------------
  alpha Z        PSCENC =         0.19661355
  Ewald energy   TEWEN  =      1675.06761068
  -Hartree energ DENC   =     -2500.43075793
  -exchange      EXHF   =         0.00000000
  -V(xc)+E(xc)   XCENC  =        65.41289341
  PAW double counting   =     10130.16340803   -10109.98775800
  entropy T*S    EENTRO =        -0.00000000
  eigenvalues    EBANDS =      -344.27158921
  atomic energy  EATOM  =      1035.01767811
  ---------------------------------------------------
  free energy    TOTEN  =       -48.83190136 eV

  energy without entropy =      -48.83190136  energy(sigma->0) =      -48.83190136


--------------------------------------------------------------------------------------------------------




--------------------------------------- Iteration      1(  24)  ---------------------------------------


    POTLOK:  cpu time     10.7652: real time     10.7675
    SETDIJ:  cpu time      0.0678: real time      0.0678
    TRIAL :  cpu time      0.1037: real time      0.1037
    CORREC:  cpu time     10.8068: real time     10.8090
    CHARGE:  cpu time      0.0434: real time      0.0436
    --------------------------------------------
      LOOP:  cpu time     21.7997: real time     21.8222

 eigenvalue-minimisations  :     0
 total energy-change (2. order) :-0.1068001E-06  (-0.3421887E-07)
 number of electron      26.0000000 magnetization 
 augmentation part       -0.0666984 magnetization 

 Free energy of the ion-electron system (eV)
  ---------------------------------------------------
  alpha Z        PSCENC =         0.19661355
  Ewald energy   TEWEN  =      1675.06761068
  -Hartree energ DENC   =     -2500.43495168
  -exchange      EXHF   =         0.00000000
  -V(xc)+E(xc)   XCENC  =        65.41302134
  PAW double counting   =     10130.04980039   -10109.87416665
  entropy T*S    EENTRO =        -0.00000000
  eigenvalues    EBANDS =      -344.26750721
  atomic energy  EATOM  =      1035.01767811
  ---------------------------------------------------
  free energy    TOTEN  =       -48.83190147 eV

  energy without entropy =      -48.83190147  energy(sigma->0) =      -48.83190147


--------------------------------------------------------------------------------------------------------




--------------------------------------- Iteration      1(  25)  ---------------------------------------


    POTLOK:  cpu time     10.5955: real time     10.5978
    SETDIJ:  cpu time      0.0679: real time      0.0679
    TRIAL :  cpu time      0.1036: real time      0.1036
    CORREC:  cpu time     10.8811: real time     10.8837
    EDDIAG:  cpu time      0.0578: real time      0.0591
    CHARGE:  cpu time      0.0435: real time      0.0435
    --------------------------------------------
      LOOP:  cpu time     21.7631: real time     21.7862

 eigenvalue-minimisations  :     0
 total energy-change (2. order) :-0.3429523E-07  (-0.1719486E-07)
 number of electron      26.0000000 magnetization 
 augmentation part       -0.0666981 magnetization 

 Free energy of the ion-electron system (eV)
  ---------------------------------------------------
  alpha Z        PSCENC =         0.19661355
  Ewald energy   TEWEN  =      1675.06761068
  -Hartree energ DENC   =     -2500.43315146
  -exchange      EXHF   =         0.00000000
  -V(xc)+E(xc)   XCENC  =        65.41294902
  PAW double counting   =     10130.02842917   -10109.85278850
  entropy T*S    EENTRO =        -0.00000000
  eigenvalues    EBANDS =      -344.26924208
  atomic energy  EATOM  =      1035.01767811
  ---------------------------------------------------
  free energy    TOTEN  =       -48.83190150 eV

  energy without entropy =      -48.83190150  energy(sigma->0) =      -48.83190150


--------------------------------------------------------------------------------------------------------


  average scaling for gradient   0.9129


 average (electrostatic) potential at core
  the test charge radii are     0.5770  0.4325  0.5902
  (the norm of the test charge is              1.0000)
       1 -87.4686       2 -86.9766       3 -88.0376       4 -47.4741       5 -46.8672
       6 -46.7665       7 -49.3897       8-106.2279       9-104.4163



 E-fermi :  -6.1901     XC(G=0):  -0.1756     alpha+bet : -0.0573

 Fermi energy:        -6.1901238937

 k-point     1 :       0.0000    0.0000    0.0000
  band No.  band energies     occupation 
      1     -26.2651      2.00000
      2     -20.4535      2.00000
      3     -19.4602      2.00000
      4     -15.2969      2.00000
      5     -14.8390      2.00000
      6     -13.5820      2.00000
      7     -11.0854      2.00000
      8     -10.8164      2.00000
      9     -10.6616      2.00000
     10      -9.8977      2.00000
     11      -7.0044      2.00000
     12      -6.5105      2.00000
     13      -6.2620      2.00000
     14      -1.0947      0.00000
     15      -0.9138      0.00000
     16      -0.4647      0.00000
     17      -0.2437      0.00000
     18      -0.0866      0.00000
     19       0.1284      0.00000
     20       0.2518      0.00000


--------------------------------------------------------------------------------------------------------


 soft charge-density along one line, spin component           1
         0         1         2         3         4         5         6         7         8         9
 total charge-density along one line

 pseudopotential strength for first ion, spin component:           1
 12.735  21.434  -0.000  -0.003   0.006  -0.000  -0.005   0.010
 21.434  36.072  -0.000  -0.004   0.010  -0.000  -0.008   0.017
 -0.000  -0.000  -3.184   0.004   0.001  -5.709   0.006   0.003
 -0.003  -0.004   0.004  -3.186  -0.001   0.006  -5.711  -0.001
  0.006   0.010   0.001  -0.001  -3.185   0.003  -0.001  -5.709
 -0.000  -0.000  -5.709   0.006   0.003 -10.211   0.011   0.005
 -0.005  -0.008   0.006  -5.711  -0.001   0.011 -10.215  -0.002
  0.010   0.017   0.003  -0.001  -5.709   0.005  -0.002 -10.212
 total augmentation occupancy for first ion, spin component:           1
  7.421  -2.564  -0.575  -0.911   0.916   0.262   0.428  -0.446
 -2.564   0.941   0.274   0.460  -0.497  -0.123  -0.210   0.230
 -0.575   0.274   5.198   1.693   0.736  -1.607  -0.663  -0.293
 -0.911   0.460   1.693   4.934  -1.073  -0.663  -1.519   0.462
  0.916  -0.497   0.736  -1.073   6.967  -0.293   0.462  -2.403
  0.262  -0.123  -1.607  -0.663  -0.293   0.513   0.247   0.110
  0.428  -0.210  -0.663  -1.519   0.462   0.247   0.487  -0.189
 -0.446   0.230  -0.293   0.462  -2.403   0.110  -0.189   0.851


------------------------ aborting loop because EDIFF is reached ----------------------------------------


    FORLOC:  cpu time      0.0180: real time      0.0180
    FORNL :  cpu time      0.0149: real time      0.0153
    FORCOR:  cpu time     10.6755: real time     10.6781
    OFIELD:  cpu time      0.0041: real time      0.0046

 VOLUME and BASIS-vectors are now :
 -----------------------------------------------------------------------------
  energy-cutoff  :     1000.00
  volume of cell :    10648.00
      direct lattice vectors                 reciprocal lattice vectors
    22.000000000  0.000000000  0.000000000     0.045454545  0.000000000  0.000000000
     0.000000000 22.000000000  0.000000000     0.000000000  0.045454545  0.000000000
     0.000000000  0.000000000 22.000000000     0.000000000  0.000000000  0.045454545

  length of vectors
    22.000000000 22.000000000 22.000000000     0.045454545  0.045454545  0.045454545


 FORCES acting on ions:
    Electron-Ion                     Ewald-Force                    Non-Local-Force
 -----------------------------------------------------------------------------------------------
   0.835E+02 -.136E+03 -.158E+03   -.870E+02 0.136E+03 0.159E+03   0.331E+01 0.366E+00 -.109E+01
   0.204E+03 0.315E+02 -.600E+02   -.205E+03 -.310E+02 0.607E+02   0.234E-02 -.630E+00 -.570E+00
   0.963E+02 0.170E+03 0.111E+03   -.104E+03 -.172E+03 -.109E+03   0.798E+01 0.158E+01 -.200E+01
   0.230E+02 0.628E+02 0.462E+02   -.245E+02 -.675E+02 -.498E+02   0.149E+01 0.472E+01 0.358E+01
   0.754E+02 0.128E+02 -.209E+02   -.811E+02 -.138E+02 0.225E+02   0.574E+01 0.984E+00 -.158E+01
   0.168E+02 -.556E+02 -.570E+02   -.178E+02 0.598E+02 0.613E+02   0.101E+01 -.425E+01 -.424E+01
   -.786E+02 0.272E+02 0.585E+02   0.847E+02 -.291E+02 -.629E+02   -.617E+01 0.188E+01 0.437E+01
   -.175E+03 0.928E+02 0.159E+03   0.175E+03 -.958E+02 -.161E+03   0.100E+01 0.291E+01 0.208E+01
   -.229E+03 -.187E+03 -.683E+02   0.260E+03 0.214E+03 0.794E+02   -.312E+02 -.277E+02 -.113E+02
 -----------------------------------------------------------------------------------------------
   0.168E+02 0.201E+02 0.107E+02   0.000E+00 0.000E+00 0.568E-13   -.168E+02 -.201E+02 -.107E+02


 POSITION                                       TOTAL-FORCE (eV/Angst)
 -----------------------------------------------------------------------------------
     11.01592     11.87822     11.66173        -0.137967      0.222787      0.255069
     10.13162     10.89700     11.16415        -0.336423     -0.047472      0.099020
     10.86960     10.20273     10.22385        -0.160471     -0.302023     -0.199290
     10.62191      9.36726      9.58344         0.002183      0.007323      0.002931
      9.10345     10.71911     11.44618         0.009731     -0.001371     -0.000174
     10.83243     12.63274     12.41656         0.000688     -0.007333     -0.006658
     12.89655     10.52869      9.63866        -0.024358      0.002775      0.016332
     12.10054     10.77938     10.20966         0.299657     -0.163057     -0.278398
     12.21825     11.80899     11.08057         0.346959      0.288371      0.111166
 -----------------------------------------------------------------------------------
    total drift:                               -0.000169      0.000193      0.000144


--------------------------------------------------------------------------------------------------------



  FREE ENERGIE OF THE ION-ELECTRON SYSTEM (eV)
  ---------------------------------------------------
  free  energy   TOTEN  =       -48.83190150 eV

  energy  without entropy=      -48.83190150  energy(sigma->0) =      -48.83190150



--------------------------------------------------------------------------------------------------------


    POTLOK:  cpu time     10.7645: real time     10.7674


--------------------------------------------------------------------------------------------------------


 stress matrix after NEB project (eV)
      0.00000      0.00000      0.00000
      0.00000      0.00000      0.00000
      0.00000      0.00000      0.00000
  FORCES: max atom, RMS     0.464647    0.303053
  FORCE total and by dimension    0.909158    0.346959
  Stress total and by dimension    0.000000    0.000000
     LOOP+:  cpu time    470.0083: real time    470.4694
    4ORBIT:  cpu time      0.0000: real time      0.0000

 total amount of memory used by VASP MPI-rank0    61522. kBytes
=======================================================================

   base      :      30000. kBytes
   nonl-proj :       1002. kBytes
   fftplans  :      10395. kBytes
   grid      :      19407. kBytes
   one-center:          1. kBytes
   wavefun   :        717. kBytes

  
  
 General timing and accounting informations for this job:
 ========================================================
  
                  Total CPU time used (sec):      521.267
                            User time (sec):      515.732
                          System time (sec):        5.535
                         Elapsed time (sec):      542.092
  
                   Maximum memory used (kb):      454160.
                   Average memory used (kb):          N/A
  
                          Minor page faults:       191581
                          Major page faults:          300
                 Voluntary context switches:        11762
