 vasp.6.4.1 05Apr23 (build Jun  6 2023 14:46:38) gamma-only                      
 executed on        HPECrayEX_GCC date 2024.08.22  03:32:17
 running  512 mpi-ranks, with    1 threads/rank, on    4 nodes
 distrk:  each k-point on  256 cores,    2 groups
 distr:  one band on NCORE=  32 cores,    8 groups


--------------------------------------------------------------------------------------------------------


 INCAR:
   ALGO = Conjugate
   KPAR = 2
   NCORE = 32
   PREC = Accurate
   EDIFF = 1E-7
   ENCUT = 1000
   ISMEAR = 0
   SIGMA = 0.01
   ISIF = 0
   GGA = PE
   IVDW = 202
   LVDWEXPANSION = .TRUE.
   LWAVE = .FALSE.
   LCHARG = .FALSE.
   SYMPREC = 1E-7
   LWAVE = .FALSE.
   LCHARG = .FALSE.

 POTCAR:    PAW_PBE C_h 06Feb2004                 
 POTCAR:    PAW_PBE H_h 06Feb2004                 
 POTCAR:    PAW_PBE N_h 06Feb2004                 
 POTCAR:    PAW_PBE C_h 06Feb2004                 
   VRHFIN =C: s2p2                                                                                  
   LEXCH  = PE                                                                                      
   EATOM  =   147.1560 eV,   10.8157 Ry                                                             
                                                                                                    
   TITEL  = PAW_PBE C_h 06Feb2004                                                                   
   LULTRA =        F    use ultrasoft PP ?                                                          
   IUNSCR =        1    unscreen: 0-lin 1-nonlin 2-no                                               
   RPACOR =    0.800    partial core radius                                                         
   POMASS =   12.011; ZVAL   =    4.000    mass and valenz                                          
   RCORE  =    1.100    outmost cutoff radius                                                       
   RWIGS  =    1.630; RWIGS  =    0.863    wigner-seitz radius (au A)                               
   ENMAX  =  700.000; ENMIN  =  500.000 eV                                                          
   ICORE  =        2    local potential                                                             
   LCOR   =        T    correct aug charges                                                         
   LPAW   =        T    paw PP                                                                      
   EAUG   =  946.768                                                                                
   DEXC   =    0.000                                                                                
   RMAX   =    1.128    core radius for proj-oper                                                   
   RAUG   =    1.300    factor for augmentation sphere                                              
   RDEP   =    1.162    radius for radial grids                                                     
   RDEPT  =    1.088    core radius for aug-charge                                                  
                                                                                                    
   Atomic configuration                                                                             
    4 entries                                                                                       
     n  l   j            E        occ.                                                              
     1  0  0.50      -273.3789   2.0000                                                             
     2  0  0.50       -13.7508   2.0000                                                             
     2  1  0.50        -5.2854   2.0000                                                             
     3  2  1.50        -5.4423   0.0000                                                             
   Description                                                                                      
     l       E           TYP  RCUT    TYP  RCUT                                                     
     0    -13.7508458     23  1.100                                                                 
     0     -8.2022199     23  1.100                                                                 
     1     -5.2854383     23  1.100                                                                 
     1      1.1560700     23  1.100                                                                 
     2     -5.4423304      7  1.100                                                                 
  local pseudopotential read in
  partial core-charges read in
  partial kinetic energy density read in
  atomic valenz-charges read in
  non local Contribution for L=           0  read in
    real space projection operators read in
  non local Contribution for L=           0  read in
    real space projection operators read in
  non local Contribution for L=           1  read in
    real space projection operators read in
  non local Contribution for L=           1  read in
    real space projection operators read in
    PAW grid and wavefunctions read in

   number of l-projection  operators is LMAX  =           4
   number of lm-projection operators is LMMAX =           8

 POTCAR:    PAW_PBE H_h 06Feb2004                 
   VRHFIN =H: ultrasoft test                                                                        
   LEXCH  = PE                                                                                      
   EATOM  =    12.4884 eV,    0.9179 Ry                                                             
                                                                                                    
   TITEL  = PAW_PBE H_h 06Feb2004                                                                   
   LULTRA =        F    use ultrasoft PP ?                                                          
   IUNSCR =        0    unscreen: 0-lin 1-nonlin 2-no                                               
   RPACOR =    0.000    partial core radius                                                         
   POMASS =    1.000; ZVAL   =    1.000    mass and valenz                                          
   RCORE  =    0.800    outmost cutoff radius                                                       
   RWIGS  =    0.700; RWIGS  =    0.370    wigner-seitz radius (au A)                               
   ENMAX  =  700.000; ENMIN  =  350.000 eV                                                          
   RCLOC  =    0.701    cutoff for local pot                                                        
   LCOR   =        T    correct aug charges                                                         
   LPAW   =        T    paw PP                                                                      
   EAUG   = 1000.000                                                                                
   RMAX   =    0.819    core radius for proj-oper                                                   
   RAUG   =    1.000    factor for augmentation sphere                                              
   RDEP   =    0.817    radius for radial grids                                                     
   RDEPT  =    0.817    core radius for aug-charge                                                  
                                                                                                    
   Atomic configuration                                                                             
    2 entries                                                                                       
     n  l   j            E        occ.                                                              
     1  0  0.50        -6.4927   1.0000                                                             
     2  1  0.50        -3.4015   0.0000                                                             
   Description                                                                                      
     l       E           TYP  RCUT    TYP  RCUT                                                     
     0     -6.4927493     23  0.800                                                                 
     0      6.8029130     23  0.800                                                                 
     1     -6.8029130     23  0.800                                                                 
  local pseudopotential read in
  atomic valenz-charges read in
  non local Contribution for L=           0  read in
    real space projection operators read in
  non local Contribution for L=           0  read in
    real space projection operators read in
  non local Contribution for L=           1  read in
    real space projection operators read in
    PAW grid and wavefunctions read in

   number of l-projection  operators is LMAX  =           3
   number of lm-projection operators is LMMAX =           5

 POTCAR:    PAW_PBE N_h 06Feb2004                 
   VRHFIN =N: s2p3                                                                                  
   LEXCH  = PE                                                                                      
   EATOM  =   264.5486 eV,   19.4438 Ry                                                             
                                                                                                    
   TITEL  = PAW_PBE N_h 06Feb2004                                                                   
   LULTRA =        F    use ultrasoft PP ?                                                          
   IUNSCR =        1    unscreen: 0-lin 1-nonlin 2-no                                               
   RPACOR =    0.800    partial core radius                                                         
   POMASS =   14.001; ZVAL   =    5.000    mass and valenz                                          
   RCORE  =    1.100    outmost cutoff radius                                                       
   RWIGS  =    1.480; RWIGS  =    0.783    wigner-seitz radius (au A)                               
   ENMAX  =  700.000; ENMIN  =  500.000 eV                                                          
   ICORE  =        2    local potential                                                             
   LCOR   =        T    correct aug charges                                                         
   LPAW   =        T    paw PP                                                                      
   EAUG   =  904.640                                                                                
   DEXC   =    0.000                                                                                
   RMAX   =    1.127    core radius for proj-oper                                                   
   RAUG   =    1.300    factor for augmentation sphere                                              
   RDEP   =    1.115    radius for radial grids                                                     
   RDEPT  =    1.106    core radius for aug-charge                                                  
                                                                                                    
   Atomic configuration                                                                             
    4 entries                                                                                       
     n  l   j            E        occ.                                                              
     1  0  0.50      -384.7179   2.0000                                                             
     2  0  0.50       -18.5828   2.0000                                                             
     2  1  0.50        -7.0898   3.0000                                                             
     3  2  1.50        -6.8029   0.0000                                                             
   Description                                                                                      
     l       E           TYP  RCUT    TYP  RCUT                                                     
     0    -18.5828117     23  1.100                                                                 
     0    -15.0750597     23  1.100                                                                 
     1     -7.0897851     23  1.100                                                                 
     1     -1.9663412     23  1.100                                                                 
     2     -6.8029130      7  1.100                                                                 
  local pseudopotential read in
  partial core-charges read in
  partial kinetic energy density read in
  kinetic energy density of atom read in
  atomic valenz-charges read in
  non local Contribution for L=           0  read in
    real space projection operators read in
  non local Contribution for L=           0  read in
    real space projection operators read in
  non local Contribution for L=           1  read in
    real space projection operators read in
  non local Contribution for L=           1  read in
    real space projection operators read in
    PAW grid and wavefunctions read in

   number of l-projection  operators is LMAX  =           4
   number of lm-projection operators is LMMAX =           8

  PAW_PBE C_h 06Feb2004                 :
 energy of atom  1       EATOM= -147.1560
 kinetic energy error for atom=    0.0031 (will be added to EATOM!!)
  PAW_PBE H_h 06Feb2004                 :
 energy of atom  2       EATOM=  -12.4884
 kinetic energy error for atom=    0.0006 (will be added to EATOM!!)
  PAW_PBE N_h 06Feb2004                 :
 energy of atom  3       EATOM= -264.5486
 kinetic energy error for atom=    0.0081 (will be added to EATOM!!)


 POSCAR:  C  H  N
  positions in cartesian coordinates
  No initial velocities read in
 exchange correlation table for  LEXCH =        8
   RHO(1)=    0.500       N(1)  =     2000
   RHO(2)=  100.500       N(2)  =     4000

 VTST: version 4.1, (05/19/21)

 CHAIN: initializing optimizer
 
 OPT: Using VASP Dynamics algorithm
 CHAIN: Read ICHAIN            0

 POSCAR:  C  H  N
  positions in cartesian coordinates
  No initial velocities read in



--------------------------------------------------------------------------------------------------------


 ion  position               nearest neighbor table
   1  0.501  0.540  0.530-   6 1.08   9 1.34   2 1.41
   2  0.461  0.495  0.507-   5 1.08   3 1.38   1 1.41
   3  0.494  0.464  0.465-   4 1.08   8 1.36   2 1.38
   4  0.483  0.426  0.436-   3 1.08
   5  0.414  0.487  0.520-   2 1.08
   6  0.492  0.574  0.564-   1 1.08
   7  0.586  0.479  0.438-   8 1.01
   8  0.550  0.490  0.464-   7 1.01   9 1.35   3 1.36
   9  0.555  0.537  0.504-   1 1.34   8 1.35

  LATTYP: Found a simple cubic cell.
 ALAT       =    22.0000000000
  
  Lattice vectors:
  
 A1 = (  22.0000000000,   0.0000000000,   0.0000000000)
 A2 = (   0.0000000000,  22.0000000000,   0.0000000000)
 A3 = (   0.0000000000,   0.0000000000,  22.0000000000)


Analysis of symmetry for initial positions (statically):
=====================================================================
 Subroutine PRICEL returns:
 Original cell was already a primitive cell.
 

 Routine SETGRP: Setting up the symmetry group for a 
 simple cubic supercell.


 Subroutine GETGRP returns: Found  1 space group operations
 (whereof  1 operations were pure point group operations)
 out of a pool of 48 trial point group operations.


The static configuration has the point symmetry C_1 .


Analysis of symmetry for dynamics (positions and initial velocities):
=====================================================================
 Subroutine PRICEL returns:
 Original cell was already a primitive cell.
 

 Routine SETGRP: Setting up the symmetry group for a 
 simple cubic supercell.


 Subroutine GETGRP returns: Found  1 space group operations
 (whereof  1 operations were pure point group operations)
 out of a pool of 48 trial point group operations.


The dynamic configuration has the point symmetry C_1 .


 Subroutine INISYM returns: Found  1 space group operations
 (whereof  1 operations are pure point group operations),
 and found     1 'primitive' translations


----------------------------------------------------------------------------------------

                                     Primitive cell                                     

  volume of cell :   10648.0000

  direct lattice vectors                    reciprocal lattice vectors
    22.000000000  0.000000000  0.000000000     0.045454545  0.000000000  0.000000000
     0.000000000 22.000000000  0.000000000     0.000000000  0.045454545  0.000000000
     0.000000000  0.000000000 22.000000000     0.000000000  0.000000000  0.045454545

  length of vectors
    22.000000000 22.000000000 22.000000000     0.045454545  0.045454545  0.045454545

  position of ions in fractional coordinates (direct lattice)
     0.500723409  0.539918864  0.530078409
     0.460527955  0.495318409  0.507461591
     0.494072955  0.463760227  0.464720227
     0.482814318  0.425784318  0.435610682
     0.413793409  0.487232500  0.520281136
     0.492382955  0.574215682  0.564389318
     0.586206591  0.478577045  0.438121136
     0.550024318  0.489972045  0.464075682
     0.555375227  0.536772045  0.503662500

  ion indices of the primitive-cell ions
   primitive index   ion index
                 1           1
                 2           2
                 3           3
                 4           4
                 5           5
                 6           6
                 7           7
                 8           8
                 9           9

----------------------------------------------------------------------------------------



 KPOINTS: auto                                    

Automatic generation of k-mesh.
 Grid dimensions read from file:
 generate k-points for:    1    1    1

 Generating k-lattice:

  Cartesian coordinates                     Fractional coordinates (reciprocal lattice)
     0.045454545  0.000000000  0.000000000     1.000000000  0.000000000  0.000000000
     0.000000000  0.045454545  0.000000000     0.000000000  1.000000000  0.000000000
     0.000000000  0.000000000  0.045454545     0.000000000  0.000000000  1.000000000

  Length of vectors
     0.045454545  0.045454545  0.045454545

  Shift w.r.t. Gamma in fractional coordinates (k-lattice)
     0.000000000  0.000000000  0.000000000

 
 Subroutine IBZKPT returns following result:
 ===========================================
 
 Found      1 irreducible k-points:
 
 Following reciprocal coordinates:
            Coordinates               Weight
  0.000000  0.000000  0.000000      1.000000
 
 Following cartesian coordinates:
            Coordinates               Weight
  0.000000  0.000000  0.000000      1.000000
 


--------------------------------------------------------------------------------------------------------




 Dimension of arrays:
   k-points           NKPTS =      1   k-points in BZ     NKDIM =      1   number of bands    NBANDS=     24
   number of dos      NEDOS =    301   number of ions     NIONS =      9
   non local maximal  LDIM  =      4   non local SUM 2l+1 LMDIM =      8
   total plane-waves  NPLWV = ******
   max r-space proj   IRMAX =      1   max aug-charges    IRDMAX=   9419
   dimension x,y,z NGX =   240 NGY =  240 NGZ =  240
   dimension x,y,z NGXF=   480 NGYF=  480 NGZF=  480
   support grid    NGXF=   480 NGYF=  480 NGZF=  480
   ions per type =               3   4   2
   NGX,Y,Z   is equivalent  to a cutoff of  18.14, 18.14, 18.14 a.u.
   NGXF,Y,Z  is equivalent  to a cutoff of  36.27, 36.27, 36.27 a.u.

 SYSTEM =  unknown system                          
 POSCAR =   C  H  N                                

 Startparameter for this run:
   NWRITE =      2    write-flag & timer
   PREC   = accura    normal or accurate (medium, high low for compatibility)
   ISTART =      0    job   : 0-new  1-cont  2-samecut
   ICHARG =      2    charge: 1-file 2-atom 10-const
   ISPIN  =      1    spin polarized calculation?
   LNONCOLLINEAR =      F non collinear calculations
   LSORBIT =      F    spin-orbit coupling
   INIWAV =      1    electr: 0-lowe 1-rand  2-diag
   LASPH  =      F    aspherical Exc in radial PAW
 Electronic Relaxation 1
   ENCUT  = 1000.0 eV  73.50 Ry    8.57 a.u.  56.73 56.73 56.73*2*pi/ulx,y,z
   ENINI  = 1000.0     initial cutoff
   ENAUG  = 1000.0 eV  augmentation charge cutoff
   NELM   =     60;   NELMIN=  2; NELMDL= -5     # of ELM steps 
   EDIFF  = 0.1E-06   stopping-criterion for ELM
   LREAL  =      F    real-space projection
   NLSPLINE    = F    spline interpolate recip. space projectors
   LCOMPAT=      F    compatible to vasp.4.4
   GGA_COMPAT  = T    GGA compatible to vasp.4.4-vasp.4.6
   LMAXPAW     = -100 max onsite density
   LMAXMIX     =    2 max onsite mixed and CHGCAR
   VOSKOWN=      0    Vosko Wilk Nusair interpolation
   ROPT   =    0.00000   0.00000   0.00000
 Ionic relaxation
   EDIFFG = 0.1E-05   stopping-criterion for IOM
   NSW    =      0    number of steps for IOM
   NBLOCK =      1;   KBLOCK =      1    inner block; outer block 
   IBRION =     -1    ionic relax: 0-MD 1-quasi-New 2-CG
   NFREE  =      0    steps in history (QN), initial steepest desc. (CG)
   ISIF   =      0    stress and relaxation
   IWAVPR =     10    prediction:  0-non 1-charg 2-wave 3-comb
   ISYM   =      2    0-nonsym 1-usesym 2-fastsym
   LCORR  =      T    Harris-Foulkes like correction to forces

   POTIM  = 0.5000    time-step for ionic-motion
   TEIN   =    0.0    initial temperature
   TEBEG  =    0.0;   TEEND  =   0.0 temperature during run
   SMASS  =  -3.00    Nose mass-parameter (am)
   estimated Nose-frequenzy (Omega)   =  0.10E-29 period in steps = 0.13E+47 mass=  -0.111E-25a.u.
   SCALEE = 1.0000    scale energy and forces
   NPACO  =    256;   APACO  = 10.0  distance and # of slots for P.C.
   PSTRESS=    0.0 pullay stress

  Mass of Ions in am
   POMASS =  12.01  1.00 14.00
  Ionic Valenz
   ZVAL   =   4.00  1.00  5.00
  Atomic Wigner-Seitz radii
   RWIGS  =  -1.00 -1.00 -1.00
  virtual crystal weights 
   VCA    =   1.00  1.00  1.00
   NELECT =      26.0000    total number of electrons
   NUPDOWN=      -1.0000    fix difference up-down

 DOS related values:
   EMIN   =  10.00;   EMAX   =-10.00  energy-range for DOS
   EFERMI =   0.00;   METHOD = LEGACY      
   ISMEAR =     0;   SIGMA  =   0.01  broadening in eV -4-tet -1-fermi 0-gaus

 Electronic relaxation 2 (details)
   IALGO  =     58    algorithm
   LDIAG  =      T    sub-space diagonalisation (order eigenvalues)
   LSUBROT=      F    optimize rotation matrix (better conditioning)
   TURBO    =      0    0=normal 1=particle mesh
   IRESTART =      0    0=no restart 2=restart with 2 vectors
   NREBOOT  =      0    no. of reboots
   NMIN     =      0    reboot dimension
   EREF     =   0.00    reference energy to select bands
   IMIX   =      4    mixing-type and parameters
     AMIX     =   0.40;   BMIX     =  1.00
     AMIX_MAG =   1.60;   BMIX_MAG =  1.00
     AMIN     =   0.10
     WC   =   100.;   INIMIX=   1;  MIXPRE=   1;  MAXMIX= -45

 Intra band minimization:
   WEIMIN = 0.0000     energy-eigenvalue tresh-hold
   EBREAK =  0.10E-08  absolut break condition
   DEPER  =   0.30     relativ break condition  

   TIME   =   0.40     timestep for ELM

  volume/ion in A,a.u.               =    1183.11      7984.03
  Fermi-wavevector in a.u.,A,eV,Ry     =   0.220450  0.416590  0.661218  0.048598
  Thomas-Fermi vector in A             =   1.001172

 Write flags
   LWAVE        =      F    write WAVECAR
   LDOWNSAMPLE  =      F    k-point downsampling of WAVECAR
   LCHARG       =      F    write CHGCAR
   LVTOT        =      F    write LOCPOT, total local potential
   LVHAR        =      F    write LOCPOT, Hartree potential only
   LELF         =      F    write electronic localiz. function (ELF)
   LORBIT       =      0    0 simple, 1 ext, 2 COOP (PROOUT), +10 PAW based schemes


 Dipole corrections
   LMONO  =      F    monopole corrections only (constant potential shift)
   LDIPOL =      F    correct potential (dipole corrections)
   IDIPOL =      0    1-x, 2-y, 3-z, 4-all directions 
   EPSILON=  1.0000000 bulk dielectric constant

 Exchange correlation treatment:
   GGA     =    PE    GGA type
   LEXCH   =     8    internal setting for exchange type
   LIBXC   =     F    Libxc                    
   VOSKOWN =     0    Vosko Wilk Nusair interpolation
   LHFCALC =     F    Hartree Fock is set to
   LHFONE  =     F    Hartree Fock one center treatment
   AEXX    =    0.0000 exact exchange contribution

 Linear response parameters
   LEPSILON=     F    determine dielectric tensor
   LRPA    =     F    only Hartree local field effects (RPA)
   LNABLA  =     F    use nabla operator in PAW spheres
   LVEL    =     F    velocity operator in full k-point grid
   CSHIFT  =0.1000    complex shift for real part using Kramers Kronig
   OMEGAMAX=  -1.0    maximum frequency
   DEG_THRESHOLD= 0.2000000E-02 threshold for treating states as degnerate
   RTIME   =   -0.100 relaxation time in fs
  (WPLASMAI=    0.000 imaginary part of plasma frequency in eV, 0.658/RTIME)
   DFIELD  = 0.0000000 0.0000000 0.0000000 field for delta impulse in time

  Optional k-point grid parameters
   LKPOINTS_OPT  =     F    use optional k-point grid
   KPOINTS_OPT_MODE=     1    mode for optional k-point grid

 Orbital magnetization related:
   ORBITALMAG=     F  switch on orbital magnetization
   LCHIMAG   =     F  perturbation theory with respect to B field
   DQ        =  0.001000  dq finite difference perturbation B field
   LLRAUG    =     F  two centre corrections for induced B field
   LBONE     =     F  B-component reconstruction in AE one-centre
   LVGVCALC  =     T  calculate vGv susceptibility
   LVGVAPPL  =     F  apply vGv susceptibility instead of pGv for G=0

 Random number generation:
   RANDOM_GENERATOR = DEFAULT
   PCG_SEED         = not used


--------------------------------------------------------------------------------------------------------


 Static calculation
 charge density and potential will be updated during run
 non-spin polarized calculation
 Conjugate gradient for all bands (Freysoldt, et al. PRB 79, 241103 (2009))
 preconditioned conjugated gradient                                        
 perform sub-space diagonalisation
    before iterative eigenvector-optimisation
 modified Broyden-mixing scheme, WC =      100.0
 initial mixing is a Kerker type mixing with AMIX =  0.4000 and BMIX =      1.0000
 Hartree-type preconditioning will be used
 using additional bands           11
 reciprocal scheme for non local part
 use partial core corrections
 no Harris-corrections to forces 
 use gradient corrections 
 use of overlap-Matrix (Vanderbilt PP)
 Gauss-broadening in eV      SIGMA  =   0.01


--------------------------------------------------------------------------------------------------------


  energy-cutoff  :     1000.00
  volume of cell :    10648.00
      direct lattice vectors                 reciprocal lattice vectors
    22.000000000  0.000000000  0.000000000     0.045454545  0.000000000  0.000000000
     0.000000000 22.000000000  0.000000000     0.000000000  0.045454545  0.000000000
     0.000000000  0.000000000 22.000000000     0.000000000  0.000000000  0.045454545

  length of vectors
    22.000000000 22.000000000 22.000000000     0.045454545  0.045454545  0.045454545



 k-points in units of 2pi/SCALE and weight: auto                                    
   0.00000000  0.00000000  0.00000000       1.000

 k-points in reciprocal lattice and weights: auto                                    
   0.00000000  0.00000000  0.00000000       1.000

 position of ions in fractional coordinates (direct lattice) 
   0.50072341  0.53991886  0.53007841
   0.46052795  0.49531841  0.50746159
   0.49407295  0.46376023  0.46472023
   0.48281432  0.42578432  0.43561068
   0.41379341  0.48723250  0.52028114
   0.49238295  0.57421568  0.56438932
   0.58620659  0.47857705  0.43812114
   0.55002432  0.48997205  0.46407568
   0.55537523  0.53677205  0.50366250

 position of ions in cartesian coordinates  (Angst):
  11.01591500 11.87821500 11.66172500
  10.13161500 10.89700500 11.16415500
  10.86960500 10.20272500 10.22384500
  10.62191500  9.36725500  9.58343500
   9.10345500 10.71911500 11.44618500
  10.83242500 12.63274500 12.41656500
  12.89654500 10.52869500  9.63866500
  12.10053500 10.77938500 10.20966500
  12.21825500 11.80898500 11.08057500



--------------------------------------------------------------------------------------------------------


 use parallel FFT for orbitals z direction half grid
 k-point   1 :   0.0000 0.0000 0.0000  plane waves:  381993

 maximum and minimum number of plane-waves per node :     11948    11928

 maximum number of plane-waves:    381993
 maximum index in each direction: 
   IXMAX=   56   IYMAX=   56   IZMAX=   56
   IXMIN=  -56   IYMIN=  -56   IZMIN=    0


 parallel 3D FFT for wavefunctions:
    minimum data exchange during FFTs selected (reduces bandwidth)
 parallel 3D FFT for charge:
    minimum data exchange during FFTs selected (reduces bandwidth)


 total amount of memory used by VASP MPI-rank0   108656. kBytes
=======================================================================

   base      :      30000. kBytes
   nonl-proj :       4010. kBytes
   fftplans  :      24880. kBytes
   grid      :      48046. kBytes
   one-center:          1. kBytes
   wavefun   :       1719. kBytes

     INWAV:  cpu time      0.0001: real time      0.0003
 Broyden mixing: mesh for mixing (old mesh)
   NGX =113   NGY =113   NGZ =113
  (NGX  =480   NGY  =480   NGZ  =480)
  gives a total of ****** points

 initial charge density was supplied:
 charge density of overlapping atoms calculated
 number of electron      26.0000000 magnetization 
 keeping initial charge density in first step


--------------------------------------------------------------------------------------------------------


 Maximum index for augmentation-charges          319 (set IRDMAX)


--------------------------------------------------------------------------------------------------------


 First call to EWALD:  gamma=   0.081
 Maximum number of real-space cells 3x 3x 3
 Maximum number of reciprocal cells 3x 3x 3

    FEWALD:  cpu time      0.0012: real time      0.0012


--------------------------------------- Ionic step        1  -------------------------------------------




--------------------------------------- Iteration      1(   1)  ---------------------------------------


    POTLOK:  cpu time      0.6126: real time      0.6130
    SETDIJ:  cpu time      0.0078: real time      0.0081
    TRIAL :  cpu time      0.7030: real time      0.7049
    CORREC:  cpu time      0.0011: real time      0.0011
    --------------------------------------------
      LOOP:  cpu time      1.3340: real time      1.3366

 eigenvalue-minimisations  :    64
 total energy-change (2. order) : 0.2465706E+03  (-0.6354083E+03)
 number of electron      26.0000000 magnetization 
 augmentation part       26.0000000 magnetization 

 Free energy of the ion-electron system (eV)
  ---------------------------------------------------
  alpha Z        PSCENC =         0.19661355
  Ewald energy   TEWEN  =      1675.06761068
  -Hartree energ DENC   =     -2384.33129516
  -exchange      EXHF   =         0.00000000
  -V(xc)+E(xc)   XCENC  =        63.78285225
  PAW double counting   =       761.07819111     -742.68311964
  entropy T*S    EENTRO =        -0.00000000
  eigenvalues    EBANDS =      -147.03115884
  atomic energy  EATOM  =      1020.49086547
  ---------------------------------------------------
  free energy    TOTEN  =       246.57055941 eV

  energy without entropy =      246.57055941  energy(sigma->0) =      246.57055941


--------------------------------------------------------------------------------------------------------




--------------------------------------- Iteration      1(   2)  ---------------------------------------


    TRIAL :  cpu time      0.7916: real time      0.7921
    CORREC:  cpu time      0.0001: real time      0.0001
    --------------------------------------------
      LOOP:  cpu time      0.8197: real time      0.8206

 eigenvalue-minimisations  :    80
 total energy-change (2. order) :-0.1514293E+03  (-0.1485815E+03)
 number of electron      26.0000000 magnetization 
 augmentation part       26.0000000 magnetization 

 Free energy of the ion-electron system (eV)
  ---------------------------------------------------
  alpha Z        PSCENC =         0.19661355
  Ewald energy   TEWEN  =      1675.06761068
  -Hartree energ DENC   =     -2384.33129516
  -exchange      EXHF   =         0.00000000
  -V(xc)+E(xc)   XCENC  =        63.78285225
  PAW double counting   =       761.07819111     -742.68311964
  entropy T*S    EENTRO =        -0.00000000
  eigenvalues    EBANDS =      -298.46041260
  atomic energy  EATOM  =      1020.49086547
  ---------------------------------------------------
  free energy    TOTEN  =        95.14130565 eV

  energy without entropy =       95.14130565  energy(sigma->0) =       95.14130565


--------------------------------------------------------------------------------------------------------




--------------------------------------- Iteration      1(   3)  ---------------------------------------


    TRIAL :  cpu time      0.8528: real time      0.8533
    CORREC:  cpu time      0.0001: real time      0.0001
    --------------------------------------------
      LOOP:  cpu time      0.8686: real time      0.8837

 eigenvalue-minimisations  :    88
 total energy-change (2. order) :-0.1240774E+03  (-0.1225451E+03)
 number of electron      26.0000000 magnetization 
 augmentation part       26.0000000 magnetization 

 Free energy of the ion-electron system (eV)
  ---------------------------------------------------
  alpha Z        PSCENC =         0.19661355
  Ewald energy   TEWEN  =      1675.06761068
  -Hartree energ DENC   =     -2384.33129516
  -exchange      EXHF   =         0.00000000
  -V(xc)+E(xc)   XCENC  =        63.78285225
  PAW double counting   =       761.07819111     -742.68311964
  entropy T*S    EENTRO =        -0.00000000
  eigenvalues    EBANDS =      -422.53781178
  atomic energy  EATOM  =      1020.49086547
  ---------------------------------------------------
  free energy    TOTEN  =       -28.93609353 eV

  energy without entropy =      -28.93609353  energy(sigma->0) =      -28.93609353


--------------------------------------------------------------------------------------------------------




--------------------------------------- Iteration      1(   4)  ---------------------------------------


    TRIAL :  cpu time      0.6724: real time      0.6725
    CORREC:  cpu time      0.0001: real time      0.0001
    --------------------------------------------
      LOOP:  cpu time      0.7025: real time      0.7029

 eigenvalue-minimisations  :    64
 total energy-change (2. order) :-0.3249011E+02  (-0.3246129E+02)
 number of electron      26.0000000 magnetization 
 augmentation part       26.0000000 magnetization 

 Free energy of the ion-electron system (eV)
  ---------------------------------------------------
  alpha Z        PSCENC =         0.19661355
  Ewald energy   TEWEN  =      1675.06761068
  -Hartree energ DENC   =     -2384.33129516
  -exchange      EXHF   =         0.00000000
  -V(xc)+E(xc)   XCENC  =        63.78285225
  PAW double counting   =       761.07819111     -742.68311964
  entropy T*S    EENTRO =        -0.00000000
  eigenvalues    EBANDS =      -455.02792283
  atomic energy  EATOM  =      1020.49086547
  ---------------------------------------------------
  free energy    TOTEN  =       -61.42620458 eV

  energy without entropy =      -61.42620458  energy(sigma->0) =      -61.42620458


--------------------------------------------------------------------------------------------------------




--------------------------------------- Iteration      1(   5)  ---------------------------------------


    TRIAL :  cpu time      0.7902: real time      0.7905
    CORREC:  cpu time      0.0001: real time      0.0001
    CHARGE:  cpu time      0.2102: real time      0.2110
    --------------------------------------------
      LOOP:  cpu time      1.0147: real time      1.0317

 eigenvalue-minimisations  :    80
 total energy-change (2. order) :-0.1562080E+01  (-0.1558881E+01)
 number of electron      26.0000000 magnetization 
 augmentation part       -0.0519526 magnetization 

 Free energy of the ion-electron system (eV)
  ---------------------------------------------------
  alpha Z        PSCENC =         0.19661355
  Ewald energy   TEWEN  =      1675.06761068
  -Hartree energ DENC   =     -2384.33129516
  -exchange      EXHF   =         0.00000000
  -V(xc)+E(xc)   XCENC  =        63.78285225
  PAW double counting   =       761.07819111     -742.68311964
  entropy T*S    EENTRO =        -0.00000000
  eigenvalues    EBANDS =      -456.59000239
  atomic energy  EATOM  =      1020.49086547
  ---------------------------------------------------
  free energy    TOTEN  =       -62.98828414 eV

  energy without entropy =      -62.98828414  energy(sigma->0) =      -62.98828414


--------------------------------------------------------------------------------------------------------




--------------------------------------- Iteration      1(   6)  ---------------------------------------


    POTLOK:  cpu time      0.6208: real time      0.6210
    SETDIJ:  cpu time      0.0011: real time      0.0011
    TRIAL :  cpu time      0.3994: real time      0.4006
    CORREC:  cpu time      0.9092: real time      0.9104
    CHARGE:  cpu time      0.1689: real time      0.1695
    --------------------------------------------
      LOOP:  cpu time      2.1132: real time      2.1328

 eigenvalue-minimisations  :     0
 total energy-change (2. order) : 0.1027227E+02  (-0.4166427E+01)
 number of electron      26.0000000 magnetization 
 augmentation part       -0.0575674 magnetization 

 Free energy of the ion-electron system (eV)
  ---------------------------------------------------
  alpha Z        PSCENC =         0.19661355
  Ewald energy   TEWEN  =      1675.06761068
  -Hartree energ DENC   =     -2605.27340043
  -exchange      EXHF   =         0.00000000
  -V(xc)+E(xc)   XCENC  =        72.43471323
  PAW double counting   =      8434.14051337    -8416.78240848
  entropy T*S    EENTRO =        -0.00000000
  eigenvalues    EBANDS =      -232.99052219
  atomic energy  EATOM  =      1020.49086547
  ---------------------------------------------------
  free energy    TOTEN  =       -52.71601480 eV

  energy without entropy =      -52.71601480  energy(sigma->0) =      -52.71601480


--------------------------------------------------------------------------------------------------------




--------------------------------------- Iteration      1(   7)  ---------------------------------------


    POTLOK:  cpu time      0.6210: real time      0.6211
    SETDIJ:  cpu time      0.0038: real time      0.0038
    TRIAL :  cpu time      0.3850: real time      0.3854
    CORREC:  cpu time      0.9016: real time      0.9023
    CHARGE:  cpu time      0.1692: real time      0.1693
    --------------------------------------------
      LOOP:  cpu time      2.0988: real time      2.1124

 eigenvalue-minimisations  :     0
 total energy-change (2. order) :-0.4208570E+01  (-0.3927872E+00)
 number of electron      26.0000000 magnetization 
 augmentation part       -0.0653941 magnetization 

 Free energy of the ion-electron system (eV)
  ---------------------------------------------------
  alpha Z        PSCENC =         0.19661355
  Ewald energy   TEWEN  =      1675.06761068
  -Hartree energ DENC   =     -2504.99649470
  -exchange      EXHF   =         0.00000000
  -V(xc)+E(xc)   XCENC  =        68.91369990
  PAW double counting   =     10352.70640150   -10334.91319895
  entropy T*S    EENTRO =        -0.00000000
  eigenvalues    EBANDS =      -334.39008215
  atomic energy  EATOM  =      1020.49086547
  ---------------------------------------------------
  free energy    TOTEN  =       -56.92458471 eV

  energy without entropy =      -56.92458471  energy(sigma->0) =      -56.92458471


--------------------------------------------------------------------------------------------------------




--------------------------------------- Iteration      1(   8)  ---------------------------------------


    POTLOK:  cpu time      0.6184: real time      0.6185
    SETDIJ:  cpu time      0.0062: real time      0.0062
    TRIAL :  cpu time      0.3849: real time      0.3854
    CORREC:  cpu time      0.9004: real time      0.9010
    CHARGE:  cpu time      0.1696: real time      0.1697
    --------------------------------------------
      LOOP:  cpu time      2.0943: real time      2.1120

 eigenvalue-minimisations  :     0
 total energy-change (2. order) :-0.3943173E+00  (-0.1621276E+00)
 number of electron      26.0000000 magnetization 
 augmentation part       -0.0670342 magnetization 

 Free energy of the ion-electron system (eV)
  ---------------------------------------------------
  alpha Z        PSCENC =         0.19661355
  Ewald energy   TEWEN  =      1675.06761068
  -Hartree energ DENC   =     -2506.90397406
  -exchange      EXHF   =         0.00000000
  -V(xc)+E(xc)   XCENC  =        69.01989466
  PAW double counting   =     10856.88057712   -10839.04805480
  entropy T*S    EENTRO =        -0.00000000
  eigenvalues    EBANDS =      -333.02243464
  atomic energy  EATOM  =      1020.49086547
  ---------------------------------------------------
  free energy    TOTEN  =       -57.31890203 eV

  energy without entropy =      -57.31890203  energy(sigma->0) =      -57.31890203


--------------------------------------------------------------------------------------------------------




--------------------------------------- Iteration      1(   9)  ---------------------------------------


    POTLOK:  cpu time      0.6191: real time      0.6194
    SETDIJ:  cpu time      0.0052: real time      0.0052
    TRIAL :  cpu time      0.3865: real time      0.3866
    CORREC:  cpu time      0.9000: real time      0.9005
    CHARGE:  cpu time      0.1713: real time      0.1713
    --------------------------------------------
      LOOP:  cpu time      2.0974: real time      2.1146

 eigenvalue-minimisations  :     0
 total energy-change (2. order) :-0.1607314E+00  (-0.7459751E-01)
 number of electron      26.0000000 magnetization 
 augmentation part       -0.0679096 magnetization 

 Free energy of the ion-electron system (eV)
  ---------------------------------------------------
  alpha Z        PSCENC =         0.19661355
  Ewald energy   TEWEN  =      1675.06761068
  -Hartree energ DENC   =     -2503.07114213
  -exchange      EXHF   =         0.00000000
  -V(xc)+E(xc)   XCENC  =        68.88733457
  PAW double counting   =     11168.12225354   -11150.25017152
  entropy T*S    EENTRO =        -0.00000000
  eigenvalues    EBANDS =      -336.92299760
  atomic energy  EATOM  =      1020.49086547
  ---------------------------------------------------
  free energy    TOTEN  =       -57.47963345 eV

  energy without entropy =      -57.47963345  energy(sigma->0) =      -57.47963345


--------------------------------------------------------------------------------------------------------




--------------------------------------- Iteration      1(  10)  ---------------------------------------


    POTLOK:  cpu time      0.6163: real time      0.6167
    SETDIJ:  cpu time      0.0054: real time      0.0054
    TRIAL :  cpu time      0.3849: real time      0.3850
    CORREC:  cpu time      0.9027: real time      0.9034
    CHARGE:  cpu time      0.1709: real time      0.1709
    --------------------------------------------
      LOOP:  cpu time      2.0947: real time      2.1134

 eigenvalue-minimisations  :     0
 total energy-change (2. order) :-0.7345199E-01  (-0.2625875E-01)
 number of electron      26.0000000 magnetization 
 augmentation part       -0.0679657 magnetization 

 Free energy of the ion-electron system (eV)
  ---------------------------------------------------
  alpha Z        PSCENC =         0.19661355
  Ewald energy   TEWEN  =      1675.06761068
  -Hartree energ DENC   =     -2500.41853766
  -exchange      EXHF   =         0.00000000
  -V(xc)+E(xc)   XCENC  =        68.80728081
  PAW double counting   =     11100.51123597   -11082.62840874
  entropy T*S    EENTRO =        -0.00000000
  eigenvalues    EBANDS =      -339.57974551
  atomic energy  EATOM  =      1020.49086547
  ---------------------------------------------------
  free energy    TOTEN  =       -57.55308544 eV

  energy without entropy =      -57.55308544  energy(sigma->0) =      -57.55308544


--------------------------------------------------------------------------------------------------------




--------------------------------------- Iteration      1(  11)  ---------------------------------------


    POTLOK:  cpu time      0.6161: real time      0.6167
    SETDIJ:  cpu time      0.0021: real time      0.0021
    TRIAL :  cpu time      0.3836: real time      0.3836
    CORREC:  cpu time      0.8905: real time      0.8910
    CHARGE:  cpu time      0.1703: real time      0.1704
    --------------------------------------------
      LOOP:  cpu time      2.0784: real time      2.0937

 eigenvalue-minimisations  :     0
 total energy-change (2. order) :-0.2611436E-01  (-0.7869756E-02)
 number of electron      26.0000000 magnetization 
 augmentation part       -0.0677206 magnetization 

 Free energy of the ion-electron system (eV)
  ---------------------------------------------------
  alpha Z        PSCENC =         0.19661355
  Ewald energy   TEWEN  =      1675.06761068
  -Hartree energ DENC   =     -2500.58469356
  -exchange      EXHF   =         0.00000000
  -V(xc)+E(xc)   XCENC  =        68.82440925
  PAW double counting   =     10905.64644149   -10887.77447558
  entropy T*S    EENTRO =        -0.00000000
  eigenvalues    EBANDS =      -339.44597109
  atomic energy  EATOM  =      1020.49086547
  ---------------------------------------------------
  free energy    TOTEN  =       -57.57919980 eV

  energy without entropy =      -57.57919980  energy(sigma->0) =      -57.57919980


--------------------------------------------------------------------------------------------------------




--------------------------------------- Iteration      1(  12)  ---------------------------------------


    POTLOK:  cpu time      0.6104: real time      0.6108
    SETDIJ:  cpu time      0.0040: real time      0.0040
    TRIAL :  cpu time      0.3848: real time      0.3850
    CORREC:  cpu time      0.8908: real time      0.8916
    CHARGE:  cpu time      0.1701: real time      0.1702
    --------------------------------------------
      LOOP:  cpu time      2.0740: real time      2.0917

 eigenvalue-minimisations  :     0
 total energy-change (2. order) :-0.7852658E-02  (-0.2341726E-02)
 number of electron      26.0000000 magnetization 
 augmentation part       -0.0676186 magnetization 

 Free energy of the ion-electron system (eV)
  ---------------------------------------------------
  alpha Z        PSCENC =         0.19661355
  Ewald energy   TEWEN  =      1675.06761068
  -Hartree energ DENC   =     -2500.20084417
  -exchange      EXHF   =         0.00000000
  -V(xc)+E(xc)   XCENC  =        68.81087117
  PAW double counting   =     10811.95746024   -10794.09174705
  entropy T*S    EENTRO =        -0.00000000
  eigenvalues    EBANDS =      -339.81788234
  atomic energy  EATOM  =      1020.49086547
  ---------------------------------------------------
  free energy    TOTEN  =       -57.58705245 eV

  energy without entropy =      -57.58705245  energy(sigma->0) =      -57.58705245


--------------------------------------------------------------------------------------------------------




--------------------------------------- Iteration      1(  13)  ---------------------------------------


    POTLOK:  cpu time      0.6128: real time      0.6131
    SETDIJ:  cpu time      0.0017: real time      0.0017
    TRIAL :  cpu time      0.3886: real time      0.3886
    CORREC:  cpu time      0.8893: real time      0.8899
    CHARGE:  cpu time      0.1712: real time      0.1713
    --------------------------------------------
      LOOP:  cpu time      2.0783: real time      2.0968

 eigenvalue-minimisations  :     0
 total energy-change (2. order) :-0.2341657E-02  (-0.7649731E-03)
 number of electron      26.0000000 magnetization 
 augmentation part       -0.0675608 magnetization 

 Free energy of the ion-electron system (eV)
  ---------------------------------------------------
  alpha Z        PSCENC =         0.19661355
  Ewald energy   TEWEN  =      1675.06761068
  -Hartree energ DENC   =     -2499.97343961
  -exchange      EXHF   =         0.00000000
  -V(xc)+E(xc)   XCENC  =        68.79968866
  PAW double counting   =     10793.60083437   -10775.73751831
  entropy T*S    EENTRO =        -0.00000000
  eigenvalues    EBANDS =      -340.03404891
  atomic energy  EATOM  =      1020.49086547
  ---------------------------------------------------
  free energy    TOTEN  =       -57.58939411 eV

  energy without entropy =      -57.58939411  energy(sigma->0) =      -57.58939411


--------------------------------------------------------------------------------------------------------




--------------------------------------- Iteration      1(  14)  ---------------------------------------


    POTLOK:  cpu time      0.6123: real time      0.6127
    SETDIJ:  cpu time      0.0019: real time      0.0019
    TRIAL :  cpu time      0.3842: real time      0.3842
    CORREC:  cpu time      0.8825: real time      0.8830
    CHARGE:  cpu time      0.1709: real time      0.1710
    --------------------------------------------
      LOOP:  cpu time      2.0661: real time      2.0858

 eigenvalue-minimisations  :     0
 total energy-change (2. order) :-0.7656027E-03  (-0.2905129E-03)
 number of electron      26.0000000 magnetization 
 augmentation part       -0.0675602 magnetization 

 Free energy of the ion-electron system (eV)
  ---------------------------------------------------
  alpha Z        PSCENC =         0.19661355
  Ewald energy   TEWEN  =      1675.06761068
  -Hartree energ DENC   =     -2500.09265910
  -exchange      EXHF   =         0.00000000
  -V(xc)+E(xc)   XCENC  =        68.80130724
  PAW double counting   =     10803.15516761   -10785.29294055
  entropy T*S    EENTRO =        -0.00000000
  eigenvalues    EBANDS =      -339.91612460
  atomic energy  EATOM  =      1020.49086547
  ---------------------------------------------------
  free energy    TOTEN  =       -57.59015971 eV

  energy without entropy =      -57.59015971  energy(sigma->0) =      -57.59015971


--------------------------------------------------------------------------------------------------------




--------------------------------------- Iteration      1(  15)  ---------------------------------------


    POTLOK:  cpu time      0.5965: real time      0.5970
    SETDIJ:  cpu time      0.0067: real time      0.0067
    TRIAL :  cpu time      0.3891: real time      0.3892
    CORREC:  cpu time      0.8756: real time      0.8761
    CHARGE:  cpu time      0.1708: real time      0.1712
    --------------------------------------------
      LOOP:  cpu time      2.0695: real time      2.0714

 eigenvalue-minimisations  :     0
 total energy-change (2. order) :-0.2908956E-03  (-0.1191548E-03)
 number of electron      26.0000000 magnetization 
 augmentation part       -0.0675592 magnetization 

 Free energy of the ion-electron system (eV)
  ---------------------------------------------------
  alpha Z        PSCENC =         0.19661355
  Ewald energy   TEWEN  =      1675.06761068
  -Hartree energ DENC   =     -2500.14833032
  -exchange      EXHF   =         0.00000000
  -V(xc)+E(xc)   XCENC  =        68.80169319
  PAW double counting   =     10818.54434180   -10800.68185940
  entropy T*S    EENTRO =        -0.00000000
  eigenvalues    EBANDS =      -339.86138557
  atomic energy  EATOM  =      1020.49086547
  ---------------------------------------------------
  free energy    TOTEN  =       -57.59045061 eV

  energy without entropy =      -57.59045061  energy(sigma->0) =      -57.59045061


--------------------------------------------------------------------------------------------------------




--------------------------------------- Iteration      1(  16)  ---------------------------------------


    POTLOK:  cpu time      0.5967: real time      0.5969
    SETDIJ:  cpu time      0.0010: real time      0.0010
    TRIAL :  cpu time      0.3834: real time      0.3842
    CORREC:  cpu time      0.8762: real time      0.8764
    CHARGE:  cpu time      0.1699: real time      0.1702
    --------------------------------------------
      LOOP:  cpu time      2.0400: real time      2.0581

 eigenvalue-minimisations  :     0
 total energy-change (2. order) :-0.1193920E-03  (-0.4426828E-04)
 number of electron      26.0000000 magnetization 
 augmentation part       -0.0675404 magnetization 

 Free energy of the ion-electron system (eV)
  ---------------------------------------------------
  alpha Z        PSCENC =         0.19661355
  Ewald energy   TEWEN  =      1675.06761068
  -Hartree energ DENC   =     -2500.19821942
  -exchange      EXHF   =         0.00000000
  -V(xc)+E(xc)   XCENC  =        68.80290003
  PAW double counting   =     10825.79659391   -10807.93376093
  entropy T*S    EENTRO =        -0.00000000
  eigenvalues    EBANDS =      -339.81317329
  atomic energy  EATOM  =      1020.49086547
  ---------------------------------------------------
  free energy    TOTEN  =       -57.59057000 eV

  energy without entropy =      -57.59057000  energy(sigma->0) =      -57.59057000


--------------------------------------------------------------------------------------------------------




--------------------------------------- Iteration      1(  17)  ---------------------------------------


    POTLOK:  cpu time      0.5884: real time      0.5885
    SETDIJ:  cpu time      0.0032: real time      0.0032
    TRIAL :  cpu time      0.3838: real time      0.3842
    CORREC:  cpu time      0.8681: real time      0.8684
    CHARGE:  cpu time      0.1696: real time      0.1701
    --------------------------------------------
      LOOP:  cpu time      2.0387: real time      2.0449

 eigenvalue-minimisations  :     0
 total energy-change (2. order) :-0.4441806E-04  (-0.1553389E-04)
 number of electron      26.0000000 magnetization 
 augmentation part       -0.0675316 magnetization 

 Free energy of the ion-electron system (eV)
  ---------------------------------------------------
  alpha Z        PSCENC =         0.19661355
  Ewald energy   TEWEN  =      1675.06761068
  -Hartree energ DENC   =     -2500.23370277
  -exchange      EXHF   =         0.00000000
  -V(xc)+E(xc)   XCENC  =        68.80414587
  PAW double counting   =     10825.56636859   -10807.70341746
  entropy T*S    EENTRO =        -0.00000000
  eigenvalues    EBANDS =      -339.77909834
  atomic energy  EATOM  =      1020.49086547
  ---------------------------------------------------
  free energy    TOTEN  =       -57.59061442 eV

  energy without entropy =      -57.59061442  energy(sigma->0) =      -57.59061442


--------------------------------------------------------------------------------------------------------




--------------------------------------- Iteration      1(  18)  ---------------------------------------


    POTLOK:  cpu time      0.5869: real time      0.5871
    SETDIJ:  cpu time      0.0051: real time      0.0051
    TRIAL :  cpu time      0.3849: real time      0.3853
    CORREC:  cpu time      0.8665: real time      0.8668
    CHARGE:  cpu time      0.1707: real time      0.1712
    --------------------------------------------
      LOOP:  cpu time      2.0445: real time      2.0459

 eigenvalue-minimisations  :     0
 total energy-change (2. order) :-0.1557927E-04  (-0.5700040E-05)
 number of electron      26.0000000 magnetization 
 augmentation part       -0.0675325 magnetization 

 Free energy of the ion-electron system (eV)
  ---------------------------------------------------
  alpha Z        PSCENC =         0.19661355
  Ewald energy   TEWEN  =      1675.06761068
  -Hartree energ DENC   =     -2500.23799218
  -exchange      EXHF   =         0.00000000
  -V(xc)+E(xc)   XCENC  =        68.80449133
  PAW double counting   =     10824.16652620   -10806.30351554
  entropy T*S    EENTRO =        -0.00000000
  eigenvalues    EBANDS =      -339.77522950
  atomic energy  EATOM  =      1020.49086547
  ---------------------------------------------------
  free energy    TOTEN  =       -57.59063000 eV

  energy without entropy =      -57.59063000  energy(sigma->0) =      -57.59063000


--------------------------------------------------------------------------------------------------------




--------------------------------------- Iteration      1(  19)  ---------------------------------------


    POTLOK:  cpu time      0.5891: real time      0.5893
    SETDIJ:  cpu time      0.0020: real time      0.0020
    TRIAL :  cpu time      0.3842: real time      0.3850
    CORREC:  cpu time      0.8688: real time      0.8695
    CHARGE:  cpu time      0.1702: real time      0.1703
    --------------------------------------------
      LOOP:  cpu time      2.0270: real time      2.0480

 eigenvalue-minimisations  :     0
 total energy-change (2. order) :-0.5664871E-05  (-0.2308872E-05)
 number of electron      26.0000000 magnetization 
 augmentation part       -0.0675431 magnetization 

 Free energy of the ion-electron system (eV)
  ---------------------------------------------------
  alpha Z        PSCENC =         0.19661355
  Ewald energy   TEWEN  =      1675.06761068
  -Hartree energ DENC   =     -2500.24540353
  -exchange      EXHF   =         0.00000000
  -V(xc)+E(xc)   XCENC  =        68.80497774
  PAW double counting   =     10823.56439864   -10805.70141747
  entropy T*S    EENTRO =        -0.00000000
  eigenvalues    EBANDS =      -339.76828074
  atomic energy  EATOM  =      1020.49086547
  ---------------------------------------------------
  free energy    TOTEN  =       -57.59063566 eV

  energy without entropy =      -57.59063566  energy(sigma->0) =      -57.59063566


--------------------------------------------------------------------------------------------------------




--------------------------------------- Iteration      1(  20)  ---------------------------------------


    POTLOK:  cpu time      0.5850: real time      0.5851
    SETDIJ:  cpu time      0.0064: real time      0.0064
    TRIAL :  cpu time      0.3839: real time      0.3843
    CORREC:  cpu time      0.8692: real time      0.8698
    CHARGE:  cpu time      0.1712: real time      0.1713
    --------------------------------------------
      LOOP:  cpu time      2.0320: real time      2.0484

 eigenvalue-minimisations  :     0
 total energy-change (2. order) :-0.2259807E-05  (-0.9957737E-06)
 number of electron      26.0000000 magnetization 
 augmentation part       -0.0675515 magnetization 

 Free energy of the ion-electron system (eV)
  ---------------------------------------------------
  alpha Z        PSCENC =         0.19661355
  Ewald energy   TEWEN  =      1675.06761068
  -Hartree energ DENC   =     -2500.23471228
  -exchange      EXHF   =         0.00000000
  -V(xc)+E(xc)   XCENC  =        68.80468754
  PAW double counting   =     10823.97193439   -10806.10891968
  entropy T*S    EENTRO =        -0.00000000
  eigenvalues    EBANDS =      -339.77871759
  atomic energy  EATOM  =      1020.49086547
  ---------------------------------------------------
  free energy    TOTEN  =       -57.59063792 eV

  energy without entropy =      -57.59063792  energy(sigma->0) =      -57.59063792


--------------------------------------------------------------------------------------------------------




--------------------------------------- Iteration      1(  21)  ---------------------------------------


    POTLOK:  cpu time      0.5869: real time      0.5870
    SETDIJ:  cpu time      0.0024: real time      0.0024
    TRIAL :  cpu time      0.3829: real time      0.3833
    CORREC:  cpu time      0.8677: real time      0.8683
    CHARGE:  cpu time      0.1702: real time      0.1703
    --------------------------------------------
      LOOP:  cpu time      2.0390: real time      2.0406

 eigenvalue-minimisations  :     0
 total energy-change (2. order) :-0.9258238E-06  (-0.3389295E-06)
 number of electron      26.0000000 magnetization 
 augmentation part       -0.0675557 magnetization 

 Free energy of the ion-electron system (eV)
  ---------------------------------------------------
  alpha Z        PSCENC =         0.19661355
  Ewald energy   TEWEN  =      1675.06761068
  -Hartree energ DENC   =     -2500.23949286
  -exchange      EXHF   =         0.00000000
  -V(xc)+E(xc)   XCENC  =        68.80486081
  PAW double counting   =     10824.40067906   -10806.53768286
  entropy T*S    EENTRO =        -0.00000000
  eigenvalues    EBANDS =      -339.77409268
  atomic energy  EATOM  =      1020.49086547
  ---------------------------------------------------
  free energy    TOTEN  =       -57.59063885 eV

  energy without entropy =      -57.59063885  energy(sigma->0) =      -57.59063885


--------------------------------------------------------------------------------------------------------




--------------------------------------- Iteration      1(  22)  ---------------------------------------


    POTLOK:  cpu time      0.5873: real time      0.5874
    SETDIJ:  cpu time      0.0039: real time      0.0039
    TRIAL :  cpu time      0.3853: real time      0.3858
    CORREC:  cpu time      0.8703: real time      0.8710
    CHARGE:  cpu time      0.1706: real time      0.1707
    --------------------------------------------
      LOOP:  cpu time      2.0485: real time      2.0501

 eigenvalue-minimisations  :     0
 total energy-change (2. order) :-0.3268924E-06  (-0.1337147E-06)
 number of electron      26.0000000 magnetization 
 augmentation part       -0.0675557 magnetization 

 Free energy of the ion-electron system (eV)
  ---------------------------------------------------
  alpha Z        PSCENC =         0.19661355
  Ewald energy   TEWEN  =      1675.06761068
  -Hartree energ DENC   =     -2500.23334329
  -exchange      EXHF   =         0.00000000
  -V(xc)+E(xc)   XCENC  =        68.80463207
  PAW double counting   =     10824.48025101   -10806.61724346
  entropy T*S    EENTRO =        -0.00000000
  eigenvalues    EBANDS =      -339.78002521
  atomic energy  EATOM  =      1020.49086547
  ---------------------------------------------------
  free energy    TOTEN  =       -57.59063917 eV

  energy without entropy =      -57.59063917  energy(sigma->0) =      -57.59063917


--------------------------------------------------------------------------------------------------------




--------------------------------------- Iteration      1(  23)  ---------------------------------------


    POTLOK:  cpu time      0.5867: real time      0.5868
    SETDIJ:  cpu time      0.0020: real time      0.0020
    TRIAL :  cpu time      0.3848: real time      0.3852
    CORREC:  cpu time      0.8718: real time      0.8726
    CHARGE:  cpu time      0.1710: real time      0.1711
    --------------------------------------------
      LOOP:  cpu time      2.0304: real time      2.0491

 eigenvalue-minimisations  :     0
 total energy-change (2. order) :-0.1292192E-06  (-0.4680497E-07)
 number of electron      26.0000000 magnetization 
 augmentation part       -0.0675550 magnetization 

 Free energy of the ion-electron system (eV)
  ---------------------------------------------------
  alpha Z        PSCENC =         0.19661355
  Ewald energy   TEWEN  =      1675.06761068
  -Hartree energ DENC   =     -2500.23447124
  -exchange      EXHF   =         0.00000000
  -V(xc)+E(xc)   XCENC  =        68.80464808
  PAW double counting   =     10824.35753031   -10806.49453273
  entropy T*S    EENTRO =        -0.00000000
  eigenvalues    EBANDS =      -339.77890342
  atomic energy  EATOM  =      1020.49086547
  ---------------------------------------------------
  free energy    TOTEN  =       -57.59063930 eV

  energy without entropy =      -57.59063930  energy(sigma->0) =      -57.59063930


--------------------------------------------------------------------------------------------------------




--------------------------------------- Iteration      1(  24)  ---------------------------------------


    POTLOK:  cpu time      0.5865: real time      0.5869
    SETDIJ:  cpu time      0.0022: real time      0.0022
    TRIAL :  cpu time      0.3852: real time      0.3852
    CORREC:  cpu time      0.8692: real time      0.8697
    EDDIAG:  cpu time      0.1717: real time      0.1723
    CHARGE:  cpu time      0.1711: real time      0.1712
    --------------------------------------------
      LOOP:  cpu time      2.2000: real time      2.2193

 eigenvalue-minimisations  :     0
 total energy-change (2. order) :-0.4588037E-07  (-0.1612928E-07)
 number of electron      26.0000000 magnetization 
 augmentation part       -0.0675545 magnetization 

 Free energy of the ion-electron system (eV)
  ---------------------------------------------------
  alpha Z        PSCENC =         0.19661355
  Ewald energy   TEWEN  =      1675.06761068
  -Hartree energ DENC   =     -2500.23466246
  -exchange      EXHF   =         0.00000000
  -V(xc)+E(xc)   XCENC  =        68.80463971
  PAW double counting   =     10824.29100270   -10806.42800734
  entropy T*S    EENTRO =        -0.00000000
  eigenvalues    EBANDS =      -339.77870165
  atomic energy  EATOM  =      1020.49086547
  ---------------------------------------------------
  free energy    TOTEN  =       -57.59063935 eV

  energy without entropy =      -57.59063935  energy(sigma->0) =      -57.59063935


--------------------------------------------------------------------------------------------------------


  average scaling for gradient   1.1660


 average (electrostatic) potential at core
  the test charge radii are     0.5770  0.4325  0.5902
  (the norm of the test charge is              1.0000)
       1 -86.3966       2 -85.9225       3 -86.9663       4 -45.8485       5 -45.2342
       6 -45.1370       7 -47.9266       8-105.5698       9-103.7711



 E-fermi :  -6.0162     XC(G=0):  -0.1361     alpha+bet : -0.0573

 Fermi energy:        -6.0162028033

 k-point     1 :       0.0000    0.0000    0.0000
  band No.  band energies     occupation 
      1     -26.1626      2.00000
      2     -20.2851      2.00000
      3     -19.3010      2.00000
      4     -15.1030      2.00000
      5     -14.6946      2.00000
      6     -13.4031      2.00000
      7     -10.8644      2.00000
      8     -10.7246      2.00000
      9     -10.4171      2.00000
     10      -9.6480      2.00000
     11      -6.7813      2.00000
     12      -6.3718      2.00000
     13      -6.1328      2.00000
     14      -0.7217      0.00000
     15      -0.5987      0.00000
     16      -0.0398      0.00000
     17       0.1006      0.00000
     18       0.1435      0.00000
     19       0.2349      0.00000
     20       0.3486      0.00000
     21       0.4107      0.00000
     22       0.4564      0.00000
     23       0.5374      0.00000
     24       0.9310      0.00000


--------------------------------------------------------------------------------------------------------


 soft charge-density along one line, spin component           1
         0         1         2         3         4         5         6         7         8         9
 total charge-density along one line

 pseudopotential strength for first ion, spin component:           1
 12.731  21.425  -0.000  -0.003   0.006  -0.000  -0.005   0.010
 21.425  36.053  -0.000  -0.005   0.010  -0.001  -0.008   0.017
 -0.000  -0.000  -3.181   0.000   0.000  -5.702   0.000   0.000
 -0.003  -0.005   0.000  -3.181   0.000   0.000  -5.703   0.000
  0.006   0.010   0.000   0.000  -3.181   0.000   0.000  -5.703
 -0.000  -0.001  -5.702   0.000   0.000 -10.200   0.000   0.000
 -0.005  -0.008   0.000  -5.703   0.000   0.000 -10.201   0.001
  0.010   0.017   0.000   0.000  -5.703   0.000   0.001 -10.202
 total augmentation occupancy for first ion, spin component:           1
  7.919  -2.800  -0.577  -0.920   0.932   0.266   0.435  -0.455
 -2.800   1.041   0.280   0.469  -0.504  -0.126  -0.215   0.235
 -0.577   0.280   5.421   1.714   0.743  -1.706  -0.675  -0.299
 -0.920   0.469   1.714   5.154  -1.087  -0.675  -1.615   0.470
  0.932  -0.504   0.743  -1.087   7.210  -0.299   0.470  -2.517
  0.266  -0.126  -1.706  -0.675  -0.299   0.552   0.254   0.114
  0.435  -0.215  -0.675  -1.615   0.470   0.254   0.524  -0.194
 -0.455   0.235  -0.299   0.470  -2.517   0.114  -0.194   0.900


------------------------ aborting loop because EDIFF is reached ----------------------------------------


    FORLOC:  cpu time      0.0371: real time      0.0371
    FORNL :  cpu time      0.0245: real time      0.0247
    FORCOR:  cpu time      0.5103: real time      0.5108
    OFIELD:  cpu time      0.0068: real time      0.0068

  Hirshfeld charges:
            ion         q(e)     
   ------------------------------
      1     C       -0.03173043
      2     C       -0.09271766
      3     C       -0.02241908
      4     H        0.06087939
      5     H        0.05209421
      6     H        0.05462700
      7     H        0.15294695
      8     N       -0.01993249
      9     N       -0.15374788

  Atomic reference data used in the T-S method for vdW correction:
            C6at              R0at           ALPHAat      REFSTATE
            (au)              (au)            (au)                
   ---------------------------------------------------------------
   C          46.600          3.590         12.000         0
   H           6.500          3.099          4.500         0
   N          24.200          3.345          7.400         0
 
 Nth order contribution to Edisp (eV)
 Edisp(N=2): -0.12204262250311114     
 Edisp(N=3):   9.5203554862165662E-004
 Edisp(N=4):  -6.4953471358506864E-004
 Edisp(N=5):   1.3110481115006009E-005
 Edisp(N=6):  -6.9701894940199561E-006
 Edisp(N=inf): -0.12173382270884922     

  Tkatchenko/Scheffler method for vdW energy calculation
  ---------------------------------------------------------------------------------------------

  Parameters of vdW forcefield:
            C6ts              R0ts          ALPHAts         R0scs        ALPHAscs        RELVOL 
            (au)              (au)           (au)            (au)          (au)                 
   ---------------------------------------------------------------------------------------------
   C          31.757          3.368          9.906          3.281          9.157          0.826
   C          30.945          3.354          9.779          3.282          9.163          0.815
   C          29.918          3.335          9.615          3.253          8.923          0.801
   H           2.272          2.601          2.661          2.445          2.209          0.591
   H           2.408          2.626          2.739          2.448          2.217          0.609
   H           2.480          2.639          2.779          2.477          2.299          0.618
   H           2.158          2.579          2.593          2.521          2.423          0.576
   N          17.212          3.160          6.241          2.956          5.108          0.843
   N          21.286          3.274          6.940          3.087          5.820          0.938

  vdW correction parametrized for the method pbe       

  IVDW = 202
  VDW_RADIUS =    50.000 A
  VDW_SR =     0.830
  VDW_D =     6.000
  SCSRAD =   120.000 A
  LVDWSCS = T
  LSCSGRAD = T
  LSCALER0 = T
  ITIM = -1
  Edisp (eV):   -0.12173
    FORVDW:  cpu time      6.6846: real time      6.6879

 VOLUME and BASIS-vectors are now :
 -----------------------------------------------------------------------------
  energy-cutoff  :     1000.00
  volume of cell :    10648.00
      direct lattice vectors                 reciprocal lattice vectors
    22.000000000  0.000000000  0.000000000     0.045454545  0.000000000  0.000000000
     0.000000000 22.000000000  0.000000000     0.000000000  0.045454545  0.000000000
     0.000000000  0.000000000 22.000000000     0.000000000  0.000000000  0.045454545

  length of vectors
    22.000000000 22.000000000 22.000000000     0.045454545  0.045454545  0.045454545


 FORCES acting on ions:
    Electron-Ion                     Ewald-Force                    Non-Local-Force
 -----------------------------------------------------------------------------------------------
   0.838E+02 -.136E+03 -.158E+03   -.870E+02 0.136E+03 0.159E+03   0.318E+01 0.348E-01 -.134E+01
   0.204E+03 0.315E+02 -.600E+02   -.205E+03 -.310E+02 0.607E+02   0.368E+00 -.546E+00 -.652E+00
   0.966E+02 0.170E+03 0.111E+03   -.104E+03 -.172E+03 -.109E+03   0.785E+01 0.183E+01 -.172E+01
   0.230E+02 0.628E+02 0.463E+02   -.245E+02 -.675E+02 -.498E+02   0.145E+01 0.460E+01 0.349E+01
   0.755E+02 0.128E+02 -.209E+02   -.811E+02 -.138E+02 0.225E+02   0.559E+01 0.959E+00 -.154E+01
   0.168E+02 -.556E+02 -.571E+02   -.178E+02 0.598E+02 0.613E+02   0.989E+00 -.414E+01 -.414E+01
   -.786E+02 0.272E+02 0.585E+02   0.847E+02 -.291E+02 -.629E+02   -.608E+01 0.185E+01 0.431E+01
   -.175E+03 0.929E+02 0.159E+03   0.175E+03 -.958E+02 -.161E+03   0.526E+00 0.310E+01 0.247E+01
   -.229E+03 -.187E+03 -.685E+02   0.260E+03 0.214E+03 0.794E+02   -.310E+02 -.275E+02 -.112E+02
 -----------------------------------------------------------------------------------------------
   0.171E+02 0.198E+02 0.103E+02   0.000E+00 0.000E+00 0.568E-13   -.171E+02 -.198E+02 -.103E+02


 POSITION                                       TOTAL-FORCE (eV/Angst)
 -----------------------------------------------------------------------------------
     11.01592     11.87822     11.66173         0.010344     -0.055210     -0.057966
     10.13162     10.89700     11.16415        -0.011269      0.025194      0.024004
     10.86960     10.20273     10.22385         0.087297      0.038980     -0.000608
     10.62191      9.36726      9.58344        -0.022638     -0.073574     -0.058739
      9.10345     10.71911     11.44618        -0.082507     -0.020314      0.022426
     10.83243     12.63274     12.41656        -0.009143      0.063943      0.061393
     12.89655     10.52869      9.63866         0.029012     -0.007174     -0.015656
     12.10054     10.77938     10.20966        -0.059210      0.138177      0.145754
     12.21825     11.80899     11.08057         0.058113     -0.110022     -0.120608
 -----------------------------------------------------------------------------------
    total drift:                               -0.000172      0.000110      0.000102


--------------------------------------------------------------------------------------------------------



  FREE ENERGIE OF THE ION-ELECTRON SYSTEM (eV)
  ---------------------------------------------------
  free  energy   TOTEN  =       -57.71237317 eV

  energy  without entropy=      -57.71237317  energy(sigma->0) =      -57.71237317



--------------------------------------------------------------------------------------------------------


    POTLOK:  cpu time      0.6171: real time      0.6182


--------------------------------------------------------------------------------------------------------


 stress matrix after NEB project (eV)
     -0.04834     -0.00427      0.01595
     -0.00427     -0.03234     -0.02619
      0.01595     -0.02619     -0.03101
  FORCES: max atom, RMS     0.209387    0.114039
  FORCE total and by dimension    0.342116    0.145754
  Stress total and by dimension    0.079135    0.048343
     LOOP+:  cpu time     52.0286: real time     52.3402
    4ORBIT:  cpu time      0.0000: real time      0.0000

 total amount of memory used by VASP MPI-rank0   108656. kBytes
=======================================================================

   base      :      30000. kBytes
   nonl-proj :       4010. kBytes
   fftplans  :      24880. kBytes
   grid      :      48046. kBytes
   one-center:          1. kBytes
   wavefun   :       1719. kBytes

  
  
 General timing and accounting informations for this job:
 ========================================================
  
                  Total CPU time used (sec):       80.198
                            User time (sec):       77.209
                          System time (sec):        2.989
                         Elapsed time (sec):       88.841
  
                   Maximum memory used (kb):      288460.
                   Average memory used (kb):          N/A
  
                          Minor page faults:       204728
                          Major page faults:          603
                 Voluntary context switches:         7220
