 vasp.6.4.1 05Apr23 (build Jun  6 2023 14:46:38) gamma-only                      
 executed on        HPECrayEX_GCC date 2024.08.22  11:31:02
 running  512 mpi-ranks, with    1 threads/rank, on    4 nodes
 distrk:  each k-point on  256 cores,    2 groups
 distr:  one band on NCORE=  32 cores,    8 groups


--------------------------------------------------------------------------------------------------------


 INCAR:
   ALGO = Conjugate
   KPAR = 2
   NCORE = 32
   ISMEAR = 0
   SIGMA = 0.01
   PREC = Accurate
   EDIFF = 1E-7
   ENCUT = 1000
   ISIF = 0
   METAGGA = SCAN
   LASPH = .TRUE.
   SYMPREC = 1E-7
   LWAVE = .FALSE.
   LCHARG = .FALSE.

 POTCAR:    PAW_PBE C_h 06Feb2004                 
 POTCAR:    PAW_PBE H_h 06Feb2004                 
 POTCAR:    PAW_PBE N_h 06Feb2004                 
 POTCAR:    PAW_PBE O_h 06Feb2004                 
 POTCAR:    PAW_PBE C_h 06Feb2004                 
   VRHFIN =C: s2p2                                                                                  
   LEXCH  = PE                                                                                      
   EATOM  =   147.1560 eV,   10.8157 Ry                                                             
                                                                                                    
   TITEL  = PAW_PBE C_h 06Feb2004                                                                   
   LULTRA =        F    use ultrasoft PP ?                                                          
   IUNSCR =        1    unscreen: 0-lin 1-nonlin 2-no                                               
   RPACOR =    0.800    partial core radius                                                         
   POMASS =   12.011; ZVAL   =    4.000    mass and valenz                                          
   RCORE  =    1.100    outmost cutoff radius                                                       
   RWIGS  =    1.630; RWIGS  =    0.863    wigner-seitz radius (au A)                               
   ENMAX  =  700.000; ENMIN  =  500.000 eV                                                          
   ICORE  =        2    local potential                                                             
   LCOR   =        T    correct aug charges                                                         
   LPAW   =        T    paw PP                                                                      
   EAUG   =  946.768                                                                                
   DEXC   =    0.000                                                                                
   RMAX   =    1.128    core radius for proj-oper                                                   
   RAUG   =    1.300    factor for augmentation sphere                                              
   RDEP   =    1.162    radius for radial grids                                                     
   RDEPT  =    1.088    core radius for aug-charge                                                  
                                                                                                    
   Atomic configuration                                                                             
    4 entries                                                                                       
     n  l   j            E        occ.                                                              
     1  0  0.50      -273.3789   2.0000                                                             
     2  0  0.50       -13.7508   2.0000                                                             
     2  1  0.50        -5.2854   2.0000                                                             
     3  2  1.50        -5.4423   0.0000                                                             
   Description                                                                                      
     l       E           TYP  RCUT    TYP  RCUT                                                     
     0    -13.7508458     23  1.100                                                                 
     0     -8.2022199     23  1.100                                                                 
     1     -5.2854383     23  1.100                                                                 
     1      1.1560700     23  1.100                                                                 
     2     -5.4423304      7  1.100                                                                 
  local pseudopotential read in
  partial core-charges read in
  partial kinetic energy density read in
  atomic valenz-charges read in
  non local Contribution for L=           0  read in
    real space projection operators read in
  non local Contribution for L=           0  read in
    real space projection operators read in
  non local Contribution for L=           1  read in
    real space projection operators read in
  non local Contribution for L=           1  read in
    real space projection operators read in
    PAW grid and wavefunctions read in

   number of l-projection  operators is LMAX  =           4
   number of lm-projection operators is LMMAX =           8

 POTCAR:    PAW_PBE H_h 06Feb2004                 
   VRHFIN =H: ultrasoft test                                                                        
   LEXCH  = PE                                                                                      
   EATOM  =    12.4884 eV,    0.9179 Ry                                                             
                                                                                                    
   TITEL  = PAW_PBE H_h 06Feb2004                                                                   
   LULTRA =        F    use ultrasoft PP ?                                                          
   IUNSCR =        0    unscreen: 0-lin 1-nonlin 2-no                                               
   RPACOR =    0.000    partial core radius                                                         
   POMASS =    1.000; ZVAL   =    1.000    mass and valenz                                          
   RCORE  =    0.800    outmost cutoff radius                                                       
   RWIGS  =    0.700; RWIGS  =    0.370    wigner-seitz radius (au A)                               
   ENMAX  =  700.000; ENMIN  =  350.000 eV                                                          
   RCLOC  =    0.701    cutoff for local pot                                                        
   LCOR   =        T    correct aug charges                                                         
   LPAW   =        T    paw PP                                                                      
   EAUG   = 1000.000                                                                                
   RMAX   =    0.819    core radius for proj-oper                                                   
   RAUG   =    1.000    factor for augmentation sphere                                              
   RDEP   =    0.817    radius for radial grids                                                     
   RDEPT  =    0.817    core radius for aug-charge                                                  
                                                                                                    
   Atomic configuration                                                                             
    2 entries                                                                                       
     n  l   j            E        occ.                                                              
     1  0  0.50        -6.4927   1.0000                                                             
     2  1  0.50        -3.4015   0.0000                                                             
   Description                                                                                      
     l       E           TYP  RCUT    TYP  RCUT                                                     
     0     -6.4927493     23  0.800                                                                 
     0      6.8029130     23  0.800                                                                 
     1     -6.8029130     23  0.800                                                                 
  local pseudopotential read in
  atomic valenz-charges read in
  non local Contribution for L=           0  read in
    real space projection operators read in
  non local Contribution for L=           0  read in
    real space projection operators read in
  non local Contribution for L=           1  read in
    real space projection operators read in
    PAW grid and wavefunctions read in

   number of l-projection  operators is LMAX  =           3
   number of lm-projection operators is LMMAX =           5

 POTCAR:    PAW_PBE N_h 06Feb2004                 
   VRHFIN =N: s2p3                                                                                  
   LEXCH  = PE                                                                                      
   EATOM  =   264.5486 eV,   19.4438 Ry                                                             
                                                                                                    
   TITEL  = PAW_PBE N_h 06Feb2004                                                                   
   LULTRA =        F    use ultrasoft PP ?                                                          
   IUNSCR =        1    unscreen: 0-lin 1-nonlin 2-no                                               
   RPACOR =    0.800    partial core radius                                                         
   POMASS =   14.001; ZVAL   =    5.000    mass and valenz                                          
   RCORE  =    1.100    outmost cutoff radius                                                       
   RWIGS  =    1.480; RWIGS  =    0.783    wigner-seitz radius (au A)                               
   ENMAX  =  700.000; ENMIN  =  500.000 eV                                                          
   ICORE  =        2    local potential                                                             
   LCOR   =        T    correct aug charges                                                         
   LPAW   =        T    paw PP                                                                      
   EAUG   =  904.640                                                                                
   DEXC   =    0.000                                                                                
   RMAX   =    1.127    core radius for proj-oper                                                   
   RAUG   =    1.300    factor for augmentation sphere                                              
   RDEP   =    1.115    radius for radial grids                                                     
   RDEPT  =    1.106    core radius for aug-charge                                                  
                                                                                                    
   Atomic configuration                                                                             
    4 entries                                                                                       
     n  l   j            E        occ.                                                              
     1  0  0.50      -384.7179   2.0000                                                             
     2  0  0.50       -18.5828   2.0000                                                             
     2  1  0.50        -7.0898   3.0000                                                             
     3  2  1.50        -6.8029   0.0000                                                             
   Description                                                                                      
     l       E           TYP  RCUT    TYP  RCUT                                                     
     0    -18.5828117     23  1.100                                                                 
     0    -15.0750597     23  1.100                                                                 
     1     -7.0897851     23  1.100                                                                 
     1     -1.9663412     23  1.100                                                                 
     2     -6.8029130      7  1.100                                                                 
  local pseudopotential read in
  partial core-charges read in
  partial kinetic energy density read in
  kinetic energy density of atom read in
  atomic valenz-charges read in
  non local Contribution for L=           0  read in
    real space projection operators read in
  non local Contribution for L=           0  read in
    real space projection operators read in
  non local Contribution for L=           1  read in
    real space projection operators read in
  non local Contribution for L=           1  read in
    real space projection operators read in
    PAW grid and wavefunctions read in

   number of l-projection  operators is LMAX  =           4
   number of lm-projection operators is LMMAX =           8

 POTCAR:    PAW_PBE O_h 06Feb2004                 
   VRHFIN =O: s2p4                                                                                  
   LEXCH  = PE                                                                                      
   EATOM  =   432.3788 eV,   31.7789 Ry                                                             
                                                                                                    
   TITEL  = PAW_PBE O_h 06Feb2004                                                                   
   LULTRA =        F    use ultrasoft PP ?                                                          
   IUNSCR =        1    unscreen: 0-lin 1-nonlin 2-no                                               
   RPACOR =    0.800    partial core radius                                                         
   POMASS =   16.000; ZVAL   =    6.000    mass and valenz                                          
   RCORE  =    1.100    outmost cutoff radius                                                       
   RWIGS  =    1.400; RWIGS  =    0.741    wigner-seitz radius (au A)                               
   ENMAX  =  700.000; ENMIN  =  500.000 eV                                                          
   ICORE  =        2    local potential                                                             
   LCOR   =        T    correct aug charges                                                         
   LPAW   =        T    paw PP                                                                      
   EAUG   =  888.804                                                                                
   DEXC   =    0.000                                                                                
   RMAX   =    1.128    core radius for proj-oper                                                   
   RAUG   =    1.300    factor for augmentation sphere                                              
   RDEP   =    1.125    radius for radial grids                                                     
   RDEPT  =    1.088    core radius for aug-charge                                                  
                                                                                                    
   Atomic configuration                                                                             
    4 entries                                                                                       
     n  l   j            E        occ.                                                              
     1  0  0.50      -514.6923   2.0000                                                             
     2  0  0.50       -23.9615   2.0000                                                             
     2  1  0.50        -9.0305   4.0000                                                             
     3  2  1.50        -9.5241   0.0000                                                             
   Description                                                                                      
     l       E           TYP  RCUT    TYP  RCUT                                                     
     0    -23.9615319     23  1.100                                                                 
     0    -25.3221145     23  1.100                                                                 
     1     -9.0304911     23  1.100                                                                 
     1     -5.4802209     23  1.100                                                                 
     2     -9.5240782      7  1.100                                                                 
  local pseudopotential read in
  partial core-charges read in
  partial kinetic energy density read in
  atomic valenz-charges read in
  non local Contribution for L=           0  read in
    real space projection operators read in
  non local Contribution for L=           0  read in
    real space projection operators read in
  non local Contribution for L=           1  read in
    real space projection operators read in
  non local Contribution for L=           1  read in
    real space projection operators read in
    PAW grid and wavefunctions read in

   number of l-projection  operators is LMAX  =           4
   number of lm-projection operators is LMMAX =           8

  PAW_PBE C_h 06Feb2004                 :
 energy of atom  1       EATOM= -147.1560
 kinetic energy error for atom=    0.0031 (will be added to EATOM!!)
  PAW_PBE H_h 06Feb2004                 :
 energy of atom  2       EATOM=  -12.4884
 kinetic energy error for atom=    0.0006 (will be added to EATOM!!)
  PAW_PBE N_h 06Feb2004                 :
 energy of atom  3       EATOM= -264.5486
 kinetic energy error for atom=    0.0081 (will be added to EATOM!!)
  PAW_PBE O_h 06Feb2004                 :
 energy of atom  4       EATOM= -432.3788
 kinetic energy error for atom=    0.0171 (will be added to EATOM!!)


 POSCAR:  C  H  N  O
  positions in cartesian coordinates
  No initial velocities read in

 METAGGA = SCAN                                        LMAXTAU =  6    LMIXTAU =  F

 exchange correlation table for  LEXCH =        8
   RHO(1)=    0.500       N(1)  =     2000
   RHO(2)=  100.500       N(2)  =     4000

 VTST: version 4.1, (05/19/21)

 CHAIN: initializing optimizer
 
 OPT: Using VASP Dynamics algorithm
 CHAIN: Read ICHAIN            0

 POSCAR:  C  H  N  O
  positions in cartesian coordinates
  No initial velocities read in



--------------------------------------------------------------------------------------------------------


 ion  position               nearest neighbor table
   1  0.506  0.523  0.500-   8 1.22   7 1.39   6 1.39
   2  0.420  0.484  0.505-   6 1.01
   3  0.423  0.559  0.486-   6 1.01
   4  0.516  0.429  0.495-   7 1.01
   5  0.580  0.469  0.514-   7 1.01
   6  0.445  0.518  0.486-   3 1.01   2 1.01   1 1.39
   7  0.534  0.467  0.514-   5 1.01   4 1.01   1 1.39
   8  0.534  0.571  0.500-   1 1.22

  LATTYP: Found a simple cubic cell.
 ALAT       =    22.0000000000
  
  Lattice vectors:
  
 A1 = (  22.0000000000,   0.0000000000,   0.0000000000)
 A2 = (   0.0000000000,  22.0000000000,   0.0000000000)
 A3 = (   0.0000000000,   0.0000000000,  22.0000000000)


Analysis of symmetry for initial positions (statically):
=====================================================================
 Subroutine PRICEL returns:
 Original cell was already a primitive cell.
 

 Routine SETGRP: Setting up the symmetry group for a 
 simple cubic supercell.


 Subroutine GETGRP returns: Found  1 space group operations
 (whereof  1 operations were pure point group operations)
 out of a pool of 48 trial point group operations.


The static configuration has the point symmetry C_1 .


Analysis of symmetry for dynamics (positions and initial velocities):
=====================================================================
 Subroutine PRICEL returns:
 Original cell was already a primitive cell.
 

 Routine SETGRP: Setting up the symmetry group for a 
 simple cubic supercell.


 Subroutine GETGRP returns: Found  1 space group operations
 (whereof  1 operations were pure point group operations)
 out of a pool of 48 trial point group operations.


The dynamic configuration has the point symmetry C_1 .


 Subroutine INISYM returns: Found  1 space group operations
 (whereof  1 operations are pure point group operations),
 and found     1 'primitive' translations


----------------------------------------------------------------------------------------

                                     Primitive cell                                     

  volume of cell :   10648.0000

  direct lattice vectors                    reciprocal lattice vectors
    22.000000000  0.000000000  0.000000000     0.045454545  0.000000000  0.000000000
     0.000000000 22.000000000  0.000000000     0.000000000  0.045454545  0.000000000
     0.000000000  0.000000000 22.000000000     0.000000000  0.000000000  0.045454545

  length of vectors
    22.000000000 22.000000000 22.000000000     0.045454545  0.045454545  0.045454545

  position of ions in fractional coordinates (direct lattice)
     0.506258636  0.522679545  0.500042727
     0.420451364  0.484133182  0.505191818
     0.423366818  0.559149091  0.485809091
     0.516053182  0.429103636  0.495250455
     0.579548636  0.469427727  0.514190909
     0.444790909  0.518395909  0.486301364
     0.533554091  0.467460455  0.513819091
     0.533957727  0.570896364  0.500012727

  ion indices of the primitive-cell ions
   primitive index   ion index
                 1           1
                 2           2
                 3           3
                 4           4
                 5           5
                 6           6
                 7           7
                 8           8

----------------------------------------------------------------------------------------



 KPOINTS: auto                                    

Automatic generation of k-mesh.
 Grid dimensions read from file:
 generate k-points for:    1    1    1

 Generating k-lattice:

  Cartesian coordinates                     Fractional coordinates (reciprocal lattice)
     0.045454545  0.000000000  0.000000000     1.000000000  0.000000000  0.000000000
     0.000000000  0.045454545  0.000000000     0.000000000  1.000000000  0.000000000
     0.000000000  0.000000000  0.045454545     0.000000000  0.000000000  1.000000000

  Length of vectors
     0.045454545  0.045454545  0.045454545

  Shift w.r.t. Gamma in fractional coordinates (k-lattice)
     0.000000000  0.000000000  0.000000000

 
 Subroutine IBZKPT returns following result:
 ===========================================
 
 Found      1 irreducible k-points:
 
 Following reciprocal coordinates:
            Coordinates               Weight
  0.000000  0.000000  0.000000      1.000000
 
 Following cartesian coordinates:
            Coordinates               Weight
  0.000000  0.000000  0.000000      1.000000
 


--------------------------------------------------------------------------------------------------------




 Dimension of arrays:
   k-points           NKPTS =      1   k-points in BZ     NKDIM =      1   number of bands    NBANDS=     24
   number of dos      NEDOS =    301   number of ions     NIONS =      8
   non local maximal  LDIM  =      4   non local SUM 2l+1 LMDIM =      8
   total plane-waves  NPLWV = ******
   max r-space proj   IRMAX =      1   max aug-charges    IRDMAX=   9667
   dimension x,y,z NGX =   240 NGY =  240 NGZ =  240
   dimension x,y,z NGXF=   480 NGYF=  480 NGZF=  480
   support grid    NGXF=   480 NGYF=  480 NGZF=  480
   ions per type =               1   4   2   1
   NGX,Y,Z   is equivalent  to a cutoff of  18.14, 18.14, 18.14 a.u.
   NGXF,Y,Z  is equivalent  to a cutoff of  36.27, 36.27, 36.27 a.u.

 SYSTEM =  unknown system                          
 POSCAR =   C  H  N  O                             

 Startparameter for this run:
   NWRITE =      2    write-flag & timer
   PREC   = accura    normal or accurate (medium, high low for compatibility)
   ISTART =      0    job   : 0-new  1-cont  2-samecut
   ICHARG =      2    charge: 1-file 2-atom 10-const
   ISPIN  =      1    spin polarized calculation?
   LNONCOLLINEAR =      F non collinear calculations
   LSORBIT =      F    spin-orbit coupling
   INIWAV =      1    electr: 0-lowe 1-rand  2-diag
   LASPH  =      T    aspherical Exc in radial PAW
 Electronic Relaxation 1
   ENCUT  = 1000.0 eV  73.50 Ry    8.57 a.u.  56.73 56.73 56.73*2*pi/ulx,y,z
   ENINI  = 1000.0     initial cutoff
   ENAUG  = 1000.0 eV  augmentation charge cutoff
   NELM   =     60;   NELMIN=  2; NELMDL= -5     # of ELM steps 
   EDIFF  = 0.1E-06   stopping-criterion for ELM
   LREAL  =      F    real-space projection
   NLSPLINE    = F    spline interpolate recip. space projectors
   LCOMPAT=      F    compatible to vasp.4.4
   GGA_COMPAT  = T    GGA compatible to vasp.4.4-vasp.4.6
   LMAXPAW     = -100 max onsite density
   LMAXMIX     =    2 max onsite mixed and CHGCAR
   VOSKOWN=      0    Vosko Wilk Nusair interpolation
   ROPT   =    0.00000   0.00000   0.00000   0.00000
 Ionic relaxation
   EDIFFG = 0.1E-05   stopping-criterion for IOM
   NSW    =      0    number of steps for IOM
   NBLOCK =      1;   KBLOCK =      1    inner block; outer block 
   IBRION =     -1    ionic relax: 0-MD 1-quasi-New 2-CG
   NFREE  =      0    steps in history (QN), initial steepest desc. (CG)
   ISIF   =      0    stress and relaxation
   IWAVPR =     10    prediction:  0-non 1-charg 2-wave 3-comb
   ISYM   =      2    0-nonsym 1-usesym 2-fastsym
   LCORR  =      T    Harris-Foulkes like correction to forces

   POTIM  = 0.5000    time-step for ionic-motion
   TEIN   =    0.0    initial temperature
   TEBEG  =    0.0;   TEEND  =   0.0 temperature during run
   SMASS  =  -3.00    Nose mass-parameter (am)
   estimated Nose-frequenzy (Omega)   =  0.10E-29 period in steps = 0.13E+47 mass=  -0.111E-25a.u.
   SCALEE = 1.0000    scale energy and forces
   NPACO  =    256;   APACO  = 10.0  distance and # of slots for P.C.
   PSTRESS=    0.0 pullay stress

  Mass of Ions in am
   POMASS =  12.01  1.00 14.00 16.00
  Ionic Valenz
   ZVAL   =   4.00  1.00  5.00  6.00
  Atomic Wigner-Seitz radii
   RWIGS  =  -1.00 -1.00 -1.00 -1.00
  virtual crystal weights 
   VCA    =   1.00  1.00  1.00  1.00
   NELECT =      24.0000    total number of electrons
   NUPDOWN=      -1.0000    fix difference up-down

 DOS related values:
   EMIN   =  10.00;   EMAX   =-10.00  energy-range for DOS
   EFERMI =   0.00;   METHOD = LEGACY      
   ISMEAR =     0;   SIGMA  =   0.01  broadening in eV -4-tet -1-fermi 0-gaus

 Electronic relaxation 2 (details)
   IALGO  =     58    algorithm
   LDIAG  =      T    sub-space diagonalisation (order eigenvalues)
   LSUBROT=      F    optimize rotation matrix (better conditioning)
   TURBO    =      0    0=normal 1=particle mesh
   IRESTART =      0    0=no restart 2=restart with 2 vectors
   NREBOOT  =      0    no. of reboots
   NMIN     =      0    reboot dimension
   EREF     =   0.00    reference energy to select bands
   IMIX   =      4    mixing-type and parameters
     AMIX     =   0.40;   BMIX     =  1.00
     AMIX_MAG =   1.60;   BMIX_MAG =  1.00
     AMIN     =   0.10
     WC   =   100.;   INIMIX=   1;  MIXPRE=   1;  MAXMIX= -45

 Intra band minimization:
   WEIMIN = 0.0000     energy-eigenvalue tresh-hold
   EBREAK =  0.10E-08  absolut break condition
   DEPER  =   0.30     relativ break condition  

   TIME   =   0.40     timestep for ELM

  volume/ion in A,a.u.               =    1331.00      8982.03
  Fermi-wavevector in a.u.,A,eV,Ry     =   0.214646  0.405622  0.626859  0.046073
  Thomas-Fermi vector in A             =   0.987905

 Write flags
   LWAVE        =      F    write WAVECAR
   LDOWNSAMPLE  =      F    k-point downsampling of WAVECAR
   LCHARG       =      F    write CHGCAR
   LVTOT        =      F    write LOCPOT, total local potential
   LVHAR        =      F    write LOCPOT, Hartree potential only
   LELF         =      F    write electronic localiz. function (ELF)
   LORBIT       =      0    0 simple, 1 ext, 2 COOP (PROOUT), +10 PAW based schemes


 Dipole corrections
   LMONO  =      F    monopole corrections only (constant potential shift)
   LDIPOL =      F    correct potential (dipole corrections)
   IDIPOL =      0    1-x, 2-y, 3-z, 4-all directions 
   EPSILON=  1.0000000 bulk dielectric constant

 Exchange correlation treatment:
   GGA     =    --    GGA type
   LEXCH   =     8    internal setting for exchange type
   LIBXC   =     F    Libxc                    
   VOSKOWN =     0    Vosko Wilk Nusair interpolation
   LHFCALC =     F    Hartree Fock is set to
   LHFONE  =     F    Hartree Fock one center treatment
   AEXX    =    0.0000 exact exchange contribution

 Linear response parameters
   LEPSILON=     F    determine dielectric tensor
   LRPA    =     F    only Hartree local field effects (RPA)
   LNABLA  =     F    use nabla operator in PAW spheres
   LVEL    =     F    velocity operator in full k-point grid
   CSHIFT  =0.1000    complex shift for real part using Kramers Kronig
   OMEGAMAX=  -1.0    maximum frequency
   DEG_THRESHOLD= 0.2000000E-02 threshold for treating states as degnerate
   RTIME   =   -0.100 relaxation time in fs
  (WPLASMAI=    0.000 imaginary part of plasma frequency in eV, 0.658/RTIME)
   DFIELD  = 0.0000000 0.0000000 0.0000000 field for delta impulse in time

  Optional k-point grid parameters
   LKPOINTS_OPT  =     F    use optional k-point grid
   KPOINTS_OPT_MODE=     1    mode for optional k-point grid

 Orbital magnetization related:
   ORBITALMAG=     F  switch on orbital magnetization
   LCHIMAG   =     F  perturbation theory with respect to B field
   DQ        =  0.001000  dq finite difference perturbation B field
   LLRAUG    =     F  two centre corrections for induced B field
   LBONE     =     F  B-component reconstruction in AE one-centre
   LVGVCALC  =     T  calculate vGv susceptibility
   LVGVAPPL  =     F  apply vGv susceptibility instead of pGv for G=0

 Random number generation:
   RANDOM_GENERATOR = DEFAULT
   PCG_SEED         = not used


--------------------------------------------------------------------------------------------------------


 Static calculation
 charge density and potential will be updated during run
 non-spin polarized calculation
 Conjugate gradient for all bands (Freysoldt, et al. PRB 79, 241103 (2009))
 preconditioned conjugated gradient                                        
 perform sub-space diagonalisation
    before iterative eigenvector-optimisation
 modified Broyden-mixing scheme, WC =      100.0
 initial mixing is a Kerker type mixing with AMIX =  0.4000 and BMIX =      1.0000
 Hartree-type preconditioning will be used
 using additional bands           12
 reciprocal scheme for non local part
 use partial core corrections
 no Harris-corrections to forces 
 use gradient corrections 
 use of overlap-Matrix (Vanderbilt PP)
 Gauss-broadening in eV      SIGMA  =   0.01


--------------------------------------------------------------------------------------------------------


  energy-cutoff  :     1000.00
  volume of cell :    10648.00
      direct lattice vectors                 reciprocal lattice vectors
    22.000000000  0.000000000  0.000000000     0.045454545  0.000000000  0.000000000
     0.000000000 22.000000000  0.000000000     0.000000000  0.045454545  0.000000000
     0.000000000  0.000000000 22.000000000     0.000000000  0.000000000  0.045454545

  length of vectors
    22.000000000 22.000000000 22.000000000     0.045454545  0.045454545  0.045454545



 k-points in units of 2pi/SCALE and weight: auto                                    
   0.00000000  0.00000000  0.00000000       1.000

 k-points in reciprocal lattice and weights: auto                                    
   0.00000000  0.00000000  0.00000000       1.000

 position of ions in fractional coordinates (direct lattice) 
   0.50625864  0.52267955  0.50004273
   0.42045136  0.48413318  0.50519182
   0.42336682  0.55914909  0.48580909
   0.51605318  0.42910364  0.49525045
   0.57954864  0.46942773  0.51419091
   0.44479091  0.51839591  0.48630136
   0.53355409  0.46746045  0.51381909
   0.53395773  0.57089636  0.50001273

 position of ions in cartesian coordinates  (Angst):
  11.13769000 11.49895000 11.00094000
   9.24993000 10.65093000 11.11422000
   9.31407000 12.30128000 10.68780000
  11.35317000  9.44028000 10.89551000
  12.75007000 10.32741000 11.31220000
   9.78540000 11.40471000 10.69863000
  11.73819000 10.28413000 11.30402000
  11.74707000 12.55972000 11.00028000



--------------------------------------------------------------------------------------------------------


 use parallel FFT for orbitals z direction half grid
 k-point   1 :   0.0000 0.0000 0.0000  plane waves:  381993

 maximum and minimum number of plane-waves per node :     11948    11928

 maximum number of plane-waves:    381993
 maximum index in each direction: 
   IXMAX=   56   IYMAX=   56   IZMAX=   56
   IXMIN=  -56   IYMIN=  -56   IZMIN=    0


 parallel 3D FFT for wavefunctions:
    minimum data exchange during FFTs selected (reduces bandwidth)
 parallel 3D FFT for charge:
    minimum data exchange during FFTs selected (reduces bandwidth)


 total amount of memory used by VASP MPI-rank0   131377. kBytes
=======================================================================

   base      :      30000. kBytes
   nonl-proj :       4583. kBytes
   fftplans  :      24880. kBytes
   grid      :      70194. kBytes
   one-center:          1. kBytes
   wavefun   :       1719. kBytes

     INWAV:  cpu time      0.0001: real time      0.0002
 Broyden mixing: mesh for mixing (old mesh)
   NGX =113   NGY =113   NGZ =113
  (NGX  =480   NGY  =480   NGZ  =480)
  gives a total of ****** points

 initial charge density was supplied:
 charge density of overlapping atoms calculated
 number of electron      24.0000000 magnetization 
 keeping initial charge density in first step


--------------------------------------------------------------------------------------------------------


 Maximum index for augmentation-charges          523 (set IRDMAX)


--------------------------------------------------------------------------------------------------------


 First call to EWALD:  gamma=   0.081
 Maximum number of real-space cells 3x 3x 3
 Maximum number of reciprocal cells 3x 3x 3

    FEWALD:  cpu time      0.0037: real time      0.0037


--------------------------------------- Ionic step        1  -------------------------------------------




--------------------------------------- Iteration      1(   1)  ---------------------------------------


    POTLOK:  cpu time      1.6328: real time      1.6342
    SETDIJ:  cpu time      0.3232: real time      0.3237
    TRIAL :  cpu time      3.1189: real time      3.1221
    CORREC:  cpu time      0.0028: real time      0.0028
    --------------------------------------------
      LOOP:  cpu time      5.0871: real time      5.0924

 eigenvalue-minimisations  :    64
 total energy-change (2. order) : 0.2075837E+03  (-0.5871897E+03)
 number of electron      24.0000000 magnetization 
 augmentation part       24.0000000 magnetization 

 Free energy of the ion-electron system (eV)
  ---------------------------------------------------
  alpha Z        PSCENC =         0.15477404
  Ewald energy   TEWEN  =      1354.52000889
  -Hartree energ DENC   =     -2215.13506272
  -exchange      EXHF   =         0.00000000
  -V(xc)+E(xc)   XCENC  =        95.69200793
  PAW double counting   =       859.74297627     -862.30503103
  entropy T*S    EENTRO =        -0.00000000
  eigenvalues    EBANDS =      -183.63267609
  atomic energy  EATOM  =      1158.54671353
  ---------------------------------------------------
  free energy    TOTEN  =       207.58371083 eV

  energy without entropy =      207.58371083  energy(sigma->0) =      207.58371083


--------------------------------------------------------------------------------------------------------




--------------------------------------- Iteration      1(   2)  ---------------------------------------


    TRIAL :  cpu time      3.5499: real time      3.5515
    CORREC:  cpu time      0.0001: real time      0.0001
    --------------------------------------------
      LOOP:  cpu time      3.5642: real time      3.5832

 eigenvalue-minimisations  :    80
 total energy-change (2. order) :-0.1247810E+03  (-0.1215096E+03)
 number of electron      24.0000000 magnetization 
 augmentation part       24.0000000 magnetization 

 Free energy of the ion-electron system (eV)
  ---------------------------------------------------
  alpha Z        PSCENC =         0.15477404
  Ewald energy   TEWEN  =      1354.52000889
  -Hartree energ DENC   =     -2215.13506272
  -exchange      EXHF   =         0.00000000
  -V(xc)+E(xc)   XCENC  =        95.69200793
  PAW double counting   =       859.74297627     -862.30503103
  entropy T*S    EENTRO =        -0.00000000
  eigenvalues    EBANDS =      -308.41372565
  atomic energy  EATOM  =      1158.54671353
  ---------------------------------------------------
  free energy    TOTEN  =        82.80266128 eV

  energy without entropy =       82.80266128  energy(sigma->0) =       82.80266128


--------------------------------------------------------------------------------------------------------




--------------------------------------- Iteration      1(   3)  ---------------------------------------


    TRIAL :  cpu time      3.5447: real time      3.5465
    CORREC:  cpu time      0.0001: real time      0.0001
    --------------------------------------------
      LOOP:  cpu time      3.5576: real time      3.5771

 eigenvalue-minimisations  :    80
 total energy-change (2. order) :-0.1088777E+03  (-0.1055362E+03)
 number of electron      24.0000000 magnetization 
 augmentation part       24.0000000 magnetization 

 Free energy of the ion-electron system (eV)
  ---------------------------------------------------
  alpha Z        PSCENC =         0.15477404
  Ewald energy   TEWEN  =      1354.52000889
  -Hartree energ DENC   =     -2215.13506272
  -exchange      EXHF   =         0.00000000
  -V(xc)+E(xc)   XCENC  =        95.69200793
  PAW double counting   =       859.74297627     -862.30503103
  entropy T*S    EENTRO =        -0.00000000
  eigenvalues    EBANDS =      -417.29144318
  atomic energy  EATOM  =      1158.54671353
  ---------------------------------------------------
  free energy    TOTEN  =       -26.07505625 eV

  energy without entropy =      -26.07505625  energy(sigma->0) =      -26.07505625


--------------------------------------------------------------------------------------------------------




--------------------------------------- Iteration      1(   4)  ---------------------------------------


    TRIAL :  cpu time      3.0892: real time      3.0908
    CORREC:  cpu time      0.0002: real time      0.0002
    --------------------------------------------
      LOOP:  cpu time      3.1020: real time      3.1204

 eigenvalue-minimisations  :    64
 total energy-change (2. order) :-0.3700728E+02  (-0.3693616E+02)
 number of electron      24.0000000 magnetization 
 augmentation part       24.0000000 magnetization 

 Free energy of the ion-electron system (eV)
  ---------------------------------------------------
  alpha Z        PSCENC =         0.15477404
  Ewald energy   TEWEN  =      1354.52000889
  -Hartree energ DENC   =     -2215.13506272
  -exchange      EXHF   =         0.00000000
  -V(xc)+E(xc)   XCENC  =        95.69200793
  PAW double counting   =       859.74297627     -862.30503103
  entropy T*S    EENTRO =        -0.00000000
  eigenvalues    EBANDS =      -454.29871851
  atomic energy  EATOM  =      1158.54671353
  ---------------------------------------------------
  free energy    TOTEN  =       -63.08233158 eV

  energy without entropy =      -63.08233158  energy(sigma->0) =      -63.08233158


--------------------------------------------------------------------------------------------------------




--------------------------------------- Iteration      1(   5)  ---------------------------------------


    TRIAL :  cpu time      3.5442: real time      3.5459
    CORREC:  cpu time      0.0001: real time      0.0001
    CHARGE:  cpu time      0.5786: real time      0.5814
    --------------------------------------------
      LOOP:  cpu time      4.1393: real time      4.1566

 eigenvalue-minimisations  :    80
 total energy-change (2. order) :-0.2412589E+01  (-0.2410771E+01)
 number of electron      24.0000000 magnetization 
 augmentation part        0.0553674 magnetization 

 Free energy of the ion-electron system (eV)
  ---------------------------------------------------
  alpha Z        PSCENC =         0.15477404
  Ewald energy   TEWEN  =      1354.52000889
  -Hartree energ DENC   =     -2215.13506272
  -exchange      EXHF   =         0.00000000
  -V(xc)+E(xc)   XCENC  =        95.69200793
  PAW double counting   =       859.74297627     -862.30503103
  entropy T*S    EENTRO =        -0.00000000
  eigenvalues    EBANDS =      -456.71130788
  atomic energy  EATOM  =      1158.54671353
  ---------------------------------------------------
  free energy    TOTEN  =       -65.49492095 eV

  energy without entropy =      -65.49492095  energy(sigma->0) =      -65.49492095


--------------------------------------------------------------------------------------------------------




--------------------------------------- Iteration      1(   6)  ---------------------------------------


    POTLOK:  cpu time      1.6098: real time      1.6103
    SETDIJ:  cpu time      0.3462: real time      0.3462
    TRIAL :  cpu time      2.5642: real time      2.5658
    CORREC:  cpu time      3.1325: real time      3.1348
    CHARGE:  cpu time      0.5397: real time      0.5399
    --------------------------------------------
      LOOP:  cpu time      8.2081: real time      8.2279

 eigenvalue-minimisations  :     0
 total energy-change (2. order) : 0.1896644E+02  (-0.4829983E+01)
 number of electron      24.0000000 magnetization 
 augmentation part        0.0269133 magnetization 

 Free energy of the ion-electron system (eV)
  ---------------------------------------------------
  alpha Z        PSCENC =         0.15477404
  Ewald energy   TEWEN  =      1354.52000889
  -Hartree energ DENC   =     -2427.49517800
  -exchange      EXHF   =         0.00000000
  -V(xc)+E(xc)   XCENC  =       110.15294492
  PAW double counting   =     10585.04440144   -10589.22059296
  entropy T*S    EENTRO =        -0.00000000
  eigenvalues    EBANDS =      -238.23155574
  atomic energy  EATOM  =      1158.54671353
  ---------------------------------------------------
  free energy    TOTEN  =       -46.52848388 eV

  energy without entropy =      -46.52848388  energy(sigma->0) =      -46.52848388


--------------------------------------------------------------------------------------------------------




--------------------------------------- Iteration      1(   7)  ---------------------------------------


    POTLOK:  cpu time      1.6082: real time      1.6093
    SETDIJ:  cpu time      0.3091: real time      0.3091
    TRIAL :  cpu time      2.5480: real time      2.5496
    CORREC:  cpu time      3.1243: real time      3.1256
    CHARGE:  cpu time      0.5402: real time      0.5403
    --------------------------------------------
      LOOP:  cpu time      8.1424: real time      8.1640

 eigenvalue-minimisations  :     0
 total energy-change (2. order) :-0.4881170E+01  (-0.6335060E+00)
 number of electron      24.0000000 magnetization 
 augmentation part        0.0035976 magnetization 

 Free energy of the ion-electron system (eV)
  ---------------------------------------------------
  alpha Z        PSCENC =         0.15477404
  Ewald energy   TEWEN  =      1354.52000889
  -Hartree energ DENC   =     -2327.89914908
  -exchange      EXHF   =         0.00000000
  -V(xc)+E(xc)   XCENC  =       104.07316030
  PAW double counting   =     13081.47768194   -13084.70012279
  entropy T*S    EENTRO =        -0.00000000
  eigenvalues    EBANDS =      -337.58272115
  atomic energy  EATOM  =      1158.54671353
  ---------------------------------------------------
  free energy    TOTEN  =       -51.40965432 eV

  energy without entropy =      -51.40965432  energy(sigma->0) =      -51.40965432


--------------------------------------------------------------------------------------------------------




--------------------------------------- Iteration      1(   8)  ---------------------------------------


    POTLOK:  cpu time      1.6101: real time      1.6112
    SETDIJ:  cpu time      0.3113: real time      0.3113
    TRIAL :  cpu time      2.5449: real time      2.5463
    CORREC:  cpu time      3.1488: real time      3.1504
    CHARGE:  cpu time      0.5384: real time      0.5387
    --------------------------------------------
      LOOP:  cpu time      8.1709: real time      8.1877

 eigenvalue-minimisations  :     0
 total energy-change (2. order) :-0.6366781E+00  (-0.2555427E+00)
 number of electron      24.0000000 magnetization 
 augmentation part        0.0033906 magnetization 

 Free energy of the ion-electron system (eV)
  ---------------------------------------------------
  alpha Z        PSCENC =         0.15477404
  Ewald energy   TEWEN  =      1354.52000889
  -Hartree energ DENC   =     -2328.27685958
  -exchange      EXHF   =         0.00000000
  -V(xc)+E(xc)   XCENC  =       103.83946779
  PAW double counting   =     14043.42302865   -14046.49536492
  entropy T*S    EENTRO =        -0.00000000
  eigenvalues    EBANDS =      -337.75810081
  atomic energy  EATOM  =      1158.54671353
  ---------------------------------------------------
  free energy    TOTEN  =       -52.04633240 eV

  energy without entropy =      -52.04633240  energy(sigma->0) =      -52.04633240


--------------------------------------------------------------------------------------------------------




--------------------------------------- Iteration      1(   9)  ---------------------------------------


    POTLOK:  cpu time      1.6099: real time      1.6103
    SETDIJ:  cpu time      0.3145: real time      0.3147
    TRIAL :  cpu time      2.5425: real time      2.5438
    CORREC:  cpu time      3.1278: real time      3.1291
    CHARGE:  cpu time      0.5410: real time      0.5416
    --------------------------------------------
      LOOP:  cpu time      8.1508: real time      8.1701

 eigenvalue-minimisations  :     0
 total energy-change (2. order) :-0.2539778E+00  (-0.1191374E+00)
 number of electron      24.0000000 magnetization 
 augmentation part        0.0064676 magnetization 

 Free energy of the ion-electron system (eV)
  ---------------------------------------------------
  alpha Z        PSCENC =         0.15477404
  Ewald energy   TEWEN  =      1354.52000889
  -Hartree energ DENC   =     -2328.52510141
  -exchange      EXHF   =         0.00000000
  -V(xc)+E(xc)   XCENC  =       103.73636918
  PAW double counting   =     14979.35053154   -14982.37705273
  entropy T*S    EENTRO =        -0.00000000
  eigenvalues    EBANDS =      -337.70655323
  atomic energy  EATOM  =      1158.54671353
  ---------------------------------------------------
  free energy    TOTEN  =       -52.30031018 eV

  energy without entropy =      -52.30031018  energy(sigma->0) =      -52.30031018


--------------------------------------------------------------------------------------------------------




--------------------------------------- Iteration      1(  10)  ---------------------------------------


    POTLOK:  cpu time      1.6115: real time      1.6119
    SETDIJ:  cpu time      0.3147: real time      0.3149
    TRIAL :  cpu time      2.5406: real time      2.5416
    CORREC:  cpu time      3.1291: real time      3.1304
    CHARGE:  cpu time      0.5384: real time      0.5388
    --------------------------------------------
      LOOP:  cpu time      8.1650: real time      8.1684

 eigenvalue-minimisations  :     0
 total energy-change (2. order) :-0.1181339E+00  (-0.4348930E-01)
 number of electron      24.0000000 magnetization 
 augmentation part        0.0085530 magnetization 

 Free energy of the ion-electron system (eV)
  ---------------------------------------------------
  alpha Z        PSCENC =         0.15477404
  Ewald energy   TEWEN  =      1354.52000889
  -Hartree energ DENC   =     -2325.90894589
  -exchange      EXHF   =         0.00000000
  -V(xc)+E(xc)   XCENC  =       103.64753572
  PAW double counting   =     15223.50709676   -15226.53019469
  entropy T*S    EENTRO =        -0.00000000
  eigenvalues    EBANDS =      -340.35543248
  atomic energy  EATOM  =      1158.54671353
  ---------------------------------------------------
  free energy    TOTEN  =       -52.41844411 eV

  energy without entropy =      -52.41844411  energy(sigma->0) =      -52.41844411


--------------------------------------------------------------------------------------------------------




--------------------------------------- Iteration      1(  11)  ---------------------------------------


    POTLOK:  cpu time      1.6076: real time      1.6084
    SETDIJ:  cpu time      0.3132: real time      0.3132
    TRIAL :  cpu time      2.5429: real time      2.5441
    CORREC:  cpu time      3.1272: real time      3.1286
    CHARGE:  cpu time      0.5412: real time      0.5414
    --------------------------------------------
      LOOP:  cpu time      8.1496: real time      8.1669

 eigenvalue-minimisations  :     0
 total energy-change (2. order) :-0.4332148E-01  (-0.1395500E-01)
 number of electron      24.0000000 magnetization 
 augmentation part        0.0097826 magnetization 

 Free energy of the ion-electron system (eV)
  ---------------------------------------------------
  alpha Z        PSCENC =         0.15477404
  Ewald energy   TEWEN  =      1354.52000889
  -Hartree energ DENC   =     -2324.42024040
  -exchange      EXHF   =         0.00000000
  -V(xc)+E(xc)   XCENC  =       103.62512993
  PAW double counting   =     15010.33001141   -15013.36940846
  entropy T*S    EENTRO =        -0.00000000
  eigenvalues    EBANDS =      -341.84875453
  atomic energy  EATOM  =      1158.54671353
  ---------------------------------------------------
  free energy    TOTEN  =       -52.46176559 eV

  energy without entropy =      -52.46176559  energy(sigma->0) =      -52.46176559


--------------------------------------------------------------------------------------------------------




--------------------------------------- Iteration      1(  12)  ---------------------------------------


    POTLOK:  cpu time      1.6099: real time      1.6113
    SETDIJ:  cpu time      0.3090: real time      0.3090
    TRIAL :  cpu time      2.5393: real time      2.5411
    CORREC:  cpu time      3.1295: real time      3.1312
    CHARGE:  cpu time      0.5386: real time      0.5387
    --------------------------------------------
      LOOP:  cpu time      8.1420: real time      8.1614

 eigenvalue-minimisations  :     0
 total energy-change (2. order) :-0.1392979E-01  (-0.4031176E-02)
 number of electron      24.0000000 magnetization 
 augmentation part        0.0099616 magnetization 

 Free energy of the ion-electron system (eV)
  ---------------------------------------------------
  alpha Z        PSCENC =         0.15477404
  Ewald energy   TEWEN  =      1354.52000889
  -Hartree energ DENC   =     -2323.81618848
  -exchange      EXHF   =         0.00000000
  -V(xc)+E(xc)   XCENC  =       103.59919902
  PAW double counting   =     14824.36743958   -14827.41521859
  entropy T*S    EENTRO =        -0.00000000
  eigenvalues    EBANDS =      -342.43242337
  atomic energy  EATOM  =      1158.54671353
  ---------------------------------------------------
  free energy    TOTEN  =       -52.47569538 eV

  energy without entropy =      -52.47569538  energy(sigma->0) =      -52.47569538


--------------------------------------------------------------------------------------------------------




--------------------------------------- Iteration      1(  13)  ---------------------------------------


    POTLOK:  cpu time      1.6084: real time      1.6091
    SETDIJ:  cpu time      0.3826: real time      0.3826
    TRIAL :  cpu time      2.5389: real time      2.5405
    CORREC:  cpu time      3.1278: real time      3.1290
    CHARGE:  cpu time      0.5415: real time      0.5416
    --------------------------------------------
      LOOP:  cpu time      8.2133: real time      8.2333

 eigenvalue-minimisations  :     0
 total energy-change (2. order) :-0.4024742E-02  (-0.1165143E-02)
 number of electron      24.0000000 magnetization 
 augmentation part        0.0097658 magnetization 

 Free energy of the ion-electron system (eV)
  ---------------------------------------------------
  alpha Z        PSCENC =         0.15477404
  Ewald energy   TEWEN  =      1354.52000889
  -Hartree energ DENC   =     -2323.65590142
  -exchange      EXHF   =         0.00000000
  -V(xc)+E(xc)   XCENC  =       103.58889862
  PAW double counting   =     14720.92275806   -14723.97268213
  entropy T*S    EENTRO =        -0.00000000
  eigenvalues    EBANDS =      -342.58428972
  atomic energy  EATOM  =      1158.54671353
  ---------------------------------------------------
  free energy    TOTEN  =       -52.47972013 eV

  energy without entropy =      -52.47972013  energy(sigma->0) =      -52.47972013


--------------------------------------------------------------------------------------------------------




--------------------------------------- Iteration      1(  14)  ---------------------------------------


    POTLOK:  cpu time      1.6064: real time      1.6072
    SETDIJ:  cpu time      0.3162: real time      0.3162
    TRIAL :  cpu time      2.5413: real time      2.5428
    CORREC:  cpu time      3.1581: real time      3.1595
    CHARGE:  cpu time      0.5412: real time      0.5419
    --------------------------------------------
      LOOP:  cpu time      8.1765: real time      8.1988

 eigenvalue-minimisations  :     0
 total energy-change (2. order) :-0.1162336E-02  (-0.3584549E-03)
 number of electron      24.0000000 magnetization 
 augmentation part        0.0096474 magnetization 

 Free energy of the ion-electron system (eV)
  ---------------------------------------------------
  alpha Z        PSCENC =         0.15477404
  Ewald energy   TEWEN  =      1354.52000889
  -Hartree energ DENC   =     -2323.59648257
  -exchange      EXHF   =         0.00000000
  -V(xc)+E(xc)   XCENC  =       103.58446028
  PAW double counting   =     14657.48785019   -14660.53732459
  entropy T*S    EENTRO =        -0.00000000
  eigenvalues    EBANDS =      -342.64088223
  atomic energy  EATOM  =      1158.54671353
  ---------------------------------------------------
  free energy    TOTEN  =       -52.48088246 eV

  energy without entropy =      -52.48088246  energy(sigma->0) =      -52.48088246


--------------------------------------------------------------------------------------------------------




--------------------------------------- Iteration      1(  15)  ---------------------------------------


    POTLOK:  cpu time      1.6134: real time      1.6139
    SETDIJ:  cpu time      0.3102: real time      0.3104
    TRIAL :  cpu time      2.5417: real time      2.5428
    CORREC:  cpu time      3.1277: real time      3.1289
    CHARGE:  cpu time      0.5415: real time      0.5421
    --------------------------------------------
      LOOP:  cpu time      8.1656: real time      8.1693

 eigenvalue-minimisations  :     0
 total energy-change (2. order) :-0.3572442E-03  (-0.1272508E-03)
 number of electron      24.0000000 magnetization 
 augmentation part        0.0096370 magnetization 

 Free energy of the ion-electron system (eV)
  ---------------------------------------------------
  alpha Z        PSCENC =         0.15477404
  Ewald energy   TEWEN  =      1354.52000889
  -Hartree energ DENC   =     -2323.68142333
  -exchange      EXHF   =         0.00000000
  -V(xc)+E(xc)   XCENC  =       103.58647976
  PAW double counting   =     14609.94595153   -14612.99525919
  entropy T*S    EENTRO =        -0.00000000
  eigenvalues    EBANDS =      -342.55848493
  atomic energy  EATOM  =      1158.54671353
  ---------------------------------------------------
  free energy    TOTEN  =       -52.48123971 eV

  energy without entropy =      -52.48123971  energy(sigma->0) =      -52.48123971


--------------------------------------------------------------------------------------------------------




--------------------------------------- Iteration      1(  16)  ---------------------------------------


    POTLOK:  cpu time      1.6945: real time      1.6953
    SETDIJ:  cpu time      0.2233: real time      0.2233
    TRIAL :  cpu time      2.5449: real time      2.5458
    CORREC:  cpu time      3.1792: real time      3.1804
    CHARGE:  cpu time      0.5383: real time      0.5390
    --------------------------------------------
      LOOP:  cpu time      8.1932: real time      8.2138

 eigenvalue-minimisations  :     0
 total energy-change (2. order) :-0.1264518E-03  (-0.4728861E-04)
 number of electron      24.0000000 magnetization 
 augmentation part        0.0096488 magnetization 

 Free energy of the ion-electron system (eV)
  ---------------------------------------------------
  alpha Z        PSCENC =         0.15477404
  Ewald energy   TEWEN  =      1354.52000889
  -Hartree energ DENC   =     -2323.72649728
  -exchange      EXHF   =         0.00000000
  -V(xc)+E(xc)   XCENC  =       103.58715948
  PAW double counting   =     14576.54914221   -14579.59844447
  entropy T*S    EENTRO =        -0.00000000
  eigenvalues    EBANDS =      -342.51422256
  atomic energy  EATOM  =      1158.54671353
  ---------------------------------------------------
  free energy    TOTEN  =       -52.48136616 eV

  energy without entropy =      -52.48136616  energy(sigma->0) =      -52.48136616


--------------------------------------------------------------------------------------------------------




--------------------------------------- Iteration      1(  17)  ---------------------------------------


    POTLOK:  cpu time      1.6389: real time      1.6401
    SETDIJ:  cpu time      0.2820: real time      0.2820
    TRIAL :  cpu time      2.5518: real time      2.5533
    CORREC:  cpu time      3.1232: real time      3.1256
    CHARGE:  cpu time      0.5399: real time      0.5401
    --------------------------------------------
      LOOP:  cpu time      8.1519: real time      8.1711

 eigenvalue-minimisations  :     0
 total energy-change (2. order) :-0.4657638E-04  (-0.1802306E-04)
 number of electron      24.0000000 magnetization 
 augmentation part        0.0096625 magnetization 

 Free energy of the ion-electron system (eV)
  ---------------------------------------------------
  alpha Z        PSCENC =         0.15477404
  Ewald energy   TEWEN  =      1354.52000889
  -Hartree energ DENC   =     -2323.74274086
  -exchange      EXHF   =         0.00000000
  -V(xc)+E(xc)   XCENC  =       103.58782495
  PAW double counting   =     14560.31048817   -14563.35984985
  entropy T*S    EENTRO =        -0.00000000
  eigenvalues    EBANDS =      -342.49863161
  atomic energy  EATOM  =      1158.54671353
  ---------------------------------------------------
  free energy    TOTEN  =       -52.48141273 eV

  energy without entropy =      -52.48141273  energy(sigma->0) =      -52.48141273


--------------------------------------------------------------------------------------------------------




--------------------------------------- Iteration      1(  18)  ---------------------------------------


    POTLOK:  cpu time      1.6086: real time      1.6094
    SETDIJ:  cpu time      0.3134: real time      0.3134
    TRIAL :  cpu time      2.5420: real time      2.5438
    CORREC:  cpu time      3.1273: real time      3.1291
    CHARGE:  cpu time      0.5394: real time      0.5395
    --------------------------------------------
      LOOP:  cpu time      8.1487: real time      8.1807

 eigenvalue-minimisations  :     0
 total energy-change (2. order) :-0.1734064E-04  (-0.5055936E-05)
 number of electron      24.0000000 magnetization 
 augmentation part        0.0096582 magnetization 

 Free energy of the ion-electron system (eV)
  ---------------------------------------------------
  alpha Z        PSCENC =         0.15477404
  Ewald energy   TEWEN  =      1354.52000889
  -Hartree energ DENC   =     -2323.76813388
  -exchange      EXHF   =         0.00000000
  -V(xc)+E(xc)   XCENC  =       103.58949427
  PAW double counting   =     14559.49264909   -14562.54215295
  entropy T*S    EENTRO =        -0.00000000
  eigenvalues    EBANDS =      -342.47478307
  atomic energy  EATOM  =      1158.54671353
  ---------------------------------------------------
  free energy    TOTEN  =       -52.48143007 eV

  energy without entropy =      -52.48143007  energy(sigma->0) =      -52.48143007


--------------------------------------------------------------------------------------------------------




--------------------------------------- Iteration      1(  19)  ---------------------------------------


    POTLOK:  cpu time      1.6094: real time      1.6102
    SETDIJ:  cpu time      0.3103: real time      0.3103
    TRIAL :  cpu time      2.5462: real time      2.5476
    CORREC:  cpu time      3.1280: real time      3.1294
    CHARGE:  cpu time      0.5388: real time      0.5392
    --------------------------------------------
      LOOP:  cpu time      8.1460: real time      8.1671

 eigenvalue-minimisations  :     0
 total energy-change (2. order) :-0.5229129E-05  (-0.1769044E-05)
 number of electron      24.0000000 magnetization 
 augmentation part        0.0096592 magnetization 

 Free energy of the ion-electron system (eV)
  ---------------------------------------------------
  alpha Z        PSCENC =         0.15477404
  Ewald energy   TEWEN  =      1354.52000889
  -Hartree energ DENC   =     -2323.76012201
  -exchange      EXHF   =         0.00000000
  -V(xc)+E(xc)   XCENC  =       103.58915769
  PAW double counting   =     14565.17206902   -14568.22144152
  entropy T*S    EENTRO =        -0.00000000
  eigenvalues    EBANDS =      -342.48259494
  atomic energy  EATOM  =      1158.54671353
  ---------------------------------------------------
  free energy    TOTEN  =       -52.48143530 eV

  energy without entropy =      -52.48143530  energy(sigma->0) =      -52.48143530


--------------------------------------------------------------------------------------------------------




--------------------------------------- Iteration      1(  20)  ---------------------------------------


    POTLOK:  cpu time      1.6083: real time      1.6087
    SETDIJ:  cpu time      0.3102: real time      0.3102
    TRIAL :  cpu time      2.5487: real time      2.5500
    CORREC:  cpu time      3.1286: real time      3.1298
    CHARGE:  cpu time      0.5395: real time      0.5401
    --------------------------------------------
      LOOP:  cpu time      8.1492: real time      8.1694

 eigenvalue-minimisations  :     0
 total energy-change (2. order) :-0.1836555E-05  (-0.5311662E-06)
 number of electron      24.0000000 magnetization 
 augmentation part        0.0096586 magnetization 

 Free energy of the ion-electron system (eV)
  ---------------------------------------------------
  alpha Z        PSCENC =         0.15477404
  Ewald energy   TEWEN  =      1354.52000889
  -Hartree energ DENC   =     -2323.76299264
  -exchange      EXHF   =         0.00000000
  -V(xc)+E(xc)   XCENC  =       103.58938941
  PAW double counting   =     14570.44220517   -14573.49156429
  entropy T*S    EENTRO =        -0.00000000
  eigenvalues    EBANDS =      -342.47997126
  atomic energy  EATOM  =      1158.54671353
  ---------------------------------------------------
  free energy    TOTEN  =       -52.48143714 eV

  energy without entropy =      -52.48143714  energy(sigma->0) =      -52.48143714


--------------------------------------------------------------------------------------------------------




--------------------------------------- Iteration      1(  21)  ---------------------------------------


    POTLOK:  cpu time      1.6091: real time      1.6095
    SETDIJ:  cpu time      0.3446: real time      0.3448
    TRIAL :  cpu time      2.5461: real time      2.5473
    CORREC:  cpu time      3.1265: real time      3.1275
    CHARGE:  cpu time      0.5389: real time      0.5393
    --------------------------------------------
      LOOP:  cpu time      8.1964: real time      8.1997

 eigenvalue-minimisations  :     0
 total energy-change (2. order) :-0.5312031E-06  (-0.1863167E-06)
 number of electron      24.0000000 magnetization 
 augmentation part        0.0096581 magnetization 

 Free energy of the ion-electron system (eV)
  ---------------------------------------------------
  alpha Z        PSCENC =         0.15477404
  Ewald energy   TEWEN  =      1354.52000889
  -Hartree energ DENC   =     -2323.76246943
  -exchange      EXHF   =         0.00000000
  -V(xc)+E(xc)   XCENC  =       103.58941056
  PAW double counting   =     14573.46319031   -14576.51253268
  entropy T*S    EENTRO =        -0.00000000
  eigenvalues    EBANDS =      -342.48053290
  atomic energy  EATOM  =      1158.54671353
  ---------------------------------------------------
  free energy    TOTEN  =       -52.48143767 eV

  energy without entropy =      -52.48143767  energy(sigma->0) =      -52.48143767


--------------------------------------------------------------------------------------------------------




--------------------------------------- Iteration      1(  22)  ---------------------------------------


    POTLOK:  cpu time      1.6075: real time      1.6084
    SETDIJ:  cpu time      0.3126: real time      0.3126
    TRIAL :  cpu time      2.5500: real time      2.5512
    CORREC:  cpu time      3.1250: real time      3.1268
    CHARGE:  cpu time      0.5391: real time      0.5393
    --------------------------------------------
      LOOP:  cpu time      8.1482: real time      8.1687

 eigenvalue-minimisations  :     0
 total energy-change (2. order) :-0.1601147E-06  (-0.1158195E-06)
 number of electron      24.0000000 magnetization 
 augmentation part        0.0096585 magnetization 

 Free energy of the ion-electron system (eV)
  ---------------------------------------------------
  alpha Z        PSCENC =         0.15477404
  Ewald energy   TEWEN  =      1354.52000889
  -Hartree energ DENC   =     -2323.76094434
  -exchange      EXHF   =         0.00000000
  -V(xc)+E(xc)   XCENC  =       103.58935789
  PAW double counting   =     14574.95433499   -14578.00366637
  entropy T*S    EENTRO =        -0.00000000
  eigenvalues    EBANDS =      -342.48201647
  atomic energy  EATOM  =      1158.54671353
  ---------------------------------------------------
  free energy    TOTEN  =       -52.48143783 eV

  energy without entropy =      -52.48143783  energy(sigma->0) =      -52.48143783


--------------------------------------------------------------------------------------------------------




--------------------------------------- Iteration      1(  23)  ---------------------------------------


    POTLOK:  cpu time      1.6061: real time      1.6072
    SETDIJ:  cpu time      0.3151: real time      0.3151
    TRIAL :  cpu time      2.5433: real time      2.5449
    CORREC:  cpu time      3.1297: real time      3.1310
    CHARGE:  cpu time      0.5383: real time      0.5384
    --------------------------------------------
      LOOP:  cpu time      8.1500: real time      8.1703

 eigenvalue-minimisations  :     0
 total energy-change (2. order) :-0.1279950E-06  (-0.2913980E-07)
 number of electron      24.0000000 magnetization 
 augmentation part        0.0096578 magnetization 

 Free energy of the ion-electron system (eV)
  ---------------------------------------------------
  alpha Z        PSCENC =         0.15477404
  Ewald energy   TEWEN  =      1354.52000889
  -Hartree energ DENC   =     -2323.76005509
  -exchange      EXHF   =         0.00000000
  -V(xc)+E(xc)   XCENC  =       103.58933015
  PAW double counting   =     14575.71478225   -14578.76411602
  entropy T*S    EENTRO =        -0.00000000
  eigenvalues    EBANDS =      -342.48287572
  atomic energy  EATOM  =      1158.54671353
  ---------------------------------------------------
  free energy    TOTEN  =       -52.48143796 eV

  energy without entropy =      -52.48143796  energy(sigma->0) =      -52.48143796


--------------------------------------------------------------------------------------------------------




--------------------------------------- Iteration      1(  24)  ---------------------------------------


    POTLOK:  cpu time      1.6408: real time      1.6416
    SETDIJ:  cpu time      0.2771: real time      0.2772
    TRIAL :  cpu time      2.5411: real time      2.5424
    CORREC:  cpu time      3.1167: real time      3.1180
    CHARGE:  cpu time      0.5407: real time      0.5409
    --------------------------------------------
      LOOP:  cpu time      8.1327: real time      8.1507

 eigenvalue-minimisations  :     0
 total energy-change (2. order) :-0.2013621E-07  ( 0.1802727E-06)
 number of electron      24.0000000 magnetization 
 augmentation part        0.0096576 magnetization 

 Free energy of the ion-electron system (eV)
  ---------------------------------------------------
  alpha Z        PSCENC =         0.15477404
  Ewald energy   TEWEN  =      1354.52000889
  -Hartree energ DENC   =     -2323.75935140
  -exchange      EXHF   =         0.00000000
  -V(xc)+E(xc)   XCENC  =       103.58929693
  PAW double counting   =     14576.12239206   -14579.17171997
  entropy T*S    EENTRO =        -0.00000000
  eigenvalues    EBANDS =      -342.48355207
  atomic energy  EATOM  =      1158.54671353
  ---------------------------------------------------
  free energy    TOTEN  =       -52.48143798 eV

  energy without entropy =      -52.48143798  energy(sigma->0) =      -52.48143798


--------------------------------------------------------------------------------------------------------




--------------------------------------- Iteration      1(  25)  ---------------------------------------


    POTLOK:  cpu time      1.6069: real time      1.6076
    SETDIJ:  cpu time      0.3138: real time      0.3138
    TRIAL :  cpu time      2.5440: real time      2.5454
    CORREC:  cpu time      3.1250: real time      3.1263
    EDDIAG:  cpu time      0.6645: real time      0.6654
    CHARGE:  cpu time      0.5394: real time      0.5396
    --------------------------------------------
      LOOP:  cpu time      8.8064: real time      8.8282

 eigenvalue-minimisations  :     0
 total energy-change (2. order) :-0.3456444E-07  (-0.1118750E-07)
 number of electron      24.0000000 magnetization 
 augmentation part        0.0096570 magnetization 

 Free energy of the ion-electron system (eV)
  ---------------------------------------------------
  alpha Z        PSCENC =         0.15477404
  Ewald energy   TEWEN  =      1354.52000889
  -Hartree energ DENC   =     -2323.75949301
  -exchange      EXHF   =         0.00000000
  -V(xc)+E(xc)   XCENC  =       103.58930812
  PAW double counting   =     14576.40607919   -14579.45540784
  entropy T*S    EENTRO =        -0.00000000
  eigenvalues    EBANDS =      -342.48342094
  atomic energy  EATOM  =      1158.54671353
  ---------------------------------------------------
  free energy    TOTEN  =       -52.48143801 eV

  energy without entropy =      -52.48143801  energy(sigma->0) =      -52.48143801


--------------------------------------------------------------------------------------------------------


  average scaling for gradient   1.6219


 average (electrostatic) potential at core
  the test charge radii are     0.5770  0.4325  0.5902  0.5955
  (the norm of the test charge is              1.0000)
       1 -91.4776       2 -49.6476       3 -49.3975       4 -49.6505       5 -49.4026
       6-107.0457       7-107.0477       8-122.2046



 E-fermi :  -6.1424     XC(G=0):  -0.0862     alpha+bet : -0.0451

 Fermi energy:        -6.1424318111

 k-point     1 :       0.0000    0.0000    0.0000
  band No.  band energies     occupation 
      1     -27.4038      2.00000
      2     -24.1545      2.00000
      3     -23.1144      2.00000
      4     -15.7621      2.00000
      5     -14.0145      2.00000
      6     -13.6951      2.00000
      7     -11.8680      2.00000
      8     -10.6865      2.00000
      9     -10.3857      2.00000
     10      -7.0062      2.00000
     11      -6.9113      2.00000
     12      -6.2398      2.00000
     13      -0.3758      0.00000
     14       0.0850      0.00000
     15       0.0896      0.00000
     16       0.2912      0.00000
     17       0.3212      0.00000
     18       0.3365      0.00000
     19       0.3521      0.00000
     20       0.3741      0.00000
     21       0.4903      0.00000
     22       0.5402      0.00000
     23       0.5910      0.00000
     24       0.6470      0.00000


--------------------------------------------------------------------------------------------------------


 soft charge-density along one line, spin component           1
         0         1         2         3         4         5         6         7         8         9
 total charge-density along one line

 pseudopotential strength for first ion, spin component:           1
 12.758  21.470  -0.005  -0.000  -0.003  -0.010  -0.000  -0.005
 21.470  36.130  -0.009  -0.000  -0.005  -0.016  -0.000  -0.009
 -0.005  -0.009  -3.292  -0.000   0.001  -5.903  -0.000   0.001
 -0.000  -0.000  -0.000  -3.298   0.001  -0.000  -5.913   0.001
 -0.003  -0.005   0.001   0.001  -3.293   0.001   0.001  -5.904
 -0.010  -0.016  -5.903  -0.000   0.001 -10.560  -0.001   0.002
 -0.000  -0.000  -0.000  -5.913   0.001  -0.001 -10.577   0.001
 -0.005  -0.009   0.001   0.001  -5.904   0.002   0.001 -10.562
 total augmentation occupancy for first ion, spin component:           1
 10.357  -4.072   1.379  -0.001   0.792  -0.655   0.000  -0.376
 -4.072   1.681  -0.661   0.000  -0.380   0.323  -0.000   0.186
  1.379  -0.661   9.782  -0.523   1.326  -3.698   0.224  -0.588
 -0.001   0.000  -0.523   3.700   0.902   0.224  -1.124  -0.387
  0.792  -0.380   1.326   0.902   8.238  -0.588  -0.387  -3.014
 -0.655   0.323  -3.698   0.224  -0.588   1.433  -0.093   0.264
  0.000  -0.000   0.224  -1.124  -0.387  -0.093   0.345   0.160
 -0.376   0.186  -0.588  -0.387  -3.014   0.264   0.160   1.126


------------------------ aborting loop because EDIFF is reached ----------------------------------------


    FORLOC:  cpu time      0.0412: real time      0.0412
    FORNL :  cpu time      0.0212: real time      0.0216
    FORCOR:  cpu time      1.7074: real time      1.7082
    OFIELD:  cpu time      0.0066: real time      0.0068

 VOLUME and BASIS-vectors are now :
 -----------------------------------------------------------------------------
  energy-cutoff  :     1000.00
  volume of cell :    10648.00
      direct lattice vectors                 reciprocal lattice vectors
    22.000000000  0.000000000  0.000000000     0.045454545  0.000000000  0.000000000
     0.000000000 22.000000000  0.000000000     0.000000000  0.045454545  0.000000000
     0.000000000  0.000000000 22.000000000     0.000000000  0.000000000  0.045454545

  length of vectors
    22.000000000 22.000000000 22.000000000     0.045454545  0.045454545  0.045454545


 FORCES acting on ions:
    Electron-Ion                     Ewald-Force                    Non-Local-Force
 -----------------------------------------------------------------------------------------------
   0.245E+02 0.425E+02 0.142E-01   -.220E+02 -.381E+02 -.124E-01   -.242E+01 -.421E+01 0.210E-02
   0.667E+02 0.593E+02 -.274E+02   -.705E+02 -.646E+02 0.303E+02   0.404E+01 0.559E+01 -.298E+01
   0.624E+02 -.702E+02 0.729E+01   -.657E+02 0.767E+02 -.749E+01   0.350E+01 -.677E+01 0.215E+00
   0.179E+02 0.876E+02 0.269E+02   -.206E+02 -.936E+02 -.297E+02   0.282E+01 0.632E+01 0.293E+01
   -.921E+02 0.186E+02 -.707E+01   0.994E+02 -.182E+02 0.725E+01   -.761E+01 -.382E+00 -.193E+00
   0.214E+03 0.149E+02 0.734E+02   -.214E+03 -.184E+02 -.904E+02   0.389E-01 0.350E+01 0.172E+02
   -.952E+02 0.192E+03 -.734E+02   0.922E+02 -.194E+03 0.903E+02   0.289E+01 0.170E+01 -.171E+02
   -.174E+03 -.303E+03 0.206E+00   0.201E+03 0.350E+03 -.228E+00   -.273E+02 -.475E+02 0.185E-01
 -----------------------------------------------------------------------------------------------
   0.240E+02 0.418E+02 -.103E+00   -.284E-13 0.000E+00 0.711E-14   -.241E+02 -.418E+02 0.118E+00


 POSITION                                       TOTAL-FORCE (eV/Angst)
 -----------------------------------------------------------------------------------
     11.13769     11.49895     11.00094         0.166336      0.310121      0.004084
      9.24993     10.65093     11.11422         0.205053      0.213859     -0.126162
      9.31407     12.30128     10.68780         0.172598     -0.259600      0.013143
     11.35317      9.44028     10.89551         0.091292      0.276947      0.114285
     12.75007     10.32741     11.31220        -0.303127      0.014616     -0.014187
      9.78540     11.40471     10.69863         0.188000      0.065276      0.229922
     11.73819     10.28413     11.30402        -0.048719      0.195363     -0.217956
     11.74707     12.55972     11.00028        -0.471433     -0.816583     -0.003129
 -----------------------------------------------------------------------------------
    total drift:                               -0.026773      0.009920      0.015383


--------------------------------------------------------------------------------------------------------



  FREE ENERGIE OF THE ION-ELECTRON SYSTEM (eV)
  ---------------------------------------------------
  free  energy   TOTEN  =       -52.48143801 eV

  energy  without entropy=      -52.48143801  energy(sigma->0) =      -52.48143801



--------------------------------------------------------------------------------------------------------


    POTLOK:  cpu time      1.9328: real time      1.9337


--------------------------------------------------------------------------------------------------------


 stress matrix after NEB project (eV)
      0.00000      0.00000      0.00000
      0.00000      0.00000      0.00000
      0.00000      0.00000      0.00000
  FORCES: max atom, RMS     0.942903    0.445097
  FORCE total and by dimension    1.258924    0.816583
  Stress total and by dimension    0.000000    0.000000
     LOOP+:  cpu time    187.1004: real time    187.5624
    4ORBIT:  cpu time      0.0000: real time      0.0000

 total amount of memory used by VASP MPI-rank0   131377. kBytes
=======================================================================

   base      :      30000. kBytes
   nonl-proj :       4583. kBytes
   fftplans  :      24880. kBytes
   grid      :      70194. kBytes
   one-center:          1. kBytes
   wavefun   :       1719. kBytes

  
  
 General timing and accounting informations for this job:
 ========================================================
  
                  Total CPU time used (sec):      214.974
                            User time (sec):      196.873
                          System time (sec):       18.101
                         Elapsed time (sec):      224.300
  
                   Maximum memory used (kb):      350868.
                   Average memory used (kb):          N/A
  
                          Minor page faults:       470885
                          Major page faults:          584
                 Voluntary context switches:         8003
