 vasp.6.4.1 05Apr23 (build Jun  6 2023 14:46:38) gamma-only                      
 executed on        HPECrayEX_GCC date 2024.08.22  10:33:51
 running  512 mpi-ranks, with    1 threads/rank, on    4 nodes
 distrk:  each k-point on  512 cores,    1 groups
 distr:  one band on NCORE=   2 cores,  256 groups


--------------------------------------------------------------------------------------------------------


 INCAR:
   ALGO = Conjugate
   NCORE = 2
   PREC = Accurate
   EDIFF = 1E-7
   ENCUT = 1000
   ISMEAR = 0
   SIGMA = 0.01
   ISIF = 0
   SYMPREC = 1E-7
   GGA = B5
   ALDAX = 1.0
   AGGAX = 1.0
   AGGAC = 1.0
   ALDAC = 0.0
   IVDW = 11
   VDW_S8 = 1.682
   VDW_SR = 1.094
   LWAVE = .FALSE.
   LCHARG = .FALSE.
   LWAVE = .FALSE.
   LCHARG = .FALSE.

 POTCAR:    PAW_PBE C_h 06Feb2004                 
 POTCAR:    PAW_PBE H_h 06Feb2004                 
 POTCAR:    PAW_PBE N_h 06Feb2004                 
 POTCAR:    PAW_PBE O_h 06Feb2004                 
 POTCAR:    PAW_PBE C_h 06Feb2004                 
   VRHFIN =C: s2p2                                                                                  
   LEXCH  = PE                                                                                      
   EATOM  =   147.1560 eV,   10.8157 Ry                                                             
                                                                                                    
   TITEL  = PAW_PBE C_h 06Feb2004                                                                   
   LULTRA =        F    use ultrasoft PP ?                                                          
   IUNSCR =        1    unscreen: 0-lin 1-nonlin 2-no                                               
   RPACOR =    0.800    partial core radius                                                         
   POMASS =   12.011; ZVAL   =    4.000    mass and valenz                                          
   RCORE  =    1.100    outmost cutoff radius                                                       
   RWIGS  =    1.630; RWIGS  =    0.863    wigner-seitz radius (au A)                               
   ENMAX  =  700.000; ENMIN  =  500.000 eV                                                          
   ICORE  =        2    local potential                                                             
   LCOR   =        T    correct aug charges                                                         
   LPAW   =        T    paw PP                                                                      
   EAUG   =  946.768                                                                                
   DEXC   =    0.000                                                                                
   RMAX   =    1.128    core radius for proj-oper                                                   
   RAUG   =    1.300    factor for augmentation sphere                                              
   RDEP   =    1.162    radius for radial grids                                                     
   RDEPT  =    1.088    core radius for aug-charge                                                  
                                                                                                    
   Atomic configuration                                                                             
    4 entries                                                                                       
     n  l   j            E        occ.                                                              
     1  0  0.50      -273.3789   2.0000                                                             
     2  0  0.50       -13.7508   2.0000                                                             
     2  1  0.50        -5.2854   2.0000                                                             
     3  2  1.50        -5.4423   0.0000                                                             
   Description                                                                                      
     l       E           TYP  RCUT    TYP  RCUT                                                     
     0    -13.7508458     23  1.100                                                                 
     0     -8.2022199     23  1.100                                                                 
     1     -5.2854383     23  1.100                                                                 
     1      1.1560700     23  1.100                                                                 
     2     -5.4423304      7  1.100                                                                 
  local pseudopotential read in
  partial core-charges read in
  partial kinetic energy density read in
  atomic valenz-charges read in
  non local Contribution for L=           0  read in
    real space projection operators read in
  non local Contribution for L=           0  read in
    real space projection operators read in
  non local Contribution for L=           1  read in
    real space projection operators read in
  non local Contribution for L=           1  read in
    real space projection operators read in
    PAW grid and wavefunctions read in

   number of l-projection  operators is LMAX  =           4
   number of lm-projection operators is LMMAX =           8

 POTCAR:    PAW_PBE H_h 06Feb2004                 
   VRHFIN =H: ultrasoft test                                                                        
   LEXCH  = PE                                                                                      
   EATOM  =    12.4884 eV,    0.9179 Ry                                                             
                                                                                                    
   TITEL  = PAW_PBE H_h 06Feb2004                                                                   
   LULTRA =        F    use ultrasoft PP ?                                                          
   IUNSCR =        0    unscreen: 0-lin 1-nonlin 2-no                                               
   RPACOR =    0.000    partial core radius                                                         
   POMASS =    1.000; ZVAL   =    1.000    mass and valenz                                          
   RCORE  =    0.800    outmost cutoff radius                                                       
   RWIGS  =    0.700; RWIGS  =    0.370    wigner-seitz radius (au A)                               
   ENMAX  =  700.000; ENMIN  =  350.000 eV                                                          
   RCLOC  =    0.701    cutoff for local pot                                                        
   LCOR   =        T    correct aug charges                                                         
   LPAW   =        T    paw PP                                                                      
   EAUG   = 1000.000                                                                                
   RMAX   =    0.819    core radius for proj-oper                                                   
   RAUG   =    1.000    factor for augmentation sphere                                              
   RDEP   =    0.817    radius for radial grids                                                     
   RDEPT  =    0.817    core radius for aug-charge                                                  
                                                                                                    
   Atomic configuration                                                                             
    2 entries                                                                                       
     n  l   j            E        occ.                                                              
     1  0  0.50        -6.4927   1.0000                                                             
     2  1  0.50        -3.4015   0.0000                                                             
   Description                                                                                      
     l       E           TYP  RCUT    TYP  RCUT                                                     
     0     -6.4927493     23  0.800                                                                 
     0      6.8029130     23  0.800                                                                 
     1     -6.8029130     23  0.800                                                                 
  local pseudopotential read in
  atomic valenz-charges read in
  non local Contribution for L=           0  read in
    real space projection operators read in
  non local Contribution for L=           0  read in
    real space projection operators read in
  non local Contribution for L=           1  read in
    real space projection operators read in
    PAW grid and wavefunctions read in

   number of l-projection  operators is LMAX  =           3
   number of lm-projection operators is LMMAX =           5

 POTCAR:    PAW_PBE N_h 06Feb2004                 
   VRHFIN =N: s2p3                                                                                  
   LEXCH  = PE                                                                                      
   EATOM  =   264.5486 eV,   19.4438 Ry                                                             
                                                                                                    
   TITEL  = PAW_PBE N_h 06Feb2004                                                                   
   LULTRA =        F    use ultrasoft PP ?                                                          
   IUNSCR =        1    unscreen: 0-lin 1-nonlin 2-no                                               
   RPACOR =    0.800    partial core radius                                                         
   POMASS =   14.001; ZVAL   =    5.000    mass and valenz                                          
   RCORE  =    1.100    outmost cutoff radius                                                       
   RWIGS  =    1.480; RWIGS  =    0.783    wigner-seitz radius (au A)                               
   ENMAX  =  700.000; ENMIN  =  500.000 eV                                                          
   ICORE  =        2    local potential                                                             
   LCOR   =        T    correct aug charges                                                         
   LPAW   =        T    paw PP                                                                      
   EAUG   =  904.640                                                                                
   DEXC   =    0.000                                                                                
   RMAX   =    1.127    core radius for proj-oper                                                   
   RAUG   =    1.300    factor for augmentation sphere                                              
   RDEP   =    1.115    radius for radial grids                                                     
   RDEPT  =    1.106    core radius for aug-charge                                                  
                                                                                                    
   Atomic configuration                                                                             
    4 entries                                                                                       
     n  l   j            E        occ.                                                              
     1  0  0.50      -384.7179   2.0000                                                             
     2  0  0.50       -18.5828   2.0000                                                             
     2  1  0.50        -7.0898   3.0000                                                             
     3  2  1.50        -6.8029   0.0000                                                             
   Description                                                                                      
     l       E           TYP  RCUT    TYP  RCUT                                                     
     0    -18.5828117     23  1.100                                                                 
     0    -15.0750597     23  1.100                                                                 
     1     -7.0897851     23  1.100                                                                 
     1     -1.9663412     23  1.100                                                                 
     2     -6.8029130      7  1.100                                                                 
  local pseudopotential read in
  partial core-charges read in
  partial kinetic energy density read in
  kinetic energy density of atom read in
  atomic valenz-charges read in
  non local Contribution for L=           0  read in
    real space projection operators read in
  non local Contribution for L=           0  read in
    real space projection operators read in
  non local Contribution for L=           1  read in
    real space projection operators read in
  non local Contribution for L=           1  read in
    real space projection operators read in
    PAW grid and wavefunctions read in

   number of l-projection  operators is LMAX  =           4
   number of lm-projection operators is LMMAX =           8

 POTCAR:    PAW_PBE O_h 06Feb2004                 
   VRHFIN =O: s2p4                                                                                  
   LEXCH  = PE                                                                                      
   EATOM  =   432.3788 eV,   31.7789 Ry                                                             
                                                                                                    
   TITEL  = PAW_PBE O_h 06Feb2004                                                                   
   LULTRA =        F    use ultrasoft PP ?                                                          
   IUNSCR =        1    unscreen: 0-lin 1-nonlin 2-no                                               
   RPACOR =    0.800    partial core radius                                                         
   POMASS =   16.000; ZVAL   =    6.000    mass and valenz                                          
   RCORE  =    1.100    outmost cutoff radius                                                       
   RWIGS  =    1.400; RWIGS  =    0.741    wigner-seitz radius (au A)                               
   ENMAX  =  700.000; ENMIN  =  500.000 eV                                                          
   ICORE  =        2    local potential                                                             
   LCOR   =        T    correct aug charges                                                         
   LPAW   =        T    paw PP                                                                      
   EAUG   =  888.804                                                                                
   DEXC   =    0.000                                                                                
   RMAX   =    1.128    core radius for proj-oper                                                   
   RAUG   =    1.300    factor for augmentation sphere                                              
   RDEP   =    1.125    radius for radial grids                                                     
   RDEPT  =    1.088    core radius for aug-charge                                                  
                                                                                                    
   Atomic configuration                                                                             
    4 entries                                                                                       
     n  l   j            E        occ.                                                              
     1  0  0.50      -514.6923   2.0000                                                             
     2  0  0.50       -23.9615   2.0000                                                             
     2  1  0.50        -9.0305   4.0000                                                             
     3  2  1.50        -9.5241   0.0000                                                             
   Description                                                                                      
     l       E           TYP  RCUT    TYP  RCUT                                                     
     0    -23.9615319     23  1.100                                                                 
     0    -25.3221145     23  1.100                                                                 
     1     -9.0304911     23  1.100                                                                 
     1     -5.4802209     23  1.100                                                                 
     2     -9.5240782      7  1.100                                                                 
  local pseudopotential read in
  partial core-charges read in
  partial kinetic energy density read in
  atomic valenz-charges read in
  non local Contribution for L=           0  read in
    real space projection operators read in
  non local Contribution for L=           0  read in
    real space projection operators read in
  non local Contribution for L=           1  read in
    real space projection operators read in
  non local Contribution for L=           1  read in
    real space projection operators read in
    PAW grid and wavefunctions read in

   number of l-projection  operators is LMAX  =           4
   number of lm-projection operators is LMMAX =           8

 -----------------------------------------------------------------------------
|                                                                             |
|               ----> ADVICE to this user running VASP <----                  |
|                                                                             |
|     You enforced a specific xc type in the INCAR file but a different       |
|     type was found in the POTCAR file.                                      |
|     I HOPE YOU KNOW WHAT YOU ARE DOING!                                     |
|                                                                             |
 -----------------------------------------------------------------------------

  PAW_PBE C_h 06Feb2004                 :
 energy of atom  1       EATOM= -147.1560
 kinetic energy error for atom=    0.0031 (will be added to EATOM!!)
  PAW_PBE H_h 06Feb2004                 :
 energy of atom  2       EATOM=  -12.4884
 kinetic energy error for atom=    0.0006 (will be added to EATOM!!)
  PAW_PBE N_h 06Feb2004                 :
 energy of atom  3       EATOM= -264.5486
 kinetic energy error for atom=    0.0081 (will be added to EATOM!!)
  PAW_PBE O_h 06Feb2004                 :
 energy of atom  4       EATOM= -432.3788
 kinetic energy error for atom=    0.0171 (will be added to EATOM!!)


 POSCAR:  C  H  N  O
  positions in cartesian coordinates
  No initial velocities read in
 exchange correlation table for  LEXCH =       12
   RHO(1)=    0.500       N(1)  =     2000
   RHO(2)=  100.500       N(2)  =     4000

 VTST: version 4.1, (05/19/21)

 CHAIN: initializing optimizer
 
 OPT: Using VASP Dynamics algorithm
 CHAIN: Read ICHAIN            0

 POSCAR:  C  H  N  O
  positions in cartesian coordinates
  No initial velocities read in



--------------------------------------------------------------------------------------------------------


 ion  position               nearest neighbor table
   1  0.506  0.523  0.500-   8 1.22   7 1.39   6 1.39
   2  0.420  0.484  0.505-   6 1.01
   3  0.423  0.559  0.486-   6 1.01
   4  0.516  0.429  0.495-   7 1.01
   5  0.580  0.469  0.514-   7 1.01
   6  0.445  0.518  0.486-   3 1.01   2 1.01   1 1.39
   7  0.534  0.467  0.514-   5 1.01   4 1.01   1 1.39
   8  0.534  0.571  0.500-   1 1.22

  LATTYP: Found a simple cubic cell.
 ALAT       =    22.0000000000
  
  Lattice vectors:
  
 A1 = (  22.0000000000,   0.0000000000,   0.0000000000)
 A2 = (   0.0000000000,  22.0000000000,   0.0000000000)
 A3 = (   0.0000000000,   0.0000000000,  22.0000000000)


Analysis of symmetry for initial positions (statically):
=====================================================================
 Subroutine PRICEL returns:
 Original cell was already a primitive cell.
 

 Routine SETGRP: Setting up the symmetry group for a 
 simple cubic supercell.


 Subroutine GETGRP returns: Found  1 space group operations
 (whereof  1 operations were pure point group operations)
 out of a pool of 48 trial point group operations.


The static configuration has the point symmetry C_1 .


Analysis of symmetry for dynamics (positions and initial velocities):
=====================================================================
 Subroutine PRICEL returns:
 Original cell was already a primitive cell.
 

 Routine SETGRP: Setting up the symmetry group for a 
 simple cubic supercell.


 Subroutine GETGRP returns: Found  1 space group operations
 (whereof  1 operations were pure point group operations)
 out of a pool of 48 trial point group operations.


The dynamic configuration has the point symmetry C_1 .


 Subroutine INISYM returns: Found  1 space group operations
 (whereof  1 operations are pure point group operations),
 and found     1 'primitive' translations


----------------------------------------------------------------------------------------

                                     Primitive cell                                     

  volume of cell :   10648.0000

  direct lattice vectors                    reciprocal lattice vectors
    22.000000000  0.000000000  0.000000000     0.045454545  0.000000000  0.000000000
     0.000000000 22.000000000  0.000000000     0.000000000  0.045454545  0.000000000
     0.000000000  0.000000000 22.000000000     0.000000000  0.000000000  0.045454545

  length of vectors
    22.000000000 22.000000000 22.000000000     0.045454545  0.045454545  0.045454545

  position of ions in fractional coordinates (direct lattice)
     0.506258636  0.522679545  0.500042727
     0.420451364  0.484133182  0.505191818
     0.423366818  0.559149091  0.485809091
     0.516053182  0.429103636  0.495250455
     0.579548636  0.469427727  0.514190909
     0.444790909  0.518395909  0.486301364
     0.533554091  0.467460455  0.513819091
     0.533957727  0.570896364  0.500012727

  ion indices of the primitive-cell ions
   primitive index   ion index
                 1           1
                 2           2
                 3           3
                 4           4
                 5           5
                 6           6
                 7           7
                 8           8

----------------------------------------------------------------------------------------



 KPOINTS: auto                                    

Automatic generation of k-mesh.
 Grid dimensions read from file:
 generate k-points for:    1    1    1

 Generating k-lattice:

  Cartesian coordinates                     Fractional coordinates (reciprocal lattice)
     0.045454545  0.000000000  0.000000000     1.000000000  0.000000000  0.000000000
     0.000000000  0.045454545  0.000000000     0.000000000  1.000000000  0.000000000
     0.000000000  0.000000000  0.045454545     0.000000000  0.000000000  1.000000000

  Length of vectors
     0.045454545  0.045454545  0.045454545

  Shift w.r.t. Gamma in fractional coordinates (k-lattice)
     0.000000000  0.000000000  0.000000000

 
 Subroutine IBZKPT returns following result:
 ===========================================
 
 Found      1 irreducible k-points:
 
 Following reciprocal coordinates:
            Coordinates               Weight
  0.000000  0.000000  0.000000      1.000000
 
 Following cartesian coordinates:
            Coordinates               Weight
  0.000000  0.000000  0.000000      1.000000
 


--------------------------------------------------------------------------------------------------------




 Dimension of arrays:
   k-points           NKPTS =      1   k-points in BZ     NKDIM =      1   number of bands    NBANDS=    256
   number of dos      NEDOS =    301   number of ions     NIONS =      8
   non local maximal  LDIM  =      4   non local SUM 2l+1 LMDIM =      8
   total plane-waves  NPLWV = ******
   max r-space proj   IRMAX =      1   max aug-charges    IRDMAX=   9667
   dimension x,y,z NGX =   240 NGY =  240 NGZ =  240
   dimension x,y,z NGXF=   480 NGYF=  480 NGZF=  480
   support grid    NGXF=   480 NGYF=  480 NGZF=  480
   ions per type =               1   4   2   1
   NGX,Y,Z   is equivalent  to a cutoff of  18.14, 18.14, 18.14 a.u.
   NGXF,Y,Z  is equivalent  to a cutoff of  36.27, 36.27, 36.27 a.u.

 SYSTEM =  unknown system                          
 POSCAR =   C  H  N  O                             

 Startparameter for this run:
   NWRITE =      2    write-flag & timer
   PREC   = accura    normal or accurate (medium, high low for compatibility)
   ISTART =      0    job   : 0-new  1-cont  2-samecut
   ICHARG =      2    charge: 1-file 2-atom 10-const
   ISPIN  =      1    spin polarized calculation?
   LNONCOLLINEAR =      F non collinear calculations
   LSORBIT =      F    spin-orbit coupling
   INIWAV =      1    electr: 0-lowe 1-rand  2-diag
   LASPH  =      F    aspherical Exc in radial PAW
 Electronic Relaxation 1
   ENCUT  = 1000.0 eV  73.50 Ry    8.57 a.u.  56.73 56.73 56.73*2*pi/ulx,y,z
   ENINI  = 1000.0     initial cutoff
   ENAUG  = 1000.0 eV  augmentation charge cutoff
   NELM   =     60;   NELMIN=  2; NELMDL= -5     # of ELM steps 
   EDIFF  = 0.1E-06   stopping-criterion for ELM
   LREAL  =      F    real-space projection
   NLSPLINE    = F    spline interpolate recip. space projectors
   LCOMPAT=      F    compatible to vasp.4.4
   GGA_COMPAT  = T    GGA compatible to vasp.4.4-vasp.4.6
   LMAXPAW     = -100 max onsite density
   LMAXMIX     =    2 max onsite mixed and CHGCAR
   VOSKOWN=      0    Vosko Wilk Nusair interpolation
   ROPT   =    0.00000   0.00000   0.00000   0.00000
 Ionic relaxation
   EDIFFG = 0.1E-05   stopping-criterion for IOM
   NSW    =      0    number of steps for IOM
   NBLOCK =      1;   KBLOCK =      1    inner block; outer block 
   IBRION =     -1    ionic relax: 0-MD 1-quasi-New 2-CG
   NFREE  =      0    steps in history (QN), initial steepest desc. (CG)
   ISIF   =      0    stress and relaxation
   IWAVPR =     10    prediction:  0-non 1-charg 2-wave 3-comb
   ISYM   =      2    0-nonsym 1-usesym 2-fastsym
   LCORR  =      T    Harris-Foulkes like correction to forces

   POTIM  = 0.5000    time-step for ionic-motion
   TEIN   =    0.0    initial temperature
   TEBEG  =    0.0;   TEEND  =   0.0 temperature during run
   SMASS  =  -3.00    Nose mass-parameter (am)
   estimated Nose-frequenzy (Omega)   =  0.10E-29 period in steps = 0.13E+47 mass=  -0.111E-25a.u.
   SCALEE = 1.0000    scale energy and forces
   NPACO  =    256;   APACO  = 10.0  distance and # of slots for P.C.
   PSTRESS=    0.0 pullay stress

  Mass of Ions in am
   POMASS =  12.01  1.00 14.00 16.00
  Ionic Valenz
   ZVAL   =   4.00  1.00  5.00  6.00
  Atomic Wigner-Seitz radii
   RWIGS  =  -1.00 -1.00 -1.00 -1.00
  virtual crystal weights 
   VCA    =   1.00  1.00  1.00  1.00
   NELECT =      24.0000    total number of electrons
   NUPDOWN=      -1.0000    fix difference up-down

 DOS related values:
   EMIN   =  10.00;   EMAX   =-10.00  energy-range for DOS
   EFERMI =   0.00;   METHOD = LEGACY      
   ISMEAR =     0;   SIGMA  =   0.01  broadening in eV -4-tet -1-fermi 0-gaus

 Electronic relaxation 2 (details)
   IALGO  =     58    algorithm
   LDIAG  =      T    sub-space diagonalisation (order eigenvalues)
   LSUBROT=      F    optimize rotation matrix (better conditioning)
   TURBO    =      0    0=normal 1=particle mesh
   IRESTART =      0    0=no restart 2=restart with 2 vectors
   NREBOOT  =      0    no. of reboots
   NMIN     =      0    reboot dimension
   EREF     =   0.00    reference energy to select bands
   IMIX   =      4    mixing-type and parameters
     AMIX     =   0.40;   BMIX     =  1.00
     AMIX_MAG =   1.60;   BMIX_MAG =  1.00
     AMIN     =   0.10
     WC   =   100.;   INIMIX=   1;  MIXPRE=   1;  MAXMIX= -45

 Intra band minimization:
   WEIMIN = 0.0000     energy-eigenvalue tresh-hold
   EBREAK =  0.98E-10  absolut break condition
   DEPER  =   0.30     relativ break condition  

   TIME   =   0.40     timestep for ELM

  volume/ion in A,a.u.               =    1331.00      8982.03
  Fermi-wavevector in a.u.,A,eV,Ry     =   0.214646  0.405622  0.626859  0.046073
  Thomas-Fermi vector in A             =   0.987905

 Write flags
   LWAVE        =      F    write WAVECAR
   LDOWNSAMPLE  =      F    k-point downsampling of WAVECAR
   LCHARG       =      F    write CHGCAR
   LVTOT        =      F    write LOCPOT, total local potential
   LVHAR        =      F    write LOCPOT, Hartree potential only
   LELF         =      F    write electronic localiz. function (ELF)
   LORBIT       =      0    0 simple, 1 ext, 2 COOP (PROOUT), +10 PAW based schemes


 Dipole corrections
   LMONO  =      F    monopole corrections only (constant potential shift)
   LDIPOL =      F    correct potential (dipole corrections)
   IDIPOL =      0    1-x, 2-y, 3-z, 4-all directions 
   EPSILON=  1.0000000 bulk dielectric constant

 Exchange correlation treatment:
   GGA     =    B5    GGA type
   LEXCH   =    12    internal setting for exchange type
   LIBXC   =     F    Libxc                    
   VOSKOWN =     0    Vosko Wilk Nusair interpolation
   LHFCALC =     F    Hartree Fock is set to
   LHFONE  =     F    Hartree Fock one center treatment
   AEXX    =    0.0000 exact exchange contribution

 Linear response parameters
   LEPSILON=     F    determine dielectric tensor
   LRPA    =     F    only Hartree local field effects (RPA)
   LNABLA  =     F    use nabla operator in PAW spheres
   LVEL    =     F    velocity operator in full k-point grid
   CSHIFT  =0.1000    complex shift for real part using Kramers Kronig
   OMEGAMAX=  -1.0    maximum frequency
   DEG_THRESHOLD= 0.2000000E-02 threshold for treating states as degnerate
   RTIME   =   -0.100 relaxation time in fs
  (WPLASMAI=    0.000 imaginary part of plasma frequency in eV, 0.658/RTIME)
   DFIELD  = 0.0000000 0.0000000 0.0000000 field for delta impulse in time

  Optional k-point grid parameters
   LKPOINTS_OPT  =     F    use optional k-point grid
   KPOINTS_OPT_MODE=     1    mode for optional k-point grid

 Orbital magnetization related:
   ORBITALMAG=     F  switch on orbital magnetization
   LCHIMAG   =     F  perturbation theory with respect to B field
   DQ        =  0.001000  dq finite difference perturbation B field
   LLRAUG    =     F  two centre corrections for induced B field
   LBONE     =     F  B-component reconstruction in AE one-centre
   LVGVCALC  =     T  calculate vGv susceptibility
   LVGVAPPL  =     F  apply vGv susceptibility instead of pGv for G=0

 Random number generation:
   RANDOM_GENERATOR = DEFAULT
   PCG_SEED         = not used


--------------------------------------------------------------------------------------------------------


 Static calculation
 charge density and potential will be updated during run
 non-spin polarized calculation
 Conjugate gradient for all bands (Freysoldt, et al. PRB 79, 241103 (2009))
 preconditioned conjugated gradient                                        
 perform sub-space diagonalisation
    before iterative eigenvector-optimisation
 modified Broyden-mixing scheme, WC =      100.0
 initial mixing is a Kerker type mixing with AMIX =  0.4000 and BMIX =      1.0000
 Hartree-type preconditioning will be used
 using additional bands          244
 reciprocal scheme for non local part
 use partial core corrections
 no Harris-corrections to forces 
 use gradient corrections 
 use of overlap-Matrix (Vanderbilt PP)
 Gauss-broadening in eV      SIGMA  =   0.01


--------------------------------------------------------------------------------------------------------


  energy-cutoff  :     1000.00
  volume of cell :    10648.00
      direct lattice vectors                 reciprocal lattice vectors
    22.000000000  0.000000000  0.000000000     0.045454545  0.000000000  0.000000000
     0.000000000 22.000000000  0.000000000     0.000000000  0.045454545  0.000000000
     0.000000000  0.000000000 22.000000000     0.000000000  0.000000000  0.045454545

  length of vectors
    22.000000000 22.000000000 22.000000000     0.045454545  0.045454545  0.045454545



 k-points in units of 2pi/SCALE and weight: auto                                    
   0.00000000  0.00000000  0.00000000       1.000

 k-points in reciprocal lattice and weights: auto                                    
   0.00000000  0.00000000  0.00000000       1.000

 position of ions in fractional coordinates (direct lattice) 
   0.50625864  0.52267955  0.50004273
   0.42045136  0.48413318  0.50519182
   0.42336682  0.55914909  0.48580909
   0.51605318  0.42910364  0.49525045
   0.57954864  0.46942773  0.51419091
   0.44479091  0.51839591  0.48630136
   0.53355409  0.46746045  0.51381909
   0.53395773  0.57089636  0.50001273

 position of ions in cartesian coordinates  (Angst):
  11.13769000 11.49895000 11.00094000
   9.24993000 10.65093000 11.11422000
   9.31407000 12.30128000 10.68780000
  11.35317000  9.44028000 10.89551000
  12.75007000 10.32741000 11.31220000
   9.78540000 11.40471000 10.69863000
  11.73819000 10.28413000 11.30402000
  11.74707000 12.55972000 11.00028000



--------------------------------------------------------------------------------------------------------


 use parallel FFT for orbitals z direction half grid
 k-point   1 :   0.0000 0.0000 0.0000  plane waves:  381993

 maximum and minimum number of plane-waves per node :    191003   190990

 maximum number of plane-waves:    381993
 maximum index in each direction: 
   IXMAX=   56   IYMAX=   56   IZMAX=   56
   IXMIN=  -56   IYMIN=  -56   IZMIN=    0


 parallel 3D FFT for wavefunctions:
    minimum data exchange during FFTs selected (reduces bandwidth)
 parallel 3D FFT for charge:
    minimum data exchange during FFTs selected (reduces bandwidth)


 total amount of memory used by VASP MPI-rank0   557982. kBytes
=======================================================================

   base      :      30000. kBytes
   nonl-proj :      73433. kBytes
   fftplans  :     151777. kBytes
   grid      :     293583. kBytes
   one-center:          6. kBytes
   wavefun   :       9183. kBytes

     INWAV:  cpu time      0.0001: real time      0.0001
 Broyden mixing: mesh for mixing (old mesh)
   NGX =113   NGY =113   NGZ =113
  (NGX  =480   NGY  =480   NGZ  =480)
  gives a total of ****** points

 initial charge density was supplied:
 charge density of overlapping atoms calculated
 number of electron      24.0000000 magnetization 
 keeping initial charge density in first step


--------------------------------------------------------------------------------------------------------


 Maximum index for augmentation-charges            0 (set IRDMAX)


--------------------------------------------------------------------------------------------------------


 First call to EWALD:  gamma=   0.081
 Maximum number of real-space cells 3x 3x 3
 Maximum number of reciprocal cells 3x 3x 3

    FEWALD:  cpu time      0.0042: real time      0.0044


--------------------------------------- Ionic step        1  -------------------------------------------




--------------------------------------- Iteration      1(   1)  ---------------------------------------


    POTLOK:  cpu time      0.9262: real time      0.9278
    SETDIJ:  cpu time      0.0148: real time      0.0152
    TRIAL :  cpu time      5.3300: real time      5.3341
    CORREC:  cpu time      0.0028: real time      0.0028
    --------------------------------------------
      LOOP:  cpu time      6.2842: real time      6.2905

 eigenvalue-minimisations  :   512
 total energy-change (2. order) : 0.2774547E+03  (-0.1073232E+04)
 number of electron      24.0000000 magnetization 
 augmentation part       24.0000000 magnetization 

 Free energy of the ion-electron system (eV)
  ---------------------------------------------------
  alpha Z        PSCENC =         0.15477404
  Ewald energy   TEWEN  =      1354.52000889
  -Hartree energ DENC   =     -2215.13506272
  -exchange      EXHF   =         0.00000000
  -V(xc)+E(xc)   XCENC  =        73.36813125
  PAW double counting   =       881.21756373     -875.47064799
  entropy T*S    EENTRO =        -0.01120727
  eigenvalues    EBANDS =      -100.94921463
  atomic energy  EATOM  =      1159.76032224
  ---------------------------------------------------
  free energy    TOTEN  =       277.45466754 eV

  energy without entropy =      277.46587481  energy(sigma->0) =      277.46027117


--------------------------------------------------------------------------------------------------------




--------------------------------------- Iteration      1(   2)  ---------------------------------------


    TRIAL :  cpu time     14.2528: real time     14.2594
    CORREC:  cpu time      0.0002: real time      0.0002
    --------------------------------------------
      LOOP:  cpu time     14.2692: real time     14.2906

 eigenvalue-minimisations  :  1024
 total energy-change (2. order) :-0.3246188E+03  (-0.3184199E+03)
 number of electron      24.0000000 magnetization 
 augmentation part       24.0000000 magnetization 

 Free energy of the ion-electron system (eV)
  ---------------------------------------------------
  alpha Z        PSCENC =         0.15477404
  Ewald energy   TEWEN  =      1354.52000889
  -Hartree energ DENC   =     -2215.13506272
  -exchange      EXHF   =         0.00000000
  -V(xc)+E(xc)   XCENC  =        73.36813125
  PAW double counting   =       881.21756373     -875.47064799
  entropy T*S    EENTRO =        -0.00000000
  eigenvalues    EBANDS =      -425.57925828
  atomic energy  EATOM  =      1159.76032224
  ---------------------------------------------------
  free energy    TOTEN  =       -47.16416884 eV

  energy without entropy =      -47.16416884  energy(sigma->0) =      -47.16416884


--------------------------------------------------------------------------------------------------------




--------------------------------------- Iteration      1(   3)  ---------------------------------------


    TRIAL :  cpu time      5.4809: real time      5.4846
    CORREC:  cpu time      0.0002: real time      0.0002
    --------------------------------------------
      LOOP:  cpu time      5.4962: real time      5.5155

 eigenvalue-minimisations  :   512
 total energy-change (2. order) :-0.4971226E+01  (-0.4971226E+01)
 number of electron      24.0000000 magnetization 
 augmentation part       24.0000000 magnetization 

 Free energy of the ion-electron system (eV)
  ---------------------------------------------------
  alpha Z        PSCENC =         0.15477404
  Ewald energy   TEWEN  =      1354.52000889
  -Hartree energ DENC   =     -2215.13506272
  -exchange      EXHF   =         0.00000000
  -V(xc)+E(xc)   XCENC  =        73.36813125
  PAW double counting   =       881.21756373     -875.47064799
  entropy T*S    EENTRO =        -0.00000000
  eigenvalues    EBANDS =      -430.55048435
  atomic energy  EATOM  =      1159.76032224
  ---------------------------------------------------
  free energy    TOTEN  =       -52.13539491 eV

  energy without entropy =      -52.13539491  energy(sigma->0) =      -52.13539491


--------------------------------------------------------------------------------------------------------




--------------------------------------- Iteration      1(   4)  ---------------------------------------


    TRIAL :  cpu time     13.9678: real time     13.9748
    CORREC:  cpu time      0.0002: real time      0.0002
    --------------------------------------------
      LOOP:  cpu time     13.9997: real time     14.0068

 eigenvalue-minimisations  :  1024
 total energy-change (2. order) :-0.3621615E-01  (-0.3621615E-01)
 number of electron      24.0000000 magnetization 
 augmentation part       24.0000000 magnetization 

 Free energy of the ion-electron system (eV)
  ---------------------------------------------------
  alpha Z        PSCENC =         0.15477404
  Ewald energy   TEWEN  =      1354.52000889
  -Hartree energ DENC   =     -2215.13506272
  -exchange      EXHF   =         0.00000000
  -V(xc)+E(xc)   XCENC  =        73.36813125
  PAW double counting   =       881.21756373     -875.47064799
  entropy T*S    EENTRO =        -0.00000000
  eigenvalues    EBANDS =      -430.58670050
  atomic energy  EATOM  =      1159.76032224
  ---------------------------------------------------
  free energy    TOTEN  =       -52.17161106 eV

  energy without entropy =      -52.17161106  energy(sigma->0) =      -52.17161106


--------------------------------------------------------------------------------------------------------




--------------------------------------- Iteration      1(   5)  ---------------------------------------


    TRIAL :  cpu time      5.4648: real time      5.4679
    CORREC:  cpu time      0.0002: real time      0.0002
    CHARGE:  cpu time      1.4139: real time      1.4169
    --------------------------------------------
      LOOP:  cpu time      6.8927: real time      6.9163

 eigenvalue-minimisations  :   512
 total energy-change (2. order) :-0.1533801E-05  (-0.1532041E-05)
 number of electron      24.0000000 magnetization 
 augmentation part        0.1117285 magnetization 

 Free energy of the ion-electron system (eV)
  ---------------------------------------------------
  alpha Z        PSCENC =         0.15477404
  Ewald energy   TEWEN  =      1354.52000889
  -Hartree energ DENC   =     -2215.13506272
  -exchange      EXHF   =         0.00000000
  -V(xc)+E(xc)   XCENC  =        73.36813125
  PAW double counting   =       881.21756373     -875.47064799
  entropy T*S    EENTRO =        -0.00000000
  eigenvalues    EBANDS =      -430.58670204
  atomic energy  EATOM  =      1159.76032224
  ---------------------------------------------------
  free energy    TOTEN  =       -52.17161259 eV

  energy without entropy =      -52.17161259  energy(sigma->0) =      -52.17161259


--------------------------------------------------------------------------------------------------------




--------------------------------------- Iteration      1(   6)  ---------------------------------------


    POTLOK:  cpu time      0.5040: real time      0.5046
    SETDIJ:  cpu time      0.0040: real time      0.0040
    TRIAL :  cpu time      2.6775: real time      2.6810
    CORREC:  cpu time      2.5945: real time      2.5959
    CHARGE:  cpu time      1.3868: real time      1.3871
    --------------------------------------------
      LOOP:  cpu time      7.1803: real time      7.2043

 eigenvalue-minimisations  :     0
 total energy-change (2. order) : 0.1383887E+02  (-0.6365781E+01)
 number of electron      24.0000000 magnetization 
 augmentation part        0.0542055 magnetization 

 Free energy of the ion-electron system (eV)
  ---------------------------------------------------
  alpha Z        PSCENC =         0.15477404
  Ewald energy   TEWEN  =      1354.52000889
  -Hartree energ DENC   =     -2441.54662465
  -exchange      EXHF   =         0.00000000
  -V(xc)+E(xc)   XCENC  =        84.12293539
  PAW double counting   =      6716.12870512    -6712.54534843
  entropy T*S    EENTRO =        -0.00000000
  eigenvalues    EBANDS =      -198.92751722
  atomic energy  EATOM  =      1159.76032224
  ---------------------------------------------------
  free energy    TOTEN  =       -38.33274462 eV

  energy without entropy =      -38.33274462  energy(sigma->0) =      -38.33274462


--------------------------------------------------------------------------------------------------------




--------------------------------------- Iteration      1(   7)  ---------------------------------------


    POTLOK:  cpu time      0.4827: real time      0.4827
    SETDIJ:  cpu time      0.0039: real time      0.0039
    TRIAL :  cpu time      2.5435: real time      2.5453
    CORREC:  cpu time      2.5847: real time      2.5856
    CHARGE:  cpu time      1.3861: real time      1.3864
    --------------------------------------------
      LOOP:  cpu time      7.0132: real time      7.0342

 eigenvalue-minimisations  :     0
 total energy-change (2. order) :-0.6404523E+01  (-0.8745358E+00)
 number of electron      24.0000000 magnetization 
 augmentation part        0.0260598 magnetization 

 Free energy of the ion-electron system (eV)
  ---------------------------------------------------
  alpha Z        PSCENC =         0.15477404
  Ewald energy   TEWEN  =      1354.52000889
  -Hartree energ DENC   =     -2338.10461086
  -exchange      EXHF   =         0.00000000
  -V(xc)+E(xc)   XCENC  =        79.15939985
  PAW double counting   =      9678.51461171    -9673.81542457
  entropy T*S    EENTRO =        -0.00000000
  eigenvalues    EBANDS =      -304.92634929
  atomic energy  EATOM  =      1159.76032224
  ---------------------------------------------------
  free energy    TOTEN  =       -44.73726800 eV

  energy without entropy =      -44.73726800  energy(sigma->0) =      -44.73726800


--------------------------------------------------------------------------------------------------------




--------------------------------------- Iteration      1(   8)  ---------------------------------------


    POTLOK:  cpu time      0.4834: real time      0.4837
    SETDIJ:  cpu time      0.0040: real time      0.0040
    TRIAL :  cpu time      2.5447: real time      2.5460
    CORREC:  cpu time      2.5709: real time      2.5719
    CHARGE:  cpu time      1.3797: real time      1.3801
    --------------------------------------------
      LOOP:  cpu time      6.9968: real time      7.0160

 eigenvalue-minimisations  :     0
 total energy-change (2. order) :-0.8796729E+00  (-0.4836124E+00)
 number of electron      24.0000000 magnetization 
 augmentation part        0.0242532 magnetization 

 Free energy of the ion-electron system (eV)
  ---------------------------------------------------
  alpha Z        PSCENC =         0.15477404
  Ewald energy   TEWEN  =      1354.52000889
  -Hartree energ DENC   =     -2334.53104225
  -exchange      EXHF   =         0.00000000
  -V(xc)+E(xc)   XCENC  =        78.92826496
  PAW double counting   =     10023.77604982   -10018.90196022
  entropy T*S    EENTRO =        -0.00000000
  eigenvalues    EBANDS =      -309.32335833
  atomic energy  EATOM  =      1159.76032224
  ---------------------------------------------------
  free energy    TOTEN  =       -45.61694086 eV

  energy without entropy =      -45.61694086  energy(sigma->0) =      -45.61694086


--------------------------------------------------------------------------------------------------------




--------------------------------------- Iteration      1(   9)  ---------------------------------------


    POTLOK:  cpu time      0.4887: real time      0.4891
    SETDIJ:  cpu time      0.0041: real time      0.0041
    TRIAL :  cpu time      2.5398: real time      2.5412
    CORREC:  cpu time      2.5743: real time      2.5760
    CHARGE:  cpu time      1.3817: real time      1.3821
    --------------------------------------------
      LOOP:  cpu time      7.0048: real time      7.0236

 eigenvalue-minimisations  :     0
 total energy-change (2. order) :-0.4715205E+00  (-0.1725390E+00)
 number of electron      24.0000000 magnetization 
 augmentation part        0.0286742 magnetization 

 Free energy of the ion-electron system (eV)
  ---------------------------------------------------
  alpha Z        PSCENC =         0.15477404
  Ewald energy   TEWEN  =      1354.52000889
  -Hartree energ DENC   =     -2325.75992744
  -exchange      EXHF   =         0.00000000
  -V(xc)+E(xc)   XCENC  =        78.53810485
  PAW double counting   =     10350.85741868   -10345.90739020
  entropy T*S    EENTRO =        -0.00000000
  eigenvalues    EBANDS =      -318.25177244
  atomic energy  EATOM  =      1159.76032224
  ---------------------------------------------------
  free energy    TOTEN  =       -46.08846137 eV

  energy without entropy =      -46.08846137  energy(sigma->0) =      -46.08846137


--------------------------------------------------------------------------------------------------------




--------------------------------------- Iteration      1(  10)  ---------------------------------------


    POTLOK:  cpu time      0.4906: real time      0.4911
    SETDIJ:  cpu time      0.0039: real time      0.0039
    TRIAL :  cpu time      2.5428: real time      2.5443
    CORREC:  cpu time      2.5863: real time      2.5883
    CHARGE:  cpu time      1.3841: real time      1.3844
    --------------------------------------------
      LOOP:  cpu time      7.0383: real time      7.0428

 eigenvalue-minimisations  :     0
 total energy-change (2. order) :-0.1707743E+00  (-0.4663563E-01)
 number of electron      24.0000000 magnetization 
 augmentation part        0.0313734 magnetization 

 Free energy of the ion-electron system (eV)
  ---------------------------------------------------
  alpha Z        PSCENC =         0.15477404
  Ewald energy   TEWEN  =      1354.52000889
  -Hartree energ DENC   =     -2320.18925633
  -exchange      EXHF   =         0.00000000
  -V(xc)+E(xc)   XCENC  =        78.37723189
  PAW double counting   =      9905.87643361    -9900.94906837
  entropy T*S    EENTRO =        -0.00000000
  eigenvalues    EBANDS =      -323.80968168
  atomic energy  EATOM  =      1159.76032224
  ---------------------------------------------------
  free energy    TOTEN  =       -46.25923571 eV

  energy without entropy =      -46.25923571  energy(sigma->0) =      -46.25923571


--------------------------------------------------------------------------------------------------------




--------------------------------------- Iteration      1(  11)  ---------------------------------------


    POTLOK:  cpu time      0.4911: real time      0.4914
    SETDIJ:  cpu time      0.0039: real time      0.0039
    TRIAL :  cpu time      2.5428: real time      2.5441
    CORREC:  cpu time      2.5743: real time      2.5755
    CHARGE:  cpu time      1.3692: real time      1.3695
    --------------------------------------------
      LOOP:  cpu time      6.9978: real time      7.0144

 eigenvalue-minimisations  :     0
 total energy-change (2. order) :-0.4665853E-01  (-0.1364768E-01)
 number of electron      24.0000000 magnetization 
 augmentation part        0.0324055 magnetization 

 Free energy of the ion-electron system (eV)
  ---------------------------------------------------
  alpha Z        PSCENC =         0.15477404
  Ewald energy   TEWEN  =      1354.52000889
  -Hartree energ DENC   =     -2319.00699449
  -exchange      EXHF   =         0.00000000
  -V(xc)+E(xc)   XCENC  =        78.35886474
  PAW double counting   =      9529.64168347    -9524.75082225
  entropy T*S    EENTRO =        -0.00000000
  eigenvalues    EBANDS =      -324.98373087
  atomic energy  EATOM  =      1159.76032224
  ---------------------------------------------------
  free energy    TOTEN  =       -46.30589424 eV

  energy without entropy =      -46.30589424  energy(sigma->0) =      -46.30589424


--------------------------------------------------------------------------------------------------------




--------------------------------------- Iteration      1(  12)  ---------------------------------------


    POTLOK:  cpu time      0.4914: real time      0.4917
    SETDIJ:  cpu time      0.0039: real time      0.0039
    TRIAL :  cpu time      2.5402: real time      2.5415
    CORREC:  cpu time      2.5618: real time      2.5630
    CHARGE:  cpu time      1.3787: real time      1.3790
    --------------------------------------------
      LOOP:  cpu time      6.9890: real time      7.0101

 eigenvalue-minimisations  :     0
 total energy-change (2. order) :-0.1366444E-01  (-0.4462854E-02)
 number of electron      24.0000000 magnetization 
 augmentation part        0.0321464 magnetization 

 Free energy of the ion-electron system (eV)
  ---------------------------------------------------
  alpha Z        PSCENC =         0.15477404
  Ewald energy   TEWEN  =      1354.52000889
  -Hartree energ DENC   =     -2318.62114658
  -exchange      EXHF   =         0.00000000
  -V(xc)+E(xc)   XCENC  =        78.33938696
  PAW double counting   =      9414.45513869    -9409.57809203
  entropy T*S    EENTRO =        -0.00000000
  eigenvalues    EBANDS =      -325.34995089
  atomic energy  EATOM  =      1159.76032224
  ---------------------------------------------------
  free energy    TOTEN  =       -46.31955868 eV

  energy without entropy =      -46.31955868  energy(sigma->0) =      -46.31955868


--------------------------------------------------------------------------------------------------------




--------------------------------------- Iteration      1(  13)  ---------------------------------------


    POTLOK:  cpu time      0.4873: real time      0.4876
    SETDIJ:  cpu time      0.0040: real time      0.0040
    TRIAL :  cpu time      2.5423: real time      2.5437
    CORREC:  cpu time      2.5736: real time      2.5750
    CHARGE:  cpu time      1.3928: real time      1.3931
    --------------------------------------------
      LOOP:  cpu time      7.0170: real time      7.0334

 eigenvalue-minimisations  :     0
 total energy-change (2. order) :-0.4463730E-02  (-0.1734104E-02)
 number of electron      24.0000000 magnetization 
 augmentation part        0.0315452 magnetization 

 Free energy of the ion-electron system (eV)
  ---------------------------------------------------
  alpha Z        PSCENC =         0.15477404
  Ewald energy   TEWEN  =      1354.52000889
  -Hartree energ DENC   =     -2318.86955078
  -exchange      EXHF   =         0.00000000
  -V(xc)+E(xc)   XCENC  =        78.34730882
  PAW double counting   =      9408.84905330    -9403.97529872
  entropy T*S    EENTRO =        -0.00000000
  eigenvalues    EBANDS =      -325.11064020
  atomic energy  EATOM  =      1159.76032224
  ---------------------------------------------------
  free energy    TOTEN  =       -46.32402241 eV

  energy without entropy =      -46.32402241  energy(sigma->0) =      -46.32402241


--------------------------------------------------------------------------------------------------------




--------------------------------------- Iteration      1(  14)  ---------------------------------------


    POTLOK:  cpu time      0.4848: real time      0.4851
    SETDIJ:  cpu time      0.0039: real time      0.0039
    TRIAL :  cpu time      2.5507: real time      2.5519
    CORREC:  cpu time      2.5652: real time      2.5664
    CHARGE:  cpu time      1.3907: real time      1.3911
    --------------------------------------------
      LOOP:  cpu time      7.0093: real time      7.0298

 eigenvalue-minimisations  :     0
 total energy-change (2. order) :-0.1729409E-02  (-0.6652223E-03)
 number of electron      24.0000000 magnetization 
 augmentation part        0.0313384 magnetization 

 Free energy of the ion-electron system (eV)
  ---------------------------------------------------
  alpha Z        PSCENC =         0.15477404
  Ewald energy   TEWEN  =      1354.52000889
  -Hartree energ DENC   =     -2319.09512774
  -exchange      EXHF   =         0.00000000
  -V(xc)+E(xc)   XCENC  =        78.35341180
  PAW double counting   =      9434.92354675    -9430.04728007
  entropy T*S    EENTRO =        -0.00000000
  eigenvalues    EBANDS =      -324.89540772
  atomic energy  EATOM  =      1159.76032224
  ---------------------------------------------------
  free energy    TOTEN  =       -46.32575182 eV

  energy without entropy =      -46.32575182  energy(sigma->0) =      -46.32575182


--------------------------------------------------------------------------------------------------------




--------------------------------------- Iteration      1(  15)  ---------------------------------------


    POTLOK:  cpu time      0.4816: real time      0.4821
    SETDIJ:  cpu time      0.0039: real time      0.0039
    TRIAL :  cpu time      2.5477: real time      2.5490
    CORREC:  cpu time      2.5815: real time      2.5827
    CHARGE:  cpu time      1.3691: real time      1.3695
    --------------------------------------------
      LOOP:  cpu time      7.0138: real time      7.0174

 eigenvalue-minimisations  :     0
 total energy-change (2. order) :-0.6607937E-03  (-0.2162966E-03)
 number of electron      24.0000000 magnetization 
 augmentation part        0.0313471 magnetization 

 Free energy of the ion-electron system (eV)
  ---------------------------------------------------
  alpha Z        PSCENC =         0.15477404
  Ewald energy   TEWEN  =      1354.52000889
  -Hartree energ DENC   =     -2319.41823631
  -exchange      EXHF   =         0.00000000
  -V(xc)+E(xc)   XCENC  =        78.36515835
  PAW double counting   =      9448.19242135    -9443.31518433
  entropy T*S    EENTRO =        -0.00000000
  eigenvalues    EBANDS =      -324.58567683
  atomic energy  EATOM  =      1159.76032224
  ---------------------------------------------------
  free energy    TOTEN  =       -46.32641261 eV

  energy without entropy =      -46.32641261  energy(sigma->0) =      -46.32641261


--------------------------------------------------------------------------------------------------------




--------------------------------------- Iteration      1(  16)  ---------------------------------------


    POTLOK:  cpu time      0.4832: real time      0.4837
    SETDIJ:  cpu time      0.0040: real time      0.0040
    TRIAL :  cpu time      2.5481: real time      2.5493
    CORREC:  cpu time      2.5649: real time      2.5662
    CHARGE:  cpu time      1.3911: real time      1.3913
    --------------------------------------------
      LOOP:  cpu time      7.0059: real time      7.0252

 eigenvalue-minimisations  :     0
 total energy-change (2. order) :-0.2186626E-03  (-0.6731194E-04)
 number of electron      24.0000000 magnetization 
 augmentation part        0.0314271 magnetization 

 Free energy of the ion-electron system (eV)
  ---------------------------------------------------
  alpha Z        PSCENC =         0.15477404
  Ewald energy   TEWEN  =      1354.52000889
  -Hartree energ DENC   =     -2319.50448186
  -exchange      EXHF   =         0.00000000
  -V(xc)+E(xc)   XCENC  =        78.36855602
  PAW double counting   =      9447.11764345    -9442.23987952
  entropy T*S    EENTRO =        -0.00000000
  eigenvalues    EBANDS =      -324.50357454
  atomic energy  EATOM  =      1159.76032224
  ---------------------------------------------------
  free energy    TOTEN  =       -46.32663127 eV

  energy without entropy =      -46.32663127  energy(sigma->0) =      -46.32663127


--------------------------------------------------------------------------------------------------------




--------------------------------------- Iteration      1(  17)  ---------------------------------------


    POTLOK:  cpu time      0.4807: real time      0.4813
    SETDIJ:  cpu time      0.0040: real time      0.0040
    TRIAL :  cpu time      2.5387: real time      2.5400
    CORREC:  cpu time      2.5585: real time      2.5597
    CHARGE:  cpu time      1.3863: real time      1.3867
    --------------------------------------------
      LOOP:  cpu time      6.9841: real time      7.0064

 eigenvalue-minimisations  :     0
 total energy-change (2. order) :-0.6703802E-04  (-0.1784018E-04)
 number of electron      24.0000000 magnetization 
 augmentation part        0.0314823 magnetization 

 Free energy of the ion-electron system (eV)
  ---------------------------------------------------
  alpha Z        PSCENC =         0.15477404
  Ewald energy   TEWEN  =      1354.52000889
  -Hartree energ DENC   =     -2319.52529399
  -exchange      EXHF   =         0.00000000
  -V(xc)+E(xc)   XCENC  =        78.36952056
  PAW double counting   =      9443.80913585    -9438.93139111
  entropy T*S    EENTRO =        -0.00000000
  eigenvalues    EBANDS =      -324.48377479
  atomic energy  EATOM  =      1159.76032224
  ---------------------------------------------------
  free energy    TOTEN  =       -46.32669831 eV

  energy without entropy =      -46.32669831  energy(sigma->0) =      -46.32669831


--------------------------------------------------------------------------------------------------------




--------------------------------------- Iteration      1(  18)  ---------------------------------------


    POTLOK:  cpu time      0.4826: real time      0.4829
    SETDIJ:  cpu time      0.0039: real time      0.0039
    TRIAL :  cpu time      2.5424: real time      2.5436
    CORREC:  cpu time      2.5683: real time      2.5695
    CHARGE:  cpu time      1.3713: real time      1.3718
    --------------------------------------------
      LOOP:  cpu time      6.9980: real time      7.0013

 eigenvalue-minimisations  :     0
 total energy-change (2. order) :-0.1857809E-04  (-0.5445457E-05)
 number of electron      24.0000000 magnetization 
 augmentation part        0.0314962 magnetization 

 Free energy of the ion-electron system (eV)
  ---------------------------------------------------
  alpha Z        PSCENC =         0.15477404
  Ewald energy   TEWEN  =      1354.52000889
  -Hartree energ DENC   =     -2319.53289711
  -exchange      EXHF   =         0.00000000
  -V(xc)+E(xc)   XCENC  =        78.36986675
  PAW double counting   =      9443.86947350    -9438.99187683
  entropy T*S    EENTRO =        -0.00000000
  eigenvalues    EBANDS =      -324.47638836
  atomic energy  EATOM  =      1159.76032224
  ---------------------------------------------------
  free energy    TOTEN  =       -46.32671689 eV

  energy without entropy =      -46.32671689  energy(sigma->0) =      -46.32671689


--------------------------------------------------------------------------------------------------------




--------------------------------------- Iteration      1(  19)  ---------------------------------------


    POTLOK:  cpu time      0.4774: real time      0.4777
    SETDIJ:  cpu time      0.0039: real time      0.0039
    TRIAL :  cpu time      2.5480: real time      2.5493
    CORREC:  cpu time      2.5555: real time      2.5566
    CHARGE:  cpu time      1.3780: real time      1.3784
    --------------------------------------------
      LOOP:  cpu time      6.9755: real time      6.9963

 eigenvalue-minimisations  :     0
 total energy-change (2. order) :-0.5428459E-05  (-0.2292659E-05)
 number of electron      24.0000000 magnetization 
 augmentation part        0.0315021 magnetization 

 Free energy of the ion-electron system (eV)
  ---------------------------------------------------
  alpha Z        PSCENC =         0.15477404
  Ewald energy   TEWEN  =      1354.52000889
  -Hartree energ DENC   =     -2319.51978613
  -exchange      EXHF   =         0.00000000
  -V(xc)+E(xc)   XCENC  =        78.36927978
  PAW double counting   =      9445.48907087    -9440.61141516
  entropy T*S    EENTRO =        -0.00000000
  eigenvalues    EBANDS =      -324.48897685
  atomic energy  EATOM  =      1159.76032224
  ---------------------------------------------------
  free energy    TOTEN  =       -46.32672232 eV

  energy without entropy =      -46.32672232  energy(sigma->0) =      -46.32672232


--------------------------------------------------------------------------------------------------------




--------------------------------------- Iteration      1(  20)  ---------------------------------------


    POTLOK:  cpu time      0.4822: real time      0.4827
    SETDIJ:  cpu time      0.0039: real time      0.0039
    TRIAL :  cpu time      2.5488: real time      2.5501
    CORREC:  cpu time      2.5796: real time      2.5809
    CHARGE:  cpu time      1.3673: real time      1.3676
    --------------------------------------------
      LOOP:  cpu time      6.9978: real time      7.0307

 eigenvalue-minimisations  :     0
 total energy-change (2. order) :-0.2192941E-05  (-0.1511943E-05)
 number of electron      24.0000000 magnetization 
 augmentation part        0.0315126 magnetization 

 Free energy of the ion-electron system (eV)
  ---------------------------------------------------
  alpha Z        PSCENC =         0.15477404
  Ewald energy   TEWEN  =      1354.52000889
  -Hartree energ DENC   =     -2319.50983937
  -exchange      EXHF   =         0.00000000
  -V(xc)+E(xc)   XCENC  =        78.36881552
  PAW double counting   =      9447.22333749    -9442.34564028
  entropy T*S    EENTRO =        -0.00000000
  eigenvalues    EBANDS =      -324.49850303
  atomic energy  EATOM  =      1159.76032224
  ---------------------------------------------------
  free energy    TOTEN  =       -46.32672451 eV

  energy without entropy =      -46.32672451  energy(sigma->0) =      -46.32672451


--------------------------------------------------------------------------------------------------------




--------------------------------------- Iteration      1(  21)  ---------------------------------------


    POTLOK:  cpu time      0.4806: real time      0.4810
    SETDIJ:  cpu time      0.0039: real time      0.0039
    TRIAL :  cpu time      2.5436: real time      2.5448
    CORREC:  cpu time      2.5621: real time      2.5633
    CHARGE:  cpu time      1.3755: real time      1.3759
    --------------------------------------------
      LOOP:  cpu time      6.9962: real time      6.9996

 eigenvalue-minimisations  :     0
 total energy-change (2. order) :-0.1564735E-05  (-0.1761247E-06)
 number of electron      24.0000000 magnetization 
 augmentation part        0.0315164 magnetization 

 Free energy of the ion-electron system (eV)
  ---------------------------------------------------
  alpha Z        PSCENC =         0.15477404
  Ewald energy   TEWEN  =      1354.52000889
  -Hartree energ DENC   =     -2319.50569492
  -exchange      EXHF   =         0.00000000
  -V(xc)+E(xc)   XCENC  =        78.36878521
  PAW double counting   =      9449.14678539    -9444.26912002
  entropy T*S    EENTRO =        -0.00000000
  eigenvalues    EBANDS =      -324.50258690
  atomic energy  EATOM  =      1159.76032224
  ---------------------------------------------------
  free energy    TOTEN  =       -46.32672607 eV

  energy without entropy =      -46.32672607  energy(sigma->0) =      -46.32672607


--------------------------------------------------------------------------------------------------------




--------------------------------------- Iteration      1(  22)  ---------------------------------------


    POTLOK:  cpu time      0.4822: real time      0.4826
    SETDIJ:  cpu time      0.0039: real time      0.0039
    TRIAL :  cpu time      2.5396: real time      2.5409
    CORREC:  cpu time      2.5562: real time      2.5575
    CHARGE:  cpu time      1.3755: real time      1.3759
    --------------------------------------------
      LOOP:  cpu time      6.9868: real time      6.9903

 eigenvalue-minimisations  :     0
 total energy-change (2. order) :-0.3171808E-06  (-0.2191069E-06)
 number of electron      24.0000000 magnetization 
 augmentation part        0.0315204 magnetization 

 Free energy of the ion-electron system (eV)
  ---------------------------------------------------
  alpha Z        PSCENC =         0.15477404
  Ewald energy   TEWEN  =      1354.52000889
  -Hartree energ DENC   =     -2319.50495649
  -exchange      EXHF   =         0.00000000
  -V(xc)+E(xc)   XCENC  =        78.36871924
  PAW double counting   =      9449.53537733    -9444.65772929
  entropy T*S    EENTRO =        -0.00000000
  eigenvalues    EBANDS =      -324.50324234
  atomic energy  EATOM  =      1159.76032224
  ---------------------------------------------------
  free energy    TOTEN  =       -46.32672639 eV

  energy without entropy =      -46.32672639  energy(sigma->0) =      -46.32672639


--------------------------------------------------------------------------------------------------------




--------------------------------------- Iteration      1(  23)  ---------------------------------------


    POTLOK:  cpu time      0.4789: real time      0.4792
    SETDIJ:  cpu time      0.0039: real time      0.0039
    TRIAL :  cpu time      2.5392: real time      2.5405
    CORREC:  cpu time      2.5728: real time      2.5740
    CHARGE:  cpu time      1.3728: real time      1.3731
    --------------------------------------------
      LOOP:  cpu time      6.9820: real time      7.0018

 eigenvalue-minimisations  :     0
 total energy-change (2. order) : 0.3787936E-06  (-0.1757581E-06)
 number of electron      24.0000000 magnetization 
 augmentation part        0.0315242 magnetization 

 Free energy of the ion-electron system (eV)
  ---------------------------------------------------
  alpha Z        PSCENC =         0.15477404
  Ewald energy   TEWEN  =      1354.52000889
  -Hartree energ DENC   =     -2319.50428439
  -exchange      EXHF   =         0.00000000
  -V(xc)+E(xc)   XCENC  =        78.36867590
  PAW double counting   =      9449.70301561    -9444.82538524
  entropy T*S    EENTRO =        -0.00000000
  eigenvalues    EBANDS =      -324.50385306
  atomic energy  EATOM  =      1159.76032224
  ---------------------------------------------------
  free energy    TOTEN  =       -46.32672601 eV

  energy without entropy =      -46.32672601  energy(sigma->0) =      -46.32672601


--------------------------------------------------------------------------------------------------------




--------------------------------------- Iteration      1(  24)  ---------------------------------------


    POTLOK:  cpu time      0.4797: real time      0.4800
    SETDIJ:  cpu time      0.0039: real time      0.0039
    TRIAL :  cpu time      2.5460: real time      2.5470
    CORREC:  cpu time      2.4589: real time      2.4601
    CHARGE:  cpu time      1.3768: real time      1.3771
    --------------------------------------------
      LOOP:  cpu time      6.8788: real time      6.8991

 eigenvalue-minimisations  :     0
 total energy-change (2. order) :-0.1842945E-06  ( 0.1743028E-05)
 number of electron      24.0000000 magnetization 
 augmentation part        0.0315290 magnetization 

 Free energy of the ion-electron system (eV)
  ---------------------------------------------------
  alpha Z        PSCENC =         0.15477404
  Ewald energy   TEWEN  =      1354.52000889
  -Hartree energ DENC   =     -2319.50334884
  -exchange      EXHF   =         0.00000000
  -V(xc)+E(xc)   XCENC  =        78.36860438
  PAW double counting   =      9449.68900445    -9444.81138857
  entropy T*S    EENTRO =        -0.00000000
  eigenvalues    EBANDS =      -324.50470278
  atomic energy  EATOM  =      1159.76032224
  ---------------------------------------------------
  free energy    TOTEN  =       -46.32672620 eV

  energy without entropy =      -46.32672620  energy(sigma->0) =      -46.32672620


--------------------------------------------------------------------------------------------------------




--------------------------------------- Iteration      1(  25)  ---------------------------------------


    POTLOK:  cpu time      0.4794: real time      0.4797
    SETDIJ:  cpu time      0.0039: real time      0.0039
    TRIAL :  cpu time      2.5519: real time      2.5533
    CORREC:  cpu time      2.5663: real time      2.5675
    CHARGE:  cpu time      1.3759: real time      1.3761
    --------------------------------------------
      LOOP:  cpu time      6.9906: real time      7.0111

 eigenvalue-minimisations  :     0
 total energy-change (2. order) :-0.4124249E-06  (-0.2637975E-06)
 number of electron      24.0000000 magnetization 
 augmentation part        0.0315286 magnetization 

 Free energy of the ion-electron system (eV)
  ---------------------------------------------------
  alpha Z        PSCENC =         0.15477404
  Ewald energy   TEWEN  =      1354.52000889
  -Hartree energ DENC   =     -2319.50218071
  -exchange      EXHF   =         0.00000000
  -V(xc)+E(xc)   XCENC  =        78.36862758
  PAW double counting   =      9449.42280465    -9444.54520418
  entropy T*S    EENTRO =        -0.00000000
  eigenvalues    EBANDS =      -324.50587912
  atomic energy  EATOM  =      1159.76032224
  ---------------------------------------------------
  free energy    TOTEN  =       -46.32672661 eV

  energy without entropy =      -46.32672661  energy(sigma->0) =      -46.32672661


--------------------------------------------------------------------------------------------------------




--------------------------------------- Iteration      1(  26)  ---------------------------------------


    POTLOK:  cpu time      0.4837: real time      0.4840
    SETDIJ:  cpu time      0.0039: real time      0.0039
    TRIAL :  cpu time      2.5419: real time      2.5429
    CORREC:  cpu time      2.5668: real time      2.5680
    EDDIAG:  cpu time      1.0920: real time      1.0928
    CHARGE:  cpu time      1.3830: real time      1.3834
    --------------------------------------------
      LOOP:  cpu time      8.1011: real time      8.1050

 eigenvalue-minimisations  :     0
 total energy-change (2. order) : 0.4139474E-07  (-0.3733674E-07)
 number of electron      24.0000000 magnetization 
 augmentation part        0.0315282 magnetization 

 Free energy of the ion-electron system (eV)
  ---------------------------------------------------
  alpha Z        PSCENC =         0.15477404
  Ewald energy   TEWEN  =      1354.52000889
  -Hartree energ DENC   =     -2319.50350205
  -exchange      EXHF   =         0.00000000
  -V(xc)+E(xc)   XCENC  =        78.36860992
  PAW double counting   =      9449.31390291    -9444.43630681
  entropy T*S    EENTRO =        -0.00000000
  eigenvalues    EBANDS =      -324.50453571
  atomic energy  EATOM  =      1159.76032224
  ---------------------------------------------------
  free energy    TOTEN  =       -46.32672657 eV

  energy without entropy =      -46.32672657  energy(sigma->0) =      -46.32672657


--------------------------------------------------------------------------------------------------------


  average scaling for gradient   1.5694


 average (electrostatic) potential at core
  the test charge radii are     0.5770  0.4325  0.5902  0.5955
  (the norm of the test charge is              1.0000)
       1 -89.5781       2 -48.0120       3 -47.7664       4 -48.0134       5 -47.7698
       6-104.4208       7-104.4217       8-118.4592



 E-fermi :  -5.8015     XC(G=0):  -0.1083     alpha+bet : -0.0451

 Fermi energy:        -5.8014870478

 k-point     1 :       0.0000    0.0000    0.0000
  band No.  band energies     occupation 
      1     -25.8313      2.00000
      2     -22.7362      2.00000
      3     -21.7607      2.00000
      4     -15.0175      2.00000
      5     -13.4371      2.00000
      6     -13.1179      2.00000
      7     -11.3904      2.00000
      8     -10.1952      2.00000
      9      -9.8245      2.00000
     10      -6.5620      2.00000
     11      -6.5154      2.00000
     12      -5.8637      2.00000
     13      -0.9505      0.00000
     14      -0.3227      0.00000
     15       0.0585      0.00000
     16       0.0776      0.00000
     17       0.1958      0.00000
     18       0.3225      0.00000
     19       0.3325      0.00000
     20       0.3377      0.00000
     21       0.4131      0.00000
     22       0.4164      0.00000
     23       0.4695      0.00000
     24       0.5887      0.00000
     25       0.6038      0.00000
     26       0.6089      0.00000
     27       0.6239      0.00000
     28       0.6435      0.00000
     29       0.6451      0.00000
     30       0.6491      0.00000
     31       0.6596      0.00000
     32       0.6667      0.00000
     33       0.7771      0.00000
     34       0.7972      0.00000
     35       0.8613      0.00000
     36       0.8880      0.00000
     37       0.9099      0.00000
     38       0.9185      0.00000
     39       0.9426      0.00000
     40       0.9619      0.00000
     41       0.9906      0.00000
     42       1.0647      0.00000
     43       1.0979      0.00000
     44       1.1320      0.00000
     45       1.1953      0.00000
     46       1.1982      0.00000
     47       1.2980      0.00000
     48       1.3298      0.00000
     49       1.3559      0.00000
     50       1.3740      0.00000
     51       1.4064      0.00000
     52       1.4155      0.00000
     53       1.4412      0.00000
     54       1.4840      0.00000
     55       1.5045      0.00000
     56       1.5355      0.00000
     57       1.5481      0.00000
     58       1.5512      0.00000
     59       1.5553      0.00000
     60       1.5677      0.00000
     61       1.5683      0.00000
     62       1.5750      0.00000
     63       1.5764      0.00000
     64       1.5793      0.00000
     65       1.5841      0.00000
     66       1.5854      0.00000
     67       1.5881      0.00000
     68       1.5947      0.00000
     69       1.5974      0.00000
     70       1.6020      0.00000
     71       1.6950      0.00000
     72       1.7303      0.00000
     73       1.7453      0.00000
     74       1.7578      0.00000
     75       1.7705      0.00000
     76       1.7812      0.00000
     77       1.8017      0.00000
     78       1.8062      0.00000
     79       1.8351      0.00000
     80       1.8414      0.00000
     81       1.8643      0.00000
     82       1.8713      0.00000
     83       1.8736      0.00000
     84       1.8829      0.00000
     85       1.8858      0.00000
     86       1.8867      0.00000
     87       1.8871      0.00000
     88       1.8904      0.00000
     89       1.8923      0.00000
     90       1.8977      0.00000
     91       1.9011      0.00000
     92       1.9032      0.00000
     93       1.9037      0.00000
     94       1.9115      0.00000
     95       2.1057      0.00000
     96       2.1362      0.00000
     97       2.1994      0.00000
     98       2.3286      0.00000
     99       2.3609      0.00000
    100       2.3654      0.00000
    101       2.3686      0.00000
    102       2.4440      0.00000
    103       2.4490      0.00000
    104       2.4550      0.00000
    105       2.4589      0.00000
    106       2.4882      0.00000
    107       2.5341      0.00000
    108       2.5570      0.00000
    109       2.5794      0.00000
    110       2.6149      0.00000
    111       2.6296      0.00000
    112       2.6526      0.00000
    113       2.6543      0.00000
    114       2.6825      0.00000
    115       2.7108      0.00000
    116       2.7215      0.00000
    117       2.7282      0.00000
    118       2.7592      0.00000
    119       2.7702      0.00000
    120       2.7856      0.00000
    121       2.7879      0.00000
    122       2.7897      0.00000
    123       2.8050      0.00000
    124       2.8057      0.00000
    125       2.8095      0.00000
    126       2.8146      0.00000
    127       2.8164      0.00000
    128       2.8174      0.00000
    129       2.8213      0.00000
    130       2.8221      0.00000
    131       2.8248      0.00000
    132       2.8284      0.00000
    133       2.8317      0.00000
    134       2.8347      0.00000
    135       2.8352      0.00000
    136       2.8360      0.00000
    137       2.9082      0.00000
    138       2.9131      0.00000
    139       2.9674      0.00000
    140       2.9693      0.00000
    141       3.0115      0.00000
    142       3.0303      0.00000
    143       3.0497      0.00000
    144       3.0644      0.00000
    145       3.0659      0.00000
    146       3.0758      0.00000
    147       3.0801      0.00000
    148       3.0871      0.00000
    149       3.0998      0.00000
    150       3.1053      0.00000
    151       3.1113      0.00000
    152       3.1145      0.00000
    153       3.1242      0.00000
    154       3.1252      0.00000
    155       3.1322      0.00000
    156       3.1330      0.00000
    157       3.1382      0.00000
    158       3.1394      0.00000
    159       3.1424      0.00000
    160       3.1460      0.00000
    161       3.2368      0.00000
    162       3.2499      0.00000
    163       3.2662      0.00000
    164       3.3244      0.00000
    165       3.3289      0.00000
    166       3.3456      0.00000
    167       3.3471      0.00000
    168       3.3656      0.00000
    169       3.3752      0.00000
    170       3.3821      0.00000
    171       3.3917      0.00000
    172       3.3938      0.00000
    173       3.4028      0.00000
    174       3.4088      0.00000
    175       3.4120      0.00000
    176       3.4200      0.00000
    177       3.4207      0.00000
    178       3.4308      0.00000
    179       3.4347      0.00000
    180       3.4357      0.00000
    181       3.4423      0.00000
    182       3.4449      0.00000
    183       3.4453      0.00000
    184       3.4485      0.00000
    185       3.5520      0.00000
    186       3.5696      0.00000
    187       3.5838      0.00000
    188       3.6462      0.00000
    189       3.6651      0.00000
    190       3.6809      0.00000
    191       3.6978      0.00000
    192       3.7143      0.00000
    193       3.7431      0.00000
    194       3.7554      0.00000
    195       3.7924      0.00000
    196       3.8331      0.00000
    197       3.8565      0.00000
    198       3.8778      0.00000
    199       3.9012      0.00000
    200       3.9053      0.00000
    201       3.9216      0.00000
    202       3.9750      0.00000
    203       3.9911      0.00000
    204       3.9986      0.00000
    205       4.0273      0.00000
    206       4.0342      0.00000
    207       4.0361      0.00000
    208       4.0398      0.00000
    209       4.0460      0.00000
    210       4.0501      0.00000
    211       4.0563      0.00000
    212       4.0578      0.00000
    213       4.0620      0.00000
    214       4.0635      0.00000
    215       4.0668      0.00000
    216       4.0728      0.00000
    217       4.1098      0.00000
    218       4.1373      0.00000
    219       4.1568      0.00000
    220       4.1697      0.00000
    221       4.1985      0.00000
    222       4.2056      0.00000
    223       4.2152      0.00000
    224       4.2238      0.00000
    225       4.2422      0.00000
    226       4.2592      0.00000
    227       4.2753      0.00000
    228       4.2874      0.00000
    229       4.2936      0.00000
    230       4.3078      0.00000
    231       4.3112      0.00000
    232       4.3191      0.00000
    233       4.3265      0.00000
    234       4.3293      0.00000
    235       4.3351      0.00000
    236       4.3401      0.00000
    237       4.3490      0.00000
    238       4.3537      0.00000
    239       4.3554      0.00000
    240       4.3588      0.00000
    241       4.3611      0.00000
    242       4.3671      0.00000
    243       4.3709      0.00000
    244       4.3724      0.00000
    245       4.3735      0.00000
    246       4.3779      0.00000
    247       4.3795      0.00000
    248       4.3806      0.00000
    249       4.3809      0.00000
    250       4.3852      0.00000
    251       4.3914      0.00000
    252       4.3915      0.00000
    253       4.3948      0.00000
    254       4.4060      0.00000
    255       4.4393      0.00000
    256       4.5327      0.00000


--------------------------------------------------------------------------------------------------------


 soft charge-density along one line, spin component           1
         0         1         2         3         4         5         6         7         8         9
 total charge-density along one line

 pseudopotential strength for first ion, spin component:           1
 12.787  21.520  -0.006  -0.000  -0.003  -0.011  -0.000  -0.006
 21.520  36.219  -0.010  -0.000  -0.006  -0.018  -0.000  -0.010
 -0.006  -0.010  -3.316   0.000  -0.000  -5.947   0.000  -0.000
 -0.000  -0.000   0.000  -3.316  -0.000   0.000  -5.947  -0.000
 -0.003  -0.006  -0.000  -0.000  -3.316  -0.000  -0.000  -5.947
 -0.011  -0.018  -5.947   0.000  -0.000 -10.644   0.000  -0.001
 -0.000  -0.000   0.000  -5.947  -0.000   0.000 -10.643  -0.001
 -0.006  -0.010  -0.000  -0.000  -5.947  -0.001  -0.001 -10.643
 total augmentation occupancy for first ion, spin component:           1
  7.311  -2.648   1.271  -0.000   0.732  -0.599   0.000  -0.345
 -2.648   1.071  -0.606   0.000  -0.349   0.294  -0.000   0.169
  1.271  -0.606   7.888  -0.439   1.167  -2.808   0.182  -0.509
 -0.000   0.000  -0.439   2.751   0.758   0.182  -0.691  -0.314
  0.732  -0.349   1.167   0.758   6.526  -0.509  -0.314  -2.214
 -0.599   0.294  -2.808   0.182  -0.509   1.042  -0.071   0.224
  0.000  -0.000   0.182  -0.691  -0.314  -0.071   0.179   0.122
 -0.345   0.169  -0.509  -0.314  -2.214   0.224   0.122   0.781


------------------------ aborting loop because EDIFF is reached ----------------------------------------


    FORLOC:  cpu time      0.0188: real time      0.0188
    FORNL :  cpu time      0.2206: real time      0.2218
    FORCOR:  cpu time      0.3147: real time      0.3148
    OFIELD:  cpu time      0.0045: real time      0.0045
 WARNING: Using user supplied parameters
     VDW_S8 = 1.682
     VDW_SR = 1.094
     because the xc functional is not supported. Required parameters not
     defined in the INCAR file will be replaced with PBE defaults ones.


 ---------------------------------------------------------------------------------------------

         DFTD3 V3.0 Rev 1        
 IVDW         = 11
 DF unknown   
 parameters
 VDW_S6       =    1.0000
 VDW_S8       =    1.6820
 VDW_SR       =    1.0940
 rs18     =    1.0000
 alpha6   =   14.0000
 alpha8   =   16.0000
 k1-k3    =   16.0000    1.3333   -4.0000
 VDW_RADIUS   =   50.2022 A
 VDW_CNRADIUS =   21.1671 A
 Edisp (eV)   -0.09925

 E6    (eV) :    -0.0303
 E8    (eV) :    -0.0690
 % E8        : 69.49
    FORVDW:  cpu time      0.0762: real time      0.0788

 VOLUME and BASIS-vectors are now :
 -----------------------------------------------------------------------------
  energy-cutoff  :     1000.00
  volume of cell :    10648.00
      direct lattice vectors                 reciprocal lattice vectors
    22.000000000  0.000000000  0.000000000     0.045454545  0.000000000  0.000000000
     0.000000000 22.000000000  0.000000000     0.000000000  0.045454545  0.000000000
     0.000000000  0.000000000 22.000000000     0.000000000  0.000000000  0.045454545

  length of vectors
    22.000000000 22.000000000 22.000000000     0.045454545  0.045454545  0.045454545


 FORCES acting on ions:
    Electron-Ion                     Ewald-Force                    Non-Local-Force
 -----------------------------------------------------------------------------------------------
   0.241E+02 0.418E+02 0.161E-01   -.220E+02 -.381E+02 -.124E-01   -.220E+01 -.385E+01 0.221E-03
   0.664E+02 0.590E+02 -.273E+02   -.705E+02 -.646E+02 0.303E+02   0.403E+01 0.558E+01 -.297E+01
   0.622E+02 -.699E+02 0.727E+01   -.657E+02 0.767E+02 -.749E+01   0.349E+01 -.676E+01 0.215E+00
   0.178E+02 0.873E+02 0.268E+02   -.206E+02 -.936E+02 -.297E+02   0.282E+01 0.631E+01 0.292E+01
   -.917E+02 0.186E+02 -.705E+01   0.994E+02 -.182E+02 0.725E+01   -.760E+01 -.384E+00 -.194E+00
   0.214E+03 0.150E+02 0.738E+02   -.214E+03 -.184E+02 -.904E+02   -.228E+00 0.342E+01 0.168E+02
   -.950E+02 0.192E+03 -.738E+02   0.922E+02 -.194E+03 0.903E+02   0.296E+01 0.143E+01 -.167E+02
   -.174E+03 -.303E+03 0.209E+00   0.201E+03 0.350E+03 -.228E+00   -.267E+02 -.465E+02 0.142E-01
 -----------------------------------------------------------------------------------------------
   0.234E+02 0.407E+02 -.104E+00   -.284E-13 0.000E+00 0.711E-14   -.234E+02 -.407E+02 0.104E+00


 POSITION                                       TOTAL-FORCE (eV/Angst)
 -----------------------------------------------------------------------------------
     11.13769     11.49895     11.00094         0.007403      0.003567      0.003986
      9.24993     10.65093     11.11422        -0.044670     -0.016884     -0.001360
      9.31407     12.30128     10.68780        -0.039161      0.019010     -0.007652
     11.35317      9.44028     10.89551         0.010419     -0.052553     -0.003877
     12.75007     10.32741     11.31220         0.038403     -0.025088      0.009459
      9.78540     11.40471     10.69863        -0.295865      0.004140     -0.060588
     11.73819     10.28413     11.30402         0.144002     -0.248563      0.064702
     11.74707     12.55972     11.00028         0.179470      0.316371     -0.004669
 -----------------------------------------------------------------------------------
    total drift:                                0.000394      0.000575     -0.000015


--------------------------------------------------------------------------------------------------------



  FREE ENERGIE OF THE ION-ELECTRON SYSTEM (eV)
  ---------------------------------------------------
  free  energy   TOTEN  =       -46.42597564 eV

  energy  without entropy=      -46.42597564  energy(sigma->0) =      -46.42597564



--------------------------------------------------------------------------------------------------------


    POTLOK:  cpu time      0.5067: real time      0.5070


--------------------------------------------------------------------------------------------------------


 stress matrix after NEB project (eV)
      0.06154     -0.01330      0.00874
     -0.01330      0.04597     -0.00502
      0.00874     -0.00502      0.00294
  FORCES: max atom, RMS     0.363761    0.199891
  FORCE total and by dimension    0.565377    0.316371
  Stress total and by dimension    0.080408    0.061540
     LOOP+:  cpu time    196.2735: real time    196.7183
    4ORBIT:  cpu time      0.0000: real time      0.0000

 total amount of memory used by VASP MPI-rank0   557982. kBytes
=======================================================================

   base      :      30000. kBytes
   nonl-proj :      73433. kBytes
   fftplans  :     151777. kBytes
   grid      :     293583. kBytes
   one-center:          6. kBytes
   wavefun   :       9183. kBytes

  
  
 General timing and accounting informations for this job:
 ========================================================
  
                  Total CPU time used (sec):      264.590
                            User time (sec):      230.526
                          System time (sec):       34.064
                         Elapsed time (sec):      284.156
  
                   Maximum memory used (kb):      825236.
                   Average memory used (kb):          N/A
  
                          Minor page faults:      1387823
                          Major page faults:         1180
                 Voluntary context switches:        12416
