 vasp.6.4.1 05Apr23 (build Jun  6 2023 14:46:38) gamma-only                      
 executed on        HPECrayEX_GCC date 2024.08.22  11:38:21
 running  512 mpi-ranks, with    1 threads/rank, on    4 nodes
 distrk:  each k-point on  256 cores,    2 groups
 distr:  one band on NCORE=  32 cores,    8 groups


--------------------------------------------------------------------------------------------------------


 INCAR:
   ALGO = Conjugate
   KPAR = 2
   NCORE = 32
   ISMEAR = 0
   SIGMA = 0.01
   PREC = Accurate
   EDIFF = 1E-7
   ENCUT = 1000
   ISIF = 0
   METAGGA = R2SCAN
   LASPH = .TRUE.
   SYMPREC = 1E-7
   LWAVE = .FALSE.
   LCHARG = .FALSE.
   LWAVE = .FALSE.
   LCHARG = .FALSE.

 POTCAR:    PAW_PBE C_h 06Feb2004                 
 POTCAR:    PAW_PBE H_h 06Feb2004                 
 POTCAR:    PAW_PBE N_h 06Feb2004                 
 POTCAR:    PAW_PBE O_h 06Feb2004                 
 POTCAR:    PAW_PBE C_h 06Feb2004                 
   VRHFIN =C: s2p2                                                                                  
   LEXCH  = PE                                                                                      
   EATOM  =   147.1560 eV,   10.8157 Ry                                                             
                                                                                                    
   TITEL  = PAW_PBE C_h 06Feb2004                                                                   
   LULTRA =        F    use ultrasoft PP ?                                                          
   IUNSCR =        1    unscreen: 0-lin 1-nonlin 2-no                                               
   RPACOR =    0.800    partial core radius                                                         
   POMASS =   12.011; ZVAL   =    4.000    mass and valenz                                          
   RCORE  =    1.100    outmost cutoff radius                                                       
   RWIGS  =    1.630; RWIGS  =    0.863    wigner-seitz radius (au A)                               
   ENMAX  =  700.000; ENMIN  =  500.000 eV                                                          
   ICORE  =        2    local potential                                                             
   LCOR   =        T    correct aug charges                                                         
   LPAW   =        T    paw PP                                                                      
   EAUG   =  946.768                                                                                
   DEXC   =    0.000                                                                                
   RMAX   =    1.128    core radius for proj-oper                                                   
   RAUG   =    1.300    factor for augmentation sphere                                              
   RDEP   =    1.162    radius for radial grids                                                     
   RDEPT  =    1.088    core radius for aug-charge                                                  
                                                                                                    
   Atomic configuration                                                                             
    4 entries                                                                                       
     n  l   j            E        occ.                                                              
     1  0  0.50      -273.3789   2.0000                                                             
     2  0  0.50       -13.7508   2.0000                                                             
     2  1  0.50        -5.2854   2.0000                                                             
     3  2  1.50        -5.4423   0.0000                                                             
   Description                                                                                      
     l       E           TYP  RCUT    TYP  RCUT                                                     
     0    -13.7508458     23  1.100                                                                 
     0     -8.2022199     23  1.100                                                                 
     1     -5.2854383     23  1.100                                                                 
     1      1.1560700     23  1.100                                                                 
     2     -5.4423304      7  1.100                                                                 
  local pseudopotential read in
  partial core-charges read in
  partial kinetic energy density read in
  atomic valenz-charges read in
  non local Contribution for L=           0  read in
    real space projection operators read in
  non local Contribution for L=           0  read in
    real space projection operators read in
  non local Contribution for L=           1  read in
    real space projection operators read in
  non local Contribution for L=           1  read in
    real space projection operators read in
    PAW grid and wavefunctions read in

   number of l-projection  operators is LMAX  =           4
   number of lm-projection operators is LMMAX =           8

 POTCAR:    PAW_PBE H_h 06Feb2004                 
   VRHFIN =H: ultrasoft test                                                                        
   LEXCH  = PE                                                                                      
   EATOM  =    12.4884 eV,    0.9179 Ry                                                             
                                                                                                    
   TITEL  = PAW_PBE H_h 06Feb2004                                                                   
   LULTRA =        F    use ultrasoft PP ?                                                          
   IUNSCR =        0    unscreen: 0-lin 1-nonlin 2-no                                               
   RPACOR =    0.000    partial core radius                                                         
   POMASS =    1.000; ZVAL   =    1.000    mass and valenz                                          
   RCORE  =    0.800    outmost cutoff radius                                                       
   RWIGS  =    0.700; RWIGS  =    0.370    wigner-seitz radius (au A)                               
   ENMAX  =  700.000; ENMIN  =  350.000 eV                                                          
   RCLOC  =    0.701    cutoff for local pot                                                        
   LCOR   =        T    correct aug charges                                                         
   LPAW   =        T    paw PP                                                                      
   EAUG   = 1000.000                                                                                
   RMAX   =    0.819    core radius for proj-oper                                                   
   RAUG   =    1.000    factor for augmentation sphere                                              
   RDEP   =    0.817    radius for radial grids                                                     
   RDEPT  =    0.817    core radius for aug-charge                                                  
                                                                                                    
   Atomic configuration                                                                             
    2 entries                                                                                       
     n  l   j            E        occ.                                                              
     1  0  0.50        -6.4927   1.0000                                                             
     2  1  0.50        -3.4015   0.0000                                                             
   Description                                                                                      
     l       E           TYP  RCUT    TYP  RCUT                                                     
     0     -6.4927493     23  0.800                                                                 
     0      6.8029130     23  0.800                                                                 
     1     -6.8029130     23  0.800                                                                 
  local pseudopotential read in
  atomic valenz-charges read in
  non local Contribution for L=           0  read in
    real space projection operators read in
  non local Contribution for L=           0  read in
    real space projection operators read in
  non local Contribution for L=           1  read in
    real space projection operators read in
    PAW grid and wavefunctions read in

   number of l-projection  operators is LMAX  =           3
   number of lm-projection operators is LMMAX =           5

 POTCAR:    PAW_PBE N_h 06Feb2004                 
   VRHFIN =N: s2p3                                                                                  
   LEXCH  = PE                                                                                      
   EATOM  =   264.5486 eV,   19.4438 Ry                                                             
                                                                                                    
   TITEL  = PAW_PBE N_h 06Feb2004                                                                   
   LULTRA =        F    use ultrasoft PP ?                                                          
   IUNSCR =        1    unscreen: 0-lin 1-nonlin 2-no                                               
   RPACOR =    0.800    partial core radius                                                         
   POMASS =   14.001; ZVAL   =    5.000    mass and valenz                                          
   RCORE  =    1.100    outmost cutoff radius                                                       
   RWIGS  =    1.480; RWIGS  =    0.783    wigner-seitz radius (au A)                               
   ENMAX  =  700.000; ENMIN  =  500.000 eV                                                          
   ICORE  =        2    local potential                                                             
   LCOR   =        T    correct aug charges                                                         
   LPAW   =        T    paw PP                                                                      
   EAUG   =  904.640                                                                                
   DEXC   =    0.000                                                                                
   RMAX   =    1.127    core radius for proj-oper                                                   
   RAUG   =    1.300    factor for augmentation sphere                                              
   RDEP   =    1.115    radius for radial grids                                                     
   RDEPT  =    1.106    core radius for aug-charge                                                  
                                                                                                    
   Atomic configuration                                                                             
    4 entries                                                                                       
     n  l   j            E        occ.                                                              
     1  0  0.50      -384.7179   2.0000                                                             
     2  0  0.50       -18.5828   2.0000                                                             
     2  1  0.50        -7.0898   3.0000                                                             
     3  2  1.50        -6.8029   0.0000                                                             
   Description                                                                                      
     l       E           TYP  RCUT    TYP  RCUT                                                     
     0    -18.5828117     23  1.100                                                                 
     0    -15.0750597     23  1.100                                                                 
     1     -7.0897851     23  1.100                                                                 
     1     -1.9663412     23  1.100                                                                 
     2     -6.8029130      7  1.100                                                                 
  local pseudopotential read in
  partial core-charges read in
  partial kinetic energy density read in
  kinetic energy density of atom read in
  atomic valenz-charges read in
  non local Contribution for L=           0  read in
    real space projection operators read in
  non local Contribution for L=           0  read in
    real space projection operators read in
  non local Contribution for L=           1  read in
    real space projection operators read in
  non local Contribution for L=           1  read in
    real space projection operators read in
    PAW grid and wavefunctions read in

   number of l-projection  operators is LMAX  =           4
   number of lm-projection operators is LMMAX =           8

 POTCAR:    PAW_PBE O_h 06Feb2004                 
   VRHFIN =O: s2p4                                                                                  
   LEXCH  = PE                                                                                      
   EATOM  =   432.3788 eV,   31.7789 Ry                                                             
                                                                                                    
   TITEL  = PAW_PBE O_h 06Feb2004                                                                   
   LULTRA =        F    use ultrasoft PP ?                                                          
   IUNSCR =        1    unscreen: 0-lin 1-nonlin 2-no                                               
   RPACOR =    0.800    partial core radius                                                         
   POMASS =   16.000; ZVAL   =    6.000    mass and valenz                                          
   RCORE  =    1.100    outmost cutoff radius                                                       
   RWIGS  =    1.400; RWIGS  =    0.741    wigner-seitz radius (au A)                               
   ENMAX  =  700.000; ENMIN  =  500.000 eV                                                          
   ICORE  =        2    local potential                                                             
   LCOR   =        T    correct aug charges                                                         
   LPAW   =        T    paw PP                                                                      
   EAUG   =  888.804                                                                                
   DEXC   =    0.000                                                                                
   RMAX   =    1.128    core radius for proj-oper                                                   
   RAUG   =    1.300    factor for augmentation sphere                                              
   RDEP   =    1.125    radius for radial grids                                                     
   RDEPT  =    1.088    core radius for aug-charge                                                  
                                                                                                    
   Atomic configuration                                                                             
    4 entries                                                                                       
     n  l   j            E        occ.                                                              
     1  0  0.50      -514.6923   2.0000                                                             
     2  0  0.50       -23.9615   2.0000                                                             
     2  1  0.50        -9.0305   4.0000                                                             
     3  2  1.50        -9.5241   0.0000                                                             
   Description                                                                                      
     l       E           TYP  RCUT    TYP  RCUT                                                     
     0    -23.9615319     23  1.100                                                                 
     0    -25.3221145     23  1.100                                                                 
     1     -9.0304911     23  1.100                                                                 
     1     -5.4802209     23  1.100                                                                 
     2     -9.5240782      7  1.100                                                                 
  local pseudopotential read in
  partial core-charges read in
  partial kinetic energy density read in
  atomic valenz-charges read in
  non local Contribution for L=           0  read in
    real space projection operators read in
  non local Contribution for L=           0  read in
    real space projection operators read in
  non local Contribution for L=           1  read in
    real space projection operators read in
  non local Contribution for L=           1  read in
    real space projection operators read in
    PAW grid and wavefunctions read in

   number of l-projection  operators is LMAX  =           4
   number of lm-projection operators is LMMAX =           8

  PAW_PBE C_h 06Feb2004                 :
 energy of atom  1       EATOM= -147.1560
 kinetic energy error for atom=    0.0031 (will be added to EATOM!!)
  PAW_PBE H_h 06Feb2004                 :
 energy of atom  2       EATOM=  -12.4884
 kinetic energy error for atom=    0.0006 (will be added to EATOM!!)
  PAW_PBE N_h 06Feb2004                 :
 energy of atom  3       EATOM= -264.5486
 kinetic energy error for atom=    0.0081 (will be added to EATOM!!)
  PAW_PBE O_h 06Feb2004                 :
 energy of atom  4       EATOM= -432.3788
 kinetic energy error for atom=    0.0171 (will be added to EATOM!!)


 POSCAR:  C  H  N  O
  positions in cartesian coordinates
  No initial velocities read in

 METAGGA = R2SCAN                                      LMAXTAU =  6    LMIXTAU =  F

 exchange correlation table for  LEXCH =        8
   RHO(1)=    0.500       N(1)  =     2000
   RHO(2)=  100.500       N(2)  =     4000

 VTST: version 4.1, (05/19/21)

 CHAIN: initializing optimizer
 
 OPT: Using VASP Dynamics algorithm
 CHAIN: Read ICHAIN            0

 POSCAR:  C  H  N  O
  positions in cartesian coordinates
  No initial velocities read in



--------------------------------------------------------------------------------------------------------


 ion  position               nearest neighbor table
   1  0.506  0.523  0.500-   8 1.22   7 1.39   6 1.39
   2  0.420  0.484  0.505-   6 1.01
   3  0.423  0.559  0.486-   6 1.01
   4  0.516  0.429  0.495-   7 1.01
   5  0.580  0.469  0.514-   7 1.01
   6  0.445  0.518  0.486-   3 1.01   2 1.01   1 1.39
   7  0.534  0.467  0.514-   5 1.01   4 1.01   1 1.39
   8  0.534  0.571  0.500-   1 1.22

  LATTYP: Found a simple cubic cell.
 ALAT       =    22.0000000000
  
  Lattice vectors:
  
 A1 = (  22.0000000000,   0.0000000000,   0.0000000000)
 A2 = (   0.0000000000,  22.0000000000,   0.0000000000)
 A3 = (   0.0000000000,   0.0000000000,  22.0000000000)


Analysis of symmetry for initial positions (statically):
=====================================================================
 Subroutine PRICEL returns:
 Original cell was already a primitive cell.
 

 Routine SETGRP: Setting up the symmetry group for a 
 simple cubic supercell.


 Subroutine GETGRP returns: Found  1 space group operations
 (whereof  1 operations were pure point group operations)
 out of a pool of 48 trial point group operations.


The static configuration has the point symmetry C_1 .


Analysis of symmetry for dynamics (positions and initial velocities):
=====================================================================
 Subroutine PRICEL returns:
 Original cell was already a primitive cell.
 

 Routine SETGRP: Setting up the symmetry group for a 
 simple cubic supercell.


 Subroutine GETGRP returns: Found  1 space group operations
 (whereof  1 operations were pure point group operations)
 out of a pool of 48 trial point group operations.


The dynamic configuration has the point symmetry C_1 .


 Subroutine INISYM returns: Found  1 space group operations
 (whereof  1 operations are pure point group operations),
 and found     1 'primitive' translations


----------------------------------------------------------------------------------------

                                     Primitive cell                                     

  volume of cell :   10648.0000

  direct lattice vectors                    reciprocal lattice vectors
    22.000000000  0.000000000  0.000000000     0.045454545  0.000000000  0.000000000
     0.000000000 22.000000000  0.000000000     0.000000000  0.045454545  0.000000000
     0.000000000  0.000000000 22.000000000     0.000000000  0.000000000  0.045454545

  length of vectors
    22.000000000 22.000000000 22.000000000     0.045454545  0.045454545  0.045454545

  position of ions in fractional coordinates (direct lattice)
     0.506258636  0.522679545  0.500042727
     0.420451364  0.484133182  0.505191818
     0.423366818  0.559149091  0.485809091
     0.516053182  0.429103636  0.495250455
     0.579548636  0.469427727  0.514190909
     0.444790909  0.518395909  0.486301364
     0.533554091  0.467460455  0.513819091
     0.533957727  0.570896364  0.500012727

  ion indices of the primitive-cell ions
   primitive index   ion index
                 1           1
                 2           2
                 3           3
                 4           4
                 5           5
                 6           6
                 7           7
                 8           8

----------------------------------------------------------------------------------------



 KPOINTS: auto                                    

Automatic generation of k-mesh.
 Grid dimensions read from file:
 generate k-points for:    1    1    1

 Generating k-lattice:

  Cartesian coordinates                     Fractional coordinates (reciprocal lattice)
     0.045454545  0.000000000  0.000000000     1.000000000  0.000000000  0.000000000
     0.000000000  0.045454545  0.000000000     0.000000000  1.000000000  0.000000000
     0.000000000  0.000000000  0.045454545     0.000000000  0.000000000  1.000000000

  Length of vectors
     0.045454545  0.045454545  0.045454545

  Shift w.r.t. Gamma in fractional coordinates (k-lattice)
     0.000000000  0.000000000  0.000000000

 
 Subroutine IBZKPT returns following result:
 ===========================================
 
 Found      1 irreducible k-points:
 
 Following reciprocal coordinates:
            Coordinates               Weight
  0.000000  0.000000  0.000000      1.000000
 
 Following cartesian coordinates:
            Coordinates               Weight
  0.000000  0.000000  0.000000      1.000000
 


--------------------------------------------------------------------------------------------------------




 Dimension of arrays:
   k-points           NKPTS =      1   k-points in BZ     NKDIM =      1   number of bands    NBANDS=     24
   number of dos      NEDOS =    301   number of ions     NIONS =      8
   non local maximal  LDIM  =      4   non local SUM 2l+1 LMDIM =      8
   total plane-waves  NPLWV = ******
   max r-space proj   IRMAX =      1   max aug-charges    IRDMAX=   9667
   dimension x,y,z NGX =   240 NGY =  240 NGZ =  240
   dimension x,y,z NGXF=   480 NGYF=  480 NGZF=  480
   support grid    NGXF=   480 NGYF=  480 NGZF=  480
   ions per type =               1   4   2   1
   NGX,Y,Z   is equivalent  to a cutoff of  18.14, 18.14, 18.14 a.u.
   NGXF,Y,Z  is equivalent  to a cutoff of  36.27, 36.27, 36.27 a.u.

 SYSTEM =  unknown system                          
 POSCAR =   C  H  N  O                             

 Startparameter for this run:
   NWRITE =      2    write-flag & timer
   PREC   = accura    normal or accurate (medium, high low for compatibility)
   ISTART =      0    job   : 0-new  1-cont  2-samecut
   ICHARG =      2    charge: 1-file 2-atom 10-const
   ISPIN  =      1    spin polarized calculation?
   LNONCOLLINEAR =      F non collinear calculations
   LSORBIT =      F    spin-orbit coupling
   INIWAV =      1    electr: 0-lowe 1-rand  2-diag
   LASPH  =      T    aspherical Exc in radial PAW
 Electronic Relaxation 1
   ENCUT  = 1000.0 eV  73.50 Ry    8.57 a.u.  56.73 56.73 56.73*2*pi/ulx,y,z
   ENINI  = 1000.0     initial cutoff
   ENAUG  = 1000.0 eV  augmentation charge cutoff
   NELM   =     60;   NELMIN=  2; NELMDL= -5     # of ELM steps 
   EDIFF  = 0.1E-06   stopping-criterion for ELM
   LREAL  =      F    real-space projection
   NLSPLINE    = F    spline interpolate recip. space projectors
   LCOMPAT=      F    compatible to vasp.4.4
   GGA_COMPAT  = T    GGA compatible to vasp.4.4-vasp.4.6
   LMAXPAW     = -100 max onsite density
   LMAXMIX     =    2 max onsite mixed and CHGCAR
   VOSKOWN=      0    Vosko Wilk Nusair interpolation
   ROPT   =    0.00000   0.00000   0.00000   0.00000
 Ionic relaxation
   EDIFFG = 0.1E-05   stopping-criterion for IOM
   NSW    =      0    number of steps for IOM
   NBLOCK =      1;   KBLOCK =      1    inner block; outer block 
   IBRION =     -1    ionic relax: 0-MD 1-quasi-New 2-CG
   NFREE  =      0    steps in history (QN), initial steepest desc. (CG)
   ISIF   =      0    stress and relaxation
   IWAVPR =     10    prediction:  0-non 1-charg 2-wave 3-comb
   ISYM   =      2    0-nonsym 1-usesym 2-fastsym
   LCORR  =      T    Harris-Foulkes like correction to forces

   POTIM  = 0.5000    time-step for ionic-motion
   TEIN   =    0.0    initial temperature
   TEBEG  =    0.0;   TEEND  =   0.0 temperature during run
   SMASS  =  -3.00    Nose mass-parameter (am)
   estimated Nose-frequenzy (Omega)   =  0.10E-29 period in steps = 0.13E+47 mass=  -0.111E-25a.u.
   SCALEE = 1.0000    scale energy and forces
   NPACO  =    256;   APACO  = 10.0  distance and # of slots for P.C.
   PSTRESS=    0.0 pullay stress

  Mass of Ions in am
   POMASS =  12.01  1.00 14.00 16.00
  Ionic Valenz
   ZVAL   =   4.00  1.00  5.00  6.00
  Atomic Wigner-Seitz radii
   RWIGS  =  -1.00 -1.00 -1.00 -1.00
  virtual crystal weights 
   VCA    =   1.00  1.00  1.00  1.00
   NELECT =      24.0000    total number of electrons
   NUPDOWN=      -1.0000    fix difference up-down

 DOS related values:
   EMIN   =  10.00;   EMAX   =-10.00  energy-range for DOS
   EFERMI =   0.00;   METHOD = LEGACY      
   ISMEAR =     0;   SIGMA  =   0.01  broadening in eV -4-tet -1-fermi 0-gaus

 Electronic relaxation 2 (details)
   IALGO  =     58    algorithm
   LDIAG  =      T    sub-space diagonalisation (order eigenvalues)
   LSUBROT=      F    optimize rotation matrix (better conditioning)
   TURBO    =      0    0=normal 1=particle mesh
   IRESTART =      0    0=no restart 2=restart with 2 vectors
   NREBOOT  =      0    no. of reboots
   NMIN     =      0    reboot dimension
   EREF     =   0.00    reference energy to select bands
   IMIX   =      4    mixing-type and parameters
     AMIX     =   0.40;   BMIX     =  1.00
     AMIX_MAG =   1.60;   BMIX_MAG =  1.00
     AMIN     =   0.10
     WC   =   100.;   INIMIX=   1;  MIXPRE=   1;  MAXMIX= -45

 Intra band minimization:
   WEIMIN = 0.0000     energy-eigenvalue tresh-hold
   EBREAK =  0.10E-08  absolut break condition
   DEPER  =   0.30     relativ break condition  

   TIME   =   0.40     timestep for ELM

  volume/ion in A,a.u.               =    1331.00      8982.03
  Fermi-wavevector in a.u.,A,eV,Ry     =   0.214646  0.405622  0.626859  0.046073
  Thomas-Fermi vector in A             =   0.987905

 Write flags
   LWAVE        =      F    write WAVECAR
   LDOWNSAMPLE  =      F    k-point downsampling of WAVECAR
   LCHARG       =      F    write CHGCAR
   LVTOT        =      F    write LOCPOT, total local potential
   LVHAR        =      F    write LOCPOT, Hartree potential only
   LELF         =      F    write electronic localiz. function (ELF)
   LORBIT       =      0    0 simple, 1 ext, 2 COOP (PROOUT), +10 PAW based schemes


 Dipole corrections
   LMONO  =      F    monopole corrections only (constant potential shift)
   LDIPOL =      F    correct potential (dipole corrections)
   IDIPOL =      0    1-x, 2-y, 3-z, 4-all directions 
   EPSILON=  1.0000000 bulk dielectric constant

 Exchange correlation treatment:
   GGA     =    --    GGA type
   LEXCH   =     8    internal setting for exchange type
   LIBXC   =     F    Libxc                    
   VOSKOWN =     0    Vosko Wilk Nusair interpolation
   LHFCALC =     F    Hartree Fock is set to
   LHFONE  =     F    Hartree Fock one center treatment
   AEXX    =    0.0000 exact exchange contribution

 Linear response parameters
   LEPSILON=     F    determine dielectric tensor
   LRPA    =     F    only Hartree local field effects (RPA)
   LNABLA  =     F    use nabla operator in PAW spheres
   LVEL    =     F    velocity operator in full k-point grid
   CSHIFT  =0.1000    complex shift for real part using Kramers Kronig
   OMEGAMAX=  -1.0    maximum frequency
   DEG_THRESHOLD= 0.2000000E-02 threshold for treating states as degnerate
   RTIME   =   -0.100 relaxation time in fs
  (WPLASMAI=    0.000 imaginary part of plasma frequency in eV, 0.658/RTIME)
   DFIELD  = 0.0000000 0.0000000 0.0000000 field for delta impulse in time

  Optional k-point grid parameters
   LKPOINTS_OPT  =     F    use optional k-point grid
   KPOINTS_OPT_MODE=     1    mode for optional k-point grid

 Orbital magnetization related:
   ORBITALMAG=     F  switch on orbital magnetization
   LCHIMAG   =     F  perturbation theory with respect to B field
   DQ        =  0.001000  dq finite difference perturbation B field
   LLRAUG    =     F  two centre corrections for induced B field
   LBONE     =     F  B-component reconstruction in AE one-centre
   LVGVCALC  =     T  calculate vGv susceptibility
   LVGVAPPL  =     F  apply vGv susceptibility instead of pGv for G=0

 Random number generation:
   RANDOM_GENERATOR = DEFAULT
   PCG_SEED         = not used


--------------------------------------------------------------------------------------------------------


 Static calculation
 charge density and potential will be updated during run
 non-spin polarized calculation
 Conjugate gradient for all bands (Freysoldt, et al. PRB 79, 241103 (2009))
 preconditioned conjugated gradient                                        
 perform sub-space diagonalisation
    before iterative eigenvector-optimisation
 modified Broyden-mixing scheme, WC =      100.0
 initial mixing is a Kerker type mixing with AMIX =  0.4000 and BMIX =      1.0000
 Hartree-type preconditioning will be used
 using additional bands           12
 reciprocal scheme for non local part
 use partial core corrections
 no Harris-corrections to forces 
 use gradient corrections 
 use of overlap-Matrix (Vanderbilt PP)
 Gauss-broadening in eV      SIGMA  =   0.01


--------------------------------------------------------------------------------------------------------


  energy-cutoff  :     1000.00
  volume of cell :    10648.00
      direct lattice vectors                 reciprocal lattice vectors
    22.000000000  0.000000000  0.000000000     0.045454545  0.000000000  0.000000000
     0.000000000 22.000000000  0.000000000     0.000000000  0.045454545  0.000000000
     0.000000000  0.000000000 22.000000000     0.000000000  0.000000000  0.045454545

  length of vectors
    22.000000000 22.000000000 22.000000000     0.045454545  0.045454545  0.045454545



 k-points in units of 2pi/SCALE and weight: auto                                    
   0.00000000  0.00000000  0.00000000       1.000

 k-points in reciprocal lattice and weights: auto                                    
   0.00000000  0.00000000  0.00000000       1.000

 position of ions in fractional coordinates (direct lattice) 
   0.50625864  0.52267955  0.50004273
   0.42045136  0.48413318  0.50519182
   0.42336682  0.55914909  0.48580909
   0.51605318  0.42910364  0.49525045
   0.57954864  0.46942773  0.51419091
   0.44479091  0.51839591  0.48630136
   0.53355409  0.46746045  0.51381909
   0.53395773  0.57089636  0.50001273

 position of ions in cartesian coordinates  (Angst):
  11.13769000 11.49895000 11.00094000
   9.24993000 10.65093000 11.11422000
   9.31407000 12.30128000 10.68780000
  11.35317000  9.44028000 10.89551000
  12.75007000 10.32741000 11.31220000
   9.78540000 11.40471000 10.69863000
  11.73819000 10.28413000 11.30402000
  11.74707000 12.55972000 11.00028000



--------------------------------------------------------------------------------------------------------


 use parallel FFT for orbitals z direction half grid
 k-point   1 :   0.0000 0.0000 0.0000  plane waves:  381993

 maximum and minimum number of plane-waves per node :     11948    11928

 maximum number of plane-waves:    381993
 maximum index in each direction: 
   IXMAX=   56   IYMAX=   56   IZMAX=   56
   IXMIN=  -56   IYMIN=  -56   IZMIN=    0


 parallel 3D FFT for wavefunctions:
    minimum data exchange during FFTs selected (reduces bandwidth)
 parallel 3D FFT for charge:
    minimum data exchange during FFTs selected (reduces bandwidth)


 total amount of memory used by VASP MPI-rank0   131377. kBytes
=======================================================================

   base      :      30000. kBytes
   nonl-proj :       4583. kBytes
   fftplans  :      24880. kBytes
   grid      :      70194. kBytes
   one-center:          1. kBytes
   wavefun   :       1719. kBytes

     INWAV:  cpu time      0.0001: real time      0.0002
 Broyden mixing: mesh for mixing (old mesh)
   NGX =113   NGY =113   NGZ =113
  (NGX  =480   NGY  =480   NGZ  =480)
  gives a total of ****** points

 initial charge density was supplied:
 charge density of overlapping atoms calculated
 number of electron      24.0000000 magnetization 
 keeping initial charge density in first step


--------------------------------------------------------------------------------------------------------


 Maximum index for augmentation-charges          523 (set IRDMAX)


--------------------------------------------------------------------------------------------------------


 First call to EWALD:  gamma=   0.081
 Maximum number of real-space cells 3x 3x 3
 Maximum number of reciprocal cells 3x 3x 3

    FEWALD:  cpu time      0.0038: real time      0.0038


--------------------------------------- Ionic step        1  -------------------------------------------




--------------------------------------- Iteration      1(   1)  ---------------------------------------


    POTLOK:  cpu time      1.4470: real time      1.4478
    SETDIJ:  cpu time      0.2867: real time      0.2870
    TRIAL :  cpu time      3.1154: real time      3.1179
    CORREC:  cpu time      0.0029: real time      0.0029
    --------------------------------------------
      LOOP:  cpu time      4.8612: real time      4.8651

 eigenvalue-minimisations  :    64
 total energy-change (2. order) : 0.2079305E+03  (-0.5870538E+03)
 number of electron      24.0000000 magnetization 
 augmentation part       24.0000000 magnetization 

 Free energy of the ion-electron system (eV)
  ---------------------------------------------------
  alpha Z        PSCENC =         0.15477404
  Ewald energy   TEWEN  =      1354.52000889
  -Hartree energ DENC   =     -2215.13506272
  -exchange      EXHF   =         0.00000000
  -V(xc)+E(xc)   XCENC  =        96.17962455
  PAW double counting   =       859.59813978     -862.53952369
  entropy T*S    EENTRO =        -0.00000000
  eigenvalues    EBANDS =      -183.39417573
  atomic energy  EATOM  =      1158.54671353
  ---------------------------------------------------
  free energy    TOTEN  =       207.93049867 eV

  energy without entropy =      207.93049867  energy(sigma->0) =      207.93049867


--------------------------------------------------------------------------------------------------------




--------------------------------------- Iteration      1(   2)  ---------------------------------------


    TRIAL :  cpu time      3.5542: real time      3.5564
    CORREC:  cpu time      0.0001: real time      0.0001
    --------------------------------------------
      LOOP:  cpu time      3.5711: real time      3.5857

 eigenvalue-minimisations  :    80
 total energy-change (2. order) :-0.1245544E+03  (-0.1213274E+03)
 number of electron      24.0000000 magnetization 
 augmentation part       24.0000000 magnetization 

 Free energy of the ion-electron system (eV)
  ---------------------------------------------------
  alpha Z        PSCENC =         0.15477404
  Ewald energy   TEWEN  =      1354.52000889
  -Hartree energ DENC   =     -2215.13506272
  -exchange      EXHF   =         0.00000000
  -V(xc)+E(xc)   XCENC  =        96.17962455
  PAW double counting   =       859.59813978     -862.53952369
  entropy T*S    EENTRO =        -0.00000000
  eigenvalues    EBANDS =      -307.94858228
  atomic energy  EATOM  =      1158.54671353
  ---------------------------------------------------
  free energy    TOTEN  =        83.37609212 eV

  energy without entropy =       83.37609212  energy(sigma->0) =       83.37609212


--------------------------------------------------------------------------------------------------------




--------------------------------------- Iteration      1(   3)  ---------------------------------------


    TRIAL :  cpu time      3.5493: real time      3.5516
    CORREC:  cpu time      0.0001: real time      0.0001
    --------------------------------------------
      LOOP:  cpu time      3.5636: real time      3.5836

 eigenvalue-minimisations  :    80
 total energy-change (2. order) :-0.1084757E+03  (-0.1051898E+03)
 number of electron      24.0000000 magnetization 
 augmentation part       24.0000000 magnetization 

 Free energy of the ion-electron system (eV)
  ---------------------------------------------------
  alpha Z        PSCENC =         0.15477404
  Ewald energy   TEWEN  =      1354.52000889
  -Hartree energ DENC   =     -2215.13506272
  -exchange      EXHF   =         0.00000000
  -V(xc)+E(xc)   XCENC  =        96.17962455
  PAW double counting   =       859.59813978     -862.53952369
  entropy T*S    EENTRO =        -0.00000000
  eigenvalues    EBANDS =      -416.42431566
  atomic energy  EATOM  =      1158.54671353
  ---------------------------------------------------
  free energy    TOTEN  =       -25.09964127 eV

  energy without entropy =      -25.09964127  energy(sigma->0) =      -25.09964127


--------------------------------------------------------------------------------------------------------




--------------------------------------- Iteration      1(   4)  ---------------------------------------


    TRIAL :  cpu time      3.0917: real time      3.0934
    CORREC:  cpu time      0.0001: real time      0.0001
    --------------------------------------------
      LOOP:  cpu time      3.1037: real time      3.1231

 eigenvalue-minimisations  :    64
 total energy-change (2. order) :-0.3680389E+02  (-0.3673282E+02)
 number of electron      24.0000000 magnetization 
 augmentation part       24.0000000 magnetization 

 Free energy of the ion-electron system (eV)
  ---------------------------------------------------
  alpha Z        PSCENC =         0.15477404
  Ewald energy   TEWEN  =      1354.52000889
  -Hartree energ DENC   =     -2215.13506272
  -exchange      EXHF   =         0.00000000
  -V(xc)+E(xc)   XCENC  =        96.17962455
  PAW double counting   =       859.59813978     -862.53952369
  entropy T*S    EENTRO =        -0.00000000
  eigenvalues    EBANDS =      -453.22820551
  atomic energy  EATOM  =      1158.54671353
  ---------------------------------------------------
  free energy    TOTEN  =       -61.90353111 eV

  energy without entropy =      -61.90353111  energy(sigma->0) =      -61.90353111


--------------------------------------------------------------------------------------------------------




--------------------------------------- Iteration      1(   5)  ---------------------------------------


    TRIAL :  cpu time      3.5479: real time      3.5497
    CORREC:  cpu time      0.0001: real time      0.0001
    CHARGE:  cpu time      0.5776: real time      0.5800
    --------------------------------------------
      LOOP:  cpu time      4.1414: real time      4.1598

 eigenvalue-minimisations  :    80
 total energy-change (2. order) :-0.2396740E+01  (-0.2394991E+01)
 number of electron      24.0000000 magnetization 
 augmentation part        0.0530687 magnetization 

 Free energy of the ion-electron system (eV)
  ---------------------------------------------------
  alpha Z        PSCENC =         0.15477404
  Ewald energy   TEWEN  =      1354.52000889
  -Hartree energ DENC   =     -2215.13506272
  -exchange      EXHF   =         0.00000000
  -V(xc)+E(xc)   XCENC  =        96.17962455
  PAW double counting   =       859.59813978     -862.53952369
  entropy T*S    EENTRO =        -0.00000000
  eigenvalues    EBANDS =      -455.62494537
  atomic energy  EATOM  =      1158.54671353
  ---------------------------------------------------
  free energy    TOTEN  =       -64.30027097 eV

  energy without entropy =      -64.30027097  energy(sigma->0) =      -64.30027097


--------------------------------------------------------------------------------------------------------




--------------------------------------- Iteration      1(   6)  ---------------------------------------


    POTLOK:  cpu time      1.4251: real time      1.4255
    SETDIJ:  cpu time      0.2669: real time      0.2671
    TRIAL :  cpu time      2.5665: real time      2.5693
    CORREC:  cpu time      2.9071: real time      2.9091
    CHARGE:  cpu time      0.5400: real time      0.5406
    --------------------------------------------
      LOOP:  cpu time      7.7272: real time      7.7431

 eigenvalue-minimisations  :     0
 total energy-change (2. order) : 0.1847436E+02  (-0.4709373E+01)
 number of electron      24.0000000 magnetization 
 augmentation part        0.0250756 magnetization 

 Free energy of the ion-electron system (eV)
  ---------------------------------------------------
  alpha Z        PSCENC =         0.15477404
  Ewald energy   TEWEN  =      1354.52000889
  -Hartree energ DENC   =     -2424.72187927
  -exchange      EXHF   =         0.00000000
  -V(xc)+E(xc)   XCENC  =       110.29518327
  PAW double counting   =     11019.16946256   -11023.66337281
  entropy T*S    EENTRO =        -0.00000000
  eigenvalues    EBANDS =      -240.12680523
  atomic energy  EATOM  =      1158.54671353
  ---------------------------------------------------
  free energy    TOTEN  =       -45.82591501 eV

  energy without entropy =      -45.82591501  energy(sigma->0) =      -45.82591501


--------------------------------------------------------------------------------------------------------




--------------------------------------- Iteration      1(   7)  ---------------------------------------


    POTLOK:  cpu time      1.4201: real time      1.4205
    SETDIJ:  cpu time      0.3076: real time      0.3076
    TRIAL :  cpu time      2.5583: real time      2.5599
    CORREC:  cpu time      2.8985: real time      2.8998
    CHARGE:  cpu time      0.5392: real time      0.5393
    --------------------------------------------
      LOOP:  cpu time      7.7553: real time      7.7589

 eigenvalue-minimisations  :     0
 total energy-change (2. order) :-0.4756230E+01  (-0.6285779E+00)
 number of electron      24.0000000 magnetization 
 augmentation part        0.0013934 magnetization 

 Free energy of the ion-electron system (eV)
  ---------------------------------------------------
  alpha Z        PSCENC =         0.15477404
  Ewald energy   TEWEN  =      1354.52000889
  -Hartree energ DENC   =     -2326.87422806
  -exchange      EXHF   =         0.00000000
  -V(xc)+E(xc)   XCENC  =       104.40051878
  PAW double counting   =     13600.27472722   -13603.80295587
  entropy T*S    EENTRO =        -0.00000000
  eigenvalues    EBANDS =      -337.80170350
  atomic energy  EATOM  =      1158.54671353
  ---------------------------------------------------
  free energy    TOTEN  =       -50.58214497 eV

  energy without entropy =      -50.58214497  energy(sigma->0) =      -50.58214497


--------------------------------------------------------------------------------------------------------




--------------------------------------- Iteration      1(   8)  ---------------------------------------


    POTLOK:  cpu time      1.4231: real time      1.4239
    SETDIJ:  cpu time      0.2737: real time      0.2737
    TRIAL :  cpu time      2.5398: real time      2.5414
    CORREC:  cpu time      2.9046: real time      2.9062
    CHARGE:  cpu time      0.5386: real time      0.5388
    --------------------------------------------
      LOOP:  cpu time      7.6958: real time      7.7143

 eigenvalue-minimisations  :     0
 total energy-change (2. order) :-0.6315853E+00  (-0.2491323E+00)
 number of electron      24.0000000 magnetization 
 augmentation part        0.0006001 magnetization 

 Free energy of the ion-electron system (eV)
  ---------------------------------------------------
  alpha Z        PSCENC =         0.15477404
  Ewald energy   TEWEN  =      1354.52000889
  -Hartree energ DENC   =     -2327.60660352
  -exchange      EXHF   =         0.00000000
  -V(xc)+E(xc)   XCENC  =       104.22116754
  PAW double counting   =     14680.19565067   -14683.56279181
  entropy T*S    EENTRO =        -0.00000000
  eigenvalues    EBANDS =      -337.68264958
  atomic energy  EATOM  =      1158.54671353
  ---------------------------------------------------
  free energy    TOTEN  =       -51.21373023 eV

  energy without entropy =      -51.21373023  energy(sigma->0) =      -51.21373023


--------------------------------------------------------------------------------------------------------




--------------------------------------- Iteration      1(   9)  ---------------------------------------


    POTLOK:  cpu time      1.4220: real time      1.4230
    SETDIJ:  cpu time      0.2709: real time      0.2710
    TRIAL :  cpu time      2.5391: real time      2.5402
    CORREC:  cpu time      2.9035: real time      2.9046
    CHARGE:  cpu time      0.5389: real time      0.5395
    --------------------------------------------
      LOOP:  cpu time      7.6872: real time      7.7083

 eigenvalue-minimisations  :     0
 total energy-change (2. order) :-0.2474207E+00  (-0.1150233E+00)
 number of electron      24.0000000 magnetization 
 augmentation part        0.0031285 magnetization 

 Free energy of the ion-electron system (eV)
  ---------------------------------------------------
  alpha Z        PSCENC =         0.15477404
  Ewald energy   TEWEN  =      1354.52000889
  -Hartree energ DENC   =     -2328.01729604
  -exchange      EXHF   =         0.00000000
  -V(xc)+E(xc)   XCENC  =       104.14355594
  PAW double counting   =     15698.35168751   -15701.66648858
  entropy T*S    EENTRO =        -0.00000000
  eigenvalues    EBANDS =      -337.49410619
  atomic energy  EATOM  =      1158.54671353
  ---------------------------------------------------
  free energy    TOTEN  =       -51.46115089 eV

  energy without entropy =      -51.46115089  energy(sigma->0) =      -51.46115089


--------------------------------------------------------------------------------------------------------




--------------------------------------- Iteration      1(  10)  ---------------------------------------


    POTLOK:  cpu time      1.4247: real time      1.4251
    SETDIJ:  cpu time      0.2691: real time      0.2694
    TRIAL :  cpu time      2.5489: real time      2.5500
    CORREC:  cpu time      2.9035: real time      2.9050
    CHARGE:  cpu time      0.5376: real time      0.5382
    --------------------------------------------
      LOOP:  cpu time      7.7172: real time      7.7212

 eigenvalue-minimisations  :     0
 total energy-change (2. order) :-0.1140657E+00  (-0.4201355E-01)
 number of electron      24.0000000 magnetization 
 augmentation part        0.0050936 magnetization 

 Free energy of the ion-electron system (eV)
  ---------------------------------------------------
  alpha Z        PSCENC =         0.15477404
  Ewald energy   TEWEN  =      1354.52000889
  -Hartree energ DENC   =     -2325.47799265
  -exchange      EXHF   =         0.00000000
  -V(xc)+E(xc)   XCENC  =       104.06488556
  PAW double counting   =     15993.44717821   -15996.76130112
  entropy T*S    EENTRO =        -0.00000000
  eigenvalues    EBANDS =      -340.06948304
  atomic energy  EATOM  =      1158.54671353
  ---------------------------------------------------
  free energy    TOTEN  =       -51.57521658 eV

  energy without entropy =      -51.57521658  energy(sigma->0) =      -51.57521658


--------------------------------------------------------------------------------------------------------




--------------------------------------- Iteration      1(  11)  ---------------------------------------


    POTLOK:  cpu time      1.4264: real time      1.4268
    SETDIJ:  cpu time      0.2959: real time      0.2960
    TRIAL :  cpu time      2.5379: real time      2.5392
    CORREC:  cpu time      2.9630: real time      2.9647
    CHARGE:  cpu time      0.5406: real time      0.5407
    --------------------------------------------
      LOOP:  cpu time      7.7802: real time      7.7984

 eigenvalue-minimisations  :     0
 total energy-change (2. order) :-0.4186737E-01  (-0.1339848E-01)
 number of electron      24.0000000 magnetization 
 augmentation part        0.0064174 magnetization 

 Free energy of the ion-electron system (eV)
  ---------------------------------------------------
  alpha Z        PSCENC =         0.15477404
  Ewald energy   TEWEN  =      1354.52000889
  -Hartree energ DENC   =     -2324.04576131
  -exchange      EXHF   =         0.00000000
  -V(xc)+E(xc)   XCENC  =       104.04716756
  PAW double counting   =     15797.47962512   -15800.81348860
  entropy T*S    EENTRO =        -0.00000000
  eigenvalues    EBANDS =      -341.50612318
  atomic energy  EATOM  =      1158.54671353
  ---------------------------------------------------
  free energy    TOTEN  =       -51.61708395 eV

  energy without entropy =      -51.61708395  energy(sigma->0) =      -51.61708395


--------------------------------------------------------------------------------------------------------




--------------------------------------- Iteration      1(  12)  ---------------------------------------


    POTLOK:  cpu time      1.4491: real time      1.4501
    SETDIJ:  cpu time      0.2426: real time      0.2426
    TRIAL :  cpu time      2.5402: real time      2.5416
    CORREC:  cpu time      2.9100: real time      2.9116
    CHARGE:  cpu time      0.5398: real time      0.5400
    --------------------------------------------
      LOOP:  cpu time      7.6963: real time      7.7182

 eigenvalue-minimisations  :     0
 total energy-change (2. order) :-0.1338383E-01  (-0.3831511E-02)
 number of electron      24.0000000 magnetization 
 augmentation part        0.0067025 magnetization 

 Free energy of the ion-electron system (eV)
  ---------------------------------------------------
  alpha Z        PSCENC =         0.15477404
  Ewald energy   TEWEN  =      1354.52000889
  -Hartree energ DENC   =     -2323.44006320
  -exchange      EXHF   =         0.00000000
  -V(xc)+E(xc)   XCENC  =       104.02371284
  PAW double counting   =     15611.27176829   -15614.61501012
  entropy T*S    EENTRO =        -0.00000000
  eigenvalues    EBANDS =      -342.09237207
  atomic energy  EATOM  =      1158.54671353
  ---------------------------------------------------
  free energy    TOTEN  =       -51.63046778 eV

  energy without entropy =      -51.63046778  energy(sigma->0) =      -51.63046778


--------------------------------------------------------------------------------------------------------




--------------------------------------- Iteration      1(  13)  ---------------------------------------


    POTLOK:  cpu time      1.4220: real time      1.4228
    SETDIJ:  cpu time      0.2734: real time      0.2734
    TRIAL :  cpu time      2.5434: real time      2.5443
    CORREC:  cpu time      2.8987: real time      2.9000
    CHARGE:  cpu time      0.5383: real time      0.5388
    --------------------------------------------
      LOOP:  cpu time      7.6909: real time      7.7108

 eigenvalue-minimisations  :     0
 total energy-change (2. order) :-0.3830921E-02  (-0.1119687E-02)
 number of electron      24.0000000 magnetization 
 augmentation part        0.0065683 magnetization 

 Free energy of the ion-electron system (eV)
  ---------------------------------------------------
  alpha Z        PSCENC =         0.15477404
  Ewald energy   TEWEN  =      1354.52000889
  -Hartree energ DENC   =     -2323.26919826
  -exchange      EXHF   =         0.00000000
  -V(xc)+E(xc)   XCENC  =       104.01524192
  PAW double counting   =     15500.82134177   -15504.16745379
  entropy T*S    EENTRO =        -0.00000000
  eigenvalues    EBANDS =      -342.25572682
  atomic energy  EATOM  =      1158.54671353
  ---------------------------------------------------
  free energy    TOTEN  =       -51.63429870 eV

  energy without entropy =      -51.63429870  energy(sigma->0) =      -51.63429870


--------------------------------------------------------------------------------------------------------




--------------------------------------- Iteration      1(  14)  ---------------------------------------


    POTLOK:  cpu time      1.4299: real time      1.4304
    SETDIJ:  cpu time      0.2737: real time      0.2739
    TRIAL :  cpu time      2.5535: real time      2.5545
    CORREC:  cpu time      2.9031: real time      2.9045
    CHARGE:  cpu time      0.5382: real time      0.5388
    --------------------------------------------
      LOOP:  cpu time      7.7128: real time      7.7332

 eigenvalue-minimisations  :     0
 total energy-change (2. order) :-0.1118776E-02  (-0.3407257E-03)
 number of electron      24.0000000 magnetization 
 augmentation part        0.0064737 magnetization 

 Free energy of the ion-electron system (eV)
  ---------------------------------------------------
  alpha Z        PSCENC =         0.15477404
  Ewald energy   TEWEN  =      1354.52000889
  -Hartree energ DENC   =     -2323.20316539
  -exchange      EXHF   =         0.00000000
  -V(xc)+E(xc)   XCENC  =       104.01176215
  PAW double counting   =     15430.32128522   -15433.66743796
  entropy T*S    EENTRO =        -0.00000000
  eigenvalues    EBANDS =      -342.31935796
  atomic energy  EATOM  =      1158.54671353
  ---------------------------------------------------
  free energy    TOTEN  =       -51.63541748 eV

  energy without entropy =      -51.63541748  energy(sigma->0) =      -51.63541748


--------------------------------------------------------------------------------------------------------




--------------------------------------- Iteration      1(  15)  ---------------------------------------


    POTLOK:  cpu time      1.4204: real time      1.4210
    SETDIJ:  cpu time      0.2751: real time      0.2751
    TRIAL :  cpu time      2.5427: real time      2.5439
    CORREC:  cpu time      2.9039: real time      2.9052
    CHARGE:  cpu time      0.5380: real time      0.5381
    --------------------------------------------
      LOOP:  cpu time      7.7113: real time      7.7148

 eigenvalue-minimisations  :     0
 total energy-change (2. order) :-0.3404258E-03  (-0.1148625E-03)
 number of electron      24.0000000 magnetization 
 augmentation part        0.0064707 magnetization 

 Free energy of the ion-electron system (eV)
  ---------------------------------------------------
  alpha Z        PSCENC =         0.15477404
  Ewald energy   TEWEN  =      1354.52000889
  -Hartree energ DENC   =     -2323.27435305
  -exchange      EXHF   =         0.00000000
  -V(xc)+E(xc)   XCENC  =       104.01358656
  PAW double counting   =     15378.80512036   -15382.15116552
  entropy T*S    EENTRO =        -0.00000000
  eigenvalues    EBANDS =      -342.25044272
  atomic energy  EATOM  =      1158.54671353
  ---------------------------------------------------
  free energy    TOTEN  =       -51.63575790 eV

  energy without entropy =      -51.63575790  energy(sigma->0) =      -51.63575790


--------------------------------------------------------------------------------------------------------




--------------------------------------- Iteration      1(  16)  ---------------------------------------


    POTLOK:  cpu time      1.4247: real time      1.4257
    SETDIJ:  cpu time      0.2716: real time      0.2716
    TRIAL :  cpu time      2.5409: real time      2.5419
    CORREC:  cpu time      2.9012: real time      2.9021
    CHARGE:  cpu time      0.5392: real time      0.5397
    --------------------------------------------
      LOOP:  cpu time      7.6915: real time      7.7117

 eigenvalue-minimisations  :     0
 total energy-change (2. order) :-0.1148273E-03  (-0.4029226E-04)
 number of electron      24.0000000 magnetization 
 augmentation part        0.0064819 magnetization 

 Free energy of the ion-electron system (eV)
  ---------------------------------------------------
  alpha Z        PSCENC =         0.15477404
  Ewald energy   TEWEN  =      1354.52000889
  -Hartree energ DENC   =     -2323.31604093
  -exchange      EXHF   =         0.00000000
  -V(xc)+E(xc)   XCENC  =       104.01417838
  PAW double counting   =     15343.55526614   -15346.90130837
  entropy T*S    EENTRO =        -0.00000000
  eigenvalues    EBANDS =      -342.20946441
  atomic energy  EATOM  =      1158.54671353
  ---------------------------------------------------
  free energy    TOTEN  =       -51.63587273 eV

  energy without entropy =      -51.63587273  energy(sigma->0) =      -51.63587273


--------------------------------------------------------------------------------------------------------




--------------------------------------- Iteration      1(  17)  ---------------------------------------


    POTLOK:  cpu time      1.4264: real time      1.4268
    SETDIJ:  cpu time      0.2684: real time      0.2686
    TRIAL :  cpu time      2.5422: real time      2.5432
    CORREC:  cpu time      2.9062: real time      2.9077
    CHARGE:  cpu time      0.5383: real time      0.5387
    --------------------------------------------
      LOOP:  cpu time      7.6955: real time      7.7159

 eigenvalue-minimisations  :     0
 total energy-change (2. order) :-0.4032756E-04  (-0.1461784E-04)
 number of electron      24.0000000 magnetization 
 augmentation part        0.0064944 magnetization 

 Free energy of the ion-electron system (eV)
  ---------------------------------------------------
  alpha Z        PSCENC =         0.15477404
  Ewald energy   TEWEN  =      1354.52000889
  -Hartree energ DENC   =     -2323.32907849
  -exchange      EXHF   =         0.00000000
  -V(xc)+E(xc)   XCENC  =       104.01442111
  PAW double counting   =     15325.89797215   -15329.24403541
  entropy T*S    EENTRO =        -0.00000000
  eigenvalues    EBANDS =      -342.19668889
  atomic energy  EATOM  =      1158.54671353
  ---------------------------------------------------
  free energy    TOTEN  =       -51.63591306 eV

  energy without entropy =      -51.63591306  energy(sigma->0) =      -51.63591306


--------------------------------------------------------------------------------------------------------




--------------------------------------- Iteration      1(  18)  ---------------------------------------


    POTLOK:  cpu time      1.4235: real time      1.4239
    SETDIJ:  cpu time      0.2704: real time      0.2704
    TRIAL :  cpu time      2.5396: real time      2.5410
    CORREC:  cpu time      2.9037: real time      2.9051
    CHARGE:  cpu time      0.5398: real time      0.5399
    --------------------------------------------
      LOOP:  cpu time      7.7100: real time      7.7133

 eigenvalue-minimisations  :     0
 total energy-change (2. order) :-0.1464042E-04  (-0.5043250E-05)
 number of electron      24.0000000 magnetization 
 augmentation part        0.0064911 magnetization 

 Free energy of the ion-electron system (eV)
  ---------------------------------------------------
  alpha Z        PSCENC =         0.15477404
  Ewald energy   TEWEN  =      1354.52000889
  -Hartree energ DENC   =     -2323.35045121
  -exchange      EXHF   =         0.00000000
  -V(xc)+E(xc)   XCENC  =       104.01562760
  PAW double counting   =     15323.10846879   -15326.45464141
  entropy T*S    EENTRO =        -0.00000000
  eigenvalues    EBANDS =      -342.17642793
  atomic energy  EATOM  =      1158.54671353
  ---------------------------------------------------
  free energy    TOTEN  =       -51.63592770 eV

  energy without entropy =      -51.63592770  energy(sigma->0) =      -51.63592770


--------------------------------------------------------------------------------------------------------




--------------------------------------- Iteration      1(  19)  ---------------------------------------


    POTLOK:  cpu time      1.4235: real time      1.4246
    SETDIJ:  cpu time      0.2738: real time      0.2739
    TRIAL :  cpu time      2.5435: real time      2.5450
    CORREC:  cpu time      2.8986: real time      2.9000
    CHARGE:  cpu time      0.5393: real time      0.5394
    --------------------------------------------
      LOOP:  cpu time      7.6929: real time      7.7131

 eigenvalue-minimisations  :     0
 total energy-change (2. order) :-0.5081478E-05  (-0.1727388E-05)
 number of electron      24.0000000 magnetization 
 augmentation part        0.0064922 magnetization 

 Free energy of the ion-electron system (eV)
  ---------------------------------------------------
  alpha Z        PSCENC =         0.15477404
  Ewald energy   TEWEN  =      1354.52000889
  -Hartree energ DENC   =     -2323.34473093
  -exchange      EXHF   =         0.00000000
  -V(xc)+E(xc)   XCENC  =       104.01535449
  PAW double counting   =     15328.40440806   -15331.75045335
  entropy T*S    EENTRO =        -0.00000000
  eigenvalues    EBANDS =      -342.18200752
  atomic energy  EATOM  =      1158.54671353
  ---------------------------------------------------
  free energy    TOTEN  =       -51.63593278 eV

  energy without entropy =      -51.63593278  energy(sigma->0) =      -51.63593278


--------------------------------------------------------------------------------------------------------




--------------------------------------- Iteration      1(  20)  ---------------------------------------


    POTLOK:  cpu time      1.4479: real time      1.4488
    SETDIJ:  cpu time      0.2622: real time      0.2623
    TRIAL :  cpu time      2.5426: real time      2.5436
    CORREC:  cpu time      2.9029: real time      2.9040
    CHARGE:  cpu time      0.5395: real time      0.5401
    --------------------------------------------
      LOOP:  cpu time      7.7079: real time      7.7293

 eigenvalue-minimisations  :     0
 total energy-change (2. order) :-0.1739787E-05  (-0.5913566E-06)
 number of electron      24.0000000 magnetization 
 augmentation part        0.0064893 magnetization 

 Free energy of the ion-electron system (eV)
  ---------------------------------------------------
  alpha Z        PSCENC =         0.15477404
  Ewald energy   TEWEN  =      1354.52000889
  -Hartree energ DENC   =     -2323.35006065
  -exchange      EXHF   =         0.00000000
  -V(xc)+E(xc)   XCENC  =       104.01573099
  PAW double counting   =     15334.32170010   -15337.66774223
  entropy T*S    EENTRO =        -0.00000000
  eigenvalues    EBANDS =      -342.17705919
  atomic energy  EATOM  =      1158.54671353
  ---------------------------------------------------
  free energy    TOTEN  =       -51.63593452 eV

  energy without entropy =      -51.63593452  energy(sigma->0) =      -51.63593452


--------------------------------------------------------------------------------------------------------




--------------------------------------- Iteration      1(  21)  ---------------------------------------


    POTLOK:  cpu time      1.4239: real time      1.4243
    SETDIJ:  cpu time      0.2704: real time      0.2707
    TRIAL :  cpu time      2.5462: real time      2.5472
    CORREC:  cpu time      2.9642: real time      2.9660
    CHARGE:  cpu time      0.5392: real time      0.5397
    --------------------------------------------
      LOOP:  cpu time      7.7764: real time      7.7806

 eigenvalue-minimisations  :     0
 total energy-change (2. order) :-0.6011287E-06  (-0.1983446E-06)
 number of electron      24.0000000 magnetization 
 augmentation part        0.0064903 magnetization 

 Free energy of the ion-electron system (eV)
  ---------------------------------------------------
  alpha Z        PSCENC =         0.15477404
  Ewald energy   TEWEN  =      1354.52000889
  -Hartree energ DENC   =     -2323.34692239
  -exchange      EXHF   =         0.00000000
  -V(xc)+E(xc)   XCENC  =       104.01562674
  PAW double counting   =     15338.21628563   -15341.56228820
  entropy T*S    EENTRO =        -0.00000000
  eigenvalues    EBANDS =      -342.18013337
  atomic energy  EATOM  =      1158.54671353
  ---------------------------------------------------
  free energy    TOTEN  =       -51.63593512 eV

  energy without entropy =      -51.63593512  energy(sigma->0) =      -51.63593512


--------------------------------------------------------------------------------------------------------




--------------------------------------- Iteration      1(  22)  ---------------------------------------


    POTLOK:  cpu time      1.4206: real time      1.4210
    SETDIJ:  cpu time      0.2757: real time      0.2757
    TRIAL :  cpu time      2.5463: real time      2.5478
    CORREC:  cpu time      2.8988: real time      2.9005
    CHARGE:  cpu time      0.5393: real time      0.5395
    --------------------------------------------
      LOOP:  cpu time      7.6968: real time      7.7170

 eigenvalue-minimisations  :     0
 total energy-change (2. order) :-0.2003071E-06  (-0.7768092E-07)
 number of electron      24.0000000 magnetization 
 augmentation part        0.0064882 magnetization 

 Free energy of the ion-electron system (eV)
  ---------------------------------------------------
  alpha Z        PSCENC =         0.15477404
  Ewald energy   TEWEN  =      1354.52000889
  -Hartree energ DENC   =     -2323.34708215
  -exchange      EXHF   =         0.00000000
  -V(xc)+E(xc)   XCENC  =       104.01568152
  PAW double counting   =     15339.92164928   -15343.26766668
  entropy T*S    EENTRO =        -0.00000000
  eigenvalues    EBANDS =      -342.18001377
  atomic energy  EATOM  =      1158.54671353
  ---------------------------------------------------
  free energy    TOTEN  =       -51.63593532 eV

  energy without entropy =      -51.63593532  energy(sigma->0) =      -51.63593532


--------------------------------------------------------------------------------------------------------




--------------------------------------- Iteration      1(  23)  ---------------------------------------


    POTLOK:  cpu time      1.4233: real time      1.4244
    SETDIJ:  cpu time      0.2724: real time      0.2724
    TRIAL :  cpu time      2.5446: real time      2.5461
    CORREC:  cpu time      2.9045: real time      2.9056
    EDDIAG:  cpu time      0.6668: real time      0.6672
    CHARGE:  cpu time      0.5402: real time      0.5407
    --------------------------------------------
      LOOP:  cpu time      8.3660: real time      8.3876

 eigenvalue-minimisations  :     0
 total energy-change (2. order) :-0.7430936E-07  (-0.4858657E-07)
 number of electron      24.0000000 magnetization 
 augmentation part        0.0064885 magnetization 

 Free energy of the ion-electron system (eV)
  ---------------------------------------------------
  alpha Z        PSCENC =         0.15477404
  Ewald energy   TEWEN  =      1354.52000889
  -Hartree energ DENC   =     -2323.34487658
  -exchange      EXHF   =         0.00000000
  -V(xc)+E(xc)   XCENC  =       104.01556718
  PAW double counting   =     15340.57175170   -15343.91775168
  entropy T*S    EENTRO =        -0.00000000
  eigenvalues    EBANDS =      -342.18212249
  atomic energy  EATOM  =      1158.54671353
  ---------------------------------------------------
  free energy    TOTEN  =       -51.63593540 eV

  energy without entropy =      -51.63593540  energy(sigma->0) =      -51.63593540


--------------------------------------------------------------------------------------------------------


  average scaling for gradient   1.2034


 average (electrostatic) potential at core
  the test charge radii are     0.5770  0.4325  0.5902  0.5955
  (the norm of the test charge is              1.0000)
       1 -91.2666       2 -49.7719       3 -49.5270       4 -49.7744       5 -49.5312
       6-107.1180       7-107.1192       8-122.1816



 E-fermi :  -6.1331     XC(G=0):  -0.0854     alpha+bet : -0.0451

 Fermi energy:        -6.1331067257

 k-point     1 :       0.0000    0.0000    0.0000
  band No.  band energies     occupation 
      1     -27.3761      2.00000
      2     -24.1025      2.00000
      3     -23.0774      2.00000
      4     -15.7886      2.00000
      5     -14.0136      2.00000
      6     -13.7054      2.00000
      7     -11.8488      2.00000
      8     -10.7142      2.00000
      9     -10.3721      2.00000
     10      -6.9657      2.00000
     11      -6.8957      2.00000
     12      -6.2306      2.00000
     13      -0.3504      0.00000
     14       0.0835      0.00000
     15       0.0872      0.00000
     16       0.2932      0.00000
     17       0.3251      0.00000
     18       0.3430      0.00000
     19       0.4118      0.00000
     20       0.4478      0.00000
     21       0.9037      0.00000
     22       0.9435      0.00000
     23       1.8993      0.00000
     24       2.7461      0.00000


--------------------------------------------------------------------------------------------------------


 soft charge-density along one line, spin component           1
         0         1         2         3         4         5         6         7         8         9
 total charge-density along one line

 pseudopotential strength for first ion, spin component:           1
 12.754  21.463  -0.008  -0.000  -0.004  -0.014  -0.000  -0.008
 21.463  36.119  -0.013  -0.000  -0.007  -0.024  -0.000  -0.014
 -0.008  -0.013  -3.283   0.000  -0.000  -5.883   0.000  -0.001
 -0.000  -0.000   0.000  -3.282  -0.000   0.000  -5.882  -0.000
 -0.004  -0.007  -0.000  -0.000  -3.282  -0.001  -0.000  -5.883
 -0.014  -0.024  -5.883   0.000  -0.001 -10.522   0.001  -0.001
 -0.000  -0.000   0.000  -5.882  -0.000   0.001 -10.518  -0.001
 -0.008  -0.014  -0.001  -0.000  -5.883  -0.001  -0.001 -10.521
 total augmentation occupancy for first ion, spin component:           1
 11.132  -4.436   1.317  -0.000   0.759  -0.627   0.000  -0.361
 -4.436   1.842  -0.628   0.000  -0.362   0.309  -0.000   0.178
  1.317  -0.628  10.091  -0.522   1.325  -3.845   0.226  -0.587
 -0.000   0.000  -0.522   4.008   0.900   0.226  -1.254  -0.391
  0.759  -0.362   1.325   0.900   8.546  -0.587  -0.391  -3.160
 -0.627   0.309  -3.845   0.226  -0.587   1.497  -0.095   0.263
  0.000  -0.000   0.226  -1.254  -0.391  -0.095   0.396   0.164
 -0.361   0.178  -0.587  -0.391  -3.160   0.263   0.164   1.190


------------------------ aborting loop because EDIFF is reached ----------------------------------------


    FORLOC:  cpu time      0.0383: real time      0.0384
    FORNL :  cpu time      0.0217: real time      0.0219
    FORCOR:  cpu time      1.4479: real time      1.4484
    OFIELD:  cpu time      0.0064: real time      0.0067

 VOLUME and BASIS-vectors are now :
 -----------------------------------------------------------------------------
  energy-cutoff  :     1000.00
  volume of cell :    10648.00
      direct lattice vectors                 reciprocal lattice vectors
    22.000000000  0.000000000  0.000000000     0.045454545  0.000000000  0.000000000
     0.000000000 22.000000000  0.000000000     0.000000000  0.045454545  0.000000000
     0.000000000  0.000000000 22.000000000     0.000000000  0.000000000  0.045454545

  length of vectors
    22.000000000 22.000000000 22.000000000     0.045454545  0.045454545  0.045454545


 FORCES acting on ions:
    Electron-Ion                     Ewald-Force                    Non-Local-Force
 -----------------------------------------------------------------------------------------------
   0.245E+02 0.425E+02 0.159E-01   -.220E+02 -.381E+02 -.124E-01   -.243E+01 -.424E+01 0.636E-03
   0.667E+02 0.592E+02 -.274E+02   -.705E+02 -.646E+02 0.303E+02   0.404E+01 0.559E+01 -.298E+01
   0.624E+02 -.702E+02 0.730E+01   -.657E+02 0.767E+02 -.749E+01   0.350E+01 -.677E+01 0.217E+00
   0.179E+02 0.876E+02 0.269E+02   -.206E+02 -.936E+02 -.297E+02   0.282E+01 0.632E+01 0.293E+01
   -.921E+02 0.186E+02 -.708E+01   0.994E+02 -.182E+02 0.725E+01   -.761E+01 -.383E+00 -.195E+00
   0.214E+03 0.149E+02 0.734E+02   -.214E+03 -.184E+02 -.904E+02   -.125E+00 0.348E+01 0.171E+02
   -.952E+02 0.192E+03 -.734E+02   0.922E+02 -.194E+03 0.903E+02   0.297E+01 0.155E+01 -.170E+02
   -.174E+03 -.303E+03 0.209E+00   0.201E+03 0.350E+03 -.228E+00   -.272E+02 -.473E+02 0.146E-01
 -----------------------------------------------------------------------------------------------
   0.240E+02 0.418E+02 -.106E+00   -.284E-13 0.000E+00 0.711E-14   -.240E+02 -.418E+02 0.106E+00


 POSITION                                       TOTAL-FORCE (eV/Angst)
 -----------------------------------------------------------------------------------
     11.13769     11.49895     11.00094         0.162934      0.274365      0.004229
      9.24993     10.65093     11.11422         0.190617      0.215405     -0.114081
      9.31407     12.30128     10.68780         0.160468     -0.251251      0.024604
     11.35317      9.44028     10.89551         0.093783      0.268027      0.106514
     12.75007     10.32741     11.31220        -0.295825      0.011423     -0.021710
      9.78540     11.40471     10.69863         0.053469      0.043722      0.156326
     11.73819     10.28413     11.30402         0.000973      0.072735     -0.151631
     11.74707     12.55972     11.00028        -0.366419     -0.634425     -0.004250
 -----------------------------------------------------------------------------------
    total drift:                                0.000259      0.000498      0.000070


--------------------------------------------------------------------------------------------------------



  FREE ENERGIE OF THE ION-ELECTRON SYSTEM (eV)
  ---------------------------------------------------
  free  energy   TOTEN  =       -51.63593540 eV

  energy  without entropy=      -51.63593540  energy(sigma->0) =      -51.63593540



--------------------------------------------------------------------------------------------------------


    POTLOK:  cpu time      1.7162: real time      1.7176


--------------------------------------------------------------------------------------------------------


 stress matrix after NEB project (eV)
      0.00000      0.00000      0.00000
      0.00000      0.00000      0.00000
      0.00000      0.00000      0.00000
  FORCES: max atom, RMS     0.732650    0.364252
  FORCE total and by dimension    1.030259    0.634425
  Stress total and by dimension    0.000000    0.000000
     LOOP+:  cpu time    162.0222: real time    162.3989
    4ORBIT:  cpu time      0.0000: real time      0.0000

 total amount of memory used by VASP MPI-rank0   131377. kBytes
=======================================================================

   base      :      30000. kBytes
   nonl-proj :       4583. kBytes
   fftplans  :      24880. kBytes
   grid      :      70194. kBytes
   one-center:          1. kBytes
   wavefun   :       1719. kBytes

  
  
 General timing and accounting informations for this job:
 ========================================================
  
                  Total CPU time used (sec):      190.568
                            User time (sec):      174.303
                          System time (sec):       16.265
                         Elapsed time (sec):      199.035
  
                   Maximum memory used (kb):      348284.
                   Average memory used (kb):          N/A
  
                          Minor page faults:       399094
                          Major page faults:          592
                 Voluntary context switches:         7387
