 vasp.6.4.1 05Apr23 (build Jun  6 2023 14:46:38) gamma-only                      
 executed on        HPECrayEX_GCC date 2024.08.22  10:29:26
 running  512 mpi-ranks, with    1 threads/rank, on    4 nodes
 distrk:  each k-point on  512 cores,    1 groups
 distr:  one band on NCORE=   2 cores,  256 groups


--------------------------------------------------------------------------------------------------------


 INCAR:
   ALGO = Conjugate
   NCORE = 2
   PREC = Accurate
   EDIFF = 1E-7
   ENCUT = 1000
   ISMEAR = 0
   SIGMA = 0.01
   ISIF = 0
   SYMPREC = 1E-7
   GGA = RP
   IVDW = 11
   LWAVE = .FALSE.
   LCHARG = .FALSE.
   LWAVE = .FALSE.
   LCHARG = .FALSE.

 POTCAR:    PAW_PBE C_h 06Feb2004                 
 POTCAR:    PAW_PBE H_h 06Feb2004                 
 POTCAR:    PAW_PBE N_h 06Feb2004                 
 POTCAR:    PAW_PBE O_h 06Feb2004                 
 POTCAR:    PAW_PBE C_h 06Feb2004                 
   VRHFIN =C: s2p2                                                                                  
   LEXCH  = PE                                                                                      
   EATOM  =   147.1560 eV,   10.8157 Ry                                                             
                                                                                                    
   TITEL  = PAW_PBE C_h 06Feb2004                                                                   
   LULTRA =        F    use ultrasoft PP ?                                                          
   IUNSCR =        1    unscreen: 0-lin 1-nonlin 2-no                                               
   RPACOR =    0.800    partial core radius                                                         
   POMASS =   12.011; ZVAL   =    4.000    mass and valenz                                          
   RCORE  =    1.100    outmost cutoff radius                                                       
   RWIGS  =    1.630; RWIGS  =    0.863    wigner-seitz radius (au A)                               
   ENMAX  =  700.000; ENMIN  =  500.000 eV                                                          
   ICORE  =        2    local potential                                                             
   LCOR   =        T    correct aug charges                                                         
   LPAW   =        T    paw PP                                                                      
   EAUG   =  946.768                                                                                
   DEXC   =    0.000                                                                                
   RMAX   =    1.128    core radius for proj-oper                                                   
   RAUG   =    1.300    factor for augmentation sphere                                              
   RDEP   =    1.162    radius for radial grids                                                     
   RDEPT  =    1.088    core radius for aug-charge                                                  
                                                                                                    
   Atomic configuration                                                                             
    4 entries                                                                                       
     n  l   j            E        occ.                                                              
     1  0  0.50      -273.3789   2.0000                                                             
     2  0  0.50       -13.7508   2.0000                                                             
     2  1  0.50        -5.2854   2.0000                                                             
     3  2  1.50        -5.4423   0.0000                                                             
   Description                                                                                      
     l       E           TYP  RCUT    TYP  RCUT                                                     
     0    -13.7508458     23  1.100                                                                 
     0     -8.2022199     23  1.100                                                                 
     1     -5.2854383     23  1.100                                                                 
     1      1.1560700     23  1.100                                                                 
     2     -5.4423304      7  1.100                                                                 
  local pseudopotential read in
  partial core-charges read in
  partial kinetic energy density read in
  atomic valenz-charges read in
  non local Contribution for L=           0  read in
    real space projection operators read in
  non local Contribution for L=           0  read in
    real space projection operators read in
  non local Contribution for L=           1  read in
    real space projection operators read in
  non local Contribution for L=           1  read in
    real space projection operators read in
    PAW grid and wavefunctions read in

   number of l-projection  operators is LMAX  =           4
   number of lm-projection operators is LMMAX =           8

 POTCAR:    PAW_PBE H_h 06Feb2004                 
   VRHFIN =H: ultrasoft test                                                                        
   LEXCH  = PE                                                                                      
   EATOM  =    12.4884 eV,    0.9179 Ry                                                             
                                                                                                    
   TITEL  = PAW_PBE H_h 06Feb2004                                                                   
   LULTRA =        F    use ultrasoft PP ?                                                          
   IUNSCR =        0    unscreen: 0-lin 1-nonlin 2-no                                               
   RPACOR =    0.000    partial core radius                                                         
   POMASS =    1.000; ZVAL   =    1.000    mass and valenz                                          
   RCORE  =    0.800    outmost cutoff radius                                                       
   RWIGS  =    0.700; RWIGS  =    0.370    wigner-seitz radius (au A)                               
   ENMAX  =  700.000; ENMIN  =  350.000 eV                                                          
   RCLOC  =    0.701    cutoff for local pot                                                        
   LCOR   =        T    correct aug charges                                                         
   LPAW   =        T    paw PP                                                                      
   EAUG   = 1000.000                                                                                
   RMAX   =    0.819    core radius for proj-oper                                                   
   RAUG   =    1.000    factor for augmentation sphere                                              
   RDEP   =    0.817    radius for radial grids                                                     
   RDEPT  =    0.817    core radius for aug-charge                                                  
                                                                                                    
   Atomic configuration                                                                             
    2 entries                                                                                       
     n  l   j            E        occ.                                                              
     1  0  0.50        -6.4927   1.0000                                                             
     2  1  0.50        -3.4015   0.0000                                                             
   Description                                                                                      
     l       E           TYP  RCUT    TYP  RCUT                                                     
     0     -6.4927493     23  0.800                                                                 
     0      6.8029130     23  0.800                                                                 
     1     -6.8029130     23  0.800                                                                 
  local pseudopotential read in
  atomic valenz-charges read in
  non local Contribution for L=           0  read in
    real space projection operators read in
  non local Contribution for L=           0  read in
    real space projection operators read in
  non local Contribution for L=           1  read in
    real space projection operators read in
    PAW grid and wavefunctions read in

   number of l-projection  operators is LMAX  =           3
   number of lm-projection operators is LMMAX =           5

 POTCAR:    PAW_PBE N_h 06Feb2004                 
   VRHFIN =N: s2p3                                                                                  
   LEXCH  = PE                                                                                      
   EATOM  =   264.5486 eV,   19.4438 Ry                                                             
                                                                                                    
   TITEL  = PAW_PBE N_h 06Feb2004                                                                   
   LULTRA =        F    use ultrasoft PP ?                                                          
   IUNSCR =        1    unscreen: 0-lin 1-nonlin 2-no                                               
   RPACOR =    0.800    partial core radius                                                         
   POMASS =   14.001; ZVAL   =    5.000    mass and valenz                                          
   RCORE  =    1.100    outmost cutoff radius                                                       
   RWIGS  =    1.480; RWIGS  =    0.783    wigner-seitz radius (au A)                               
   ENMAX  =  700.000; ENMIN  =  500.000 eV                                                          
   ICORE  =        2    local potential                                                             
   LCOR   =        T    correct aug charges                                                         
   LPAW   =        T    paw PP                                                                      
   EAUG   =  904.640                                                                                
   DEXC   =    0.000                                                                                
   RMAX   =    1.127    core radius for proj-oper                                                   
   RAUG   =    1.300    factor for augmentation sphere                                              
   RDEP   =    1.115    radius for radial grids                                                     
   RDEPT  =    1.106    core radius for aug-charge                                                  
                                                                                                    
   Atomic configuration                                                                             
    4 entries                                                                                       
     n  l   j            E        occ.                                                              
     1  0  0.50      -384.7179   2.0000                                                             
     2  0  0.50       -18.5828   2.0000                                                             
     2  1  0.50        -7.0898   3.0000                                                             
     3  2  1.50        -6.8029   0.0000                                                             
   Description                                                                                      
     l       E           TYP  RCUT    TYP  RCUT                                                     
     0    -18.5828117     23  1.100                                                                 
     0    -15.0750597     23  1.100                                                                 
     1     -7.0897851     23  1.100                                                                 
     1     -1.9663412     23  1.100                                                                 
     2     -6.8029130      7  1.100                                                                 
  local pseudopotential read in
  partial core-charges read in
  partial kinetic energy density read in
  kinetic energy density of atom read in
  atomic valenz-charges read in
  non local Contribution for L=           0  read in
    real space projection operators read in
  non local Contribution for L=           0  read in
    real space projection operators read in
  non local Contribution for L=           1  read in
    real space projection operators read in
  non local Contribution for L=           1  read in
    real space projection operators read in
    PAW grid and wavefunctions read in

   number of l-projection  operators is LMAX  =           4
   number of lm-projection operators is LMMAX =           8

 POTCAR:    PAW_PBE O_h 06Feb2004                 
   VRHFIN =O: s2p4                                                                                  
   LEXCH  = PE                                                                                      
   EATOM  =   432.3788 eV,   31.7789 Ry                                                             
                                                                                                    
   TITEL  = PAW_PBE O_h 06Feb2004                                                                   
   LULTRA =        F    use ultrasoft PP ?                                                          
   IUNSCR =        1    unscreen: 0-lin 1-nonlin 2-no                                               
   RPACOR =    0.800    partial core radius                                                         
   POMASS =   16.000; ZVAL   =    6.000    mass and valenz                                          
   RCORE  =    1.100    outmost cutoff radius                                                       
   RWIGS  =    1.400; RWIGS  =    0.741    wigner-seitz radius (au A)                               
   ENMAX  =  700.000; ENMIN  =  500.000 eV                                                          
   ICORE  =        2    local potential                                                             
   LCOR   =        T    correct aug charges                                                         
   LPAW   =        T    paw PP                                                                      
   EAUG   =  888.804                                                                                
   DEXC   =    0.000                                                                                
   RMAX   =    1.128    core radius for proj-oper                                                   
   RAUG   =    1.300    factor for augmentation sphere                                              
   RDEP   =    1.125    radius for radial grids                                                     
   RDEPT  =    1.088    core radius for aug-charge                                                  
                                                                                                    
   Atomic configuration                                                                             
    4 entries                                                                                       
     n  l   j            E        occ.                                                              
     1  0  0.50      -514.6923   2.0000                                                             
     2  0  0.50       -23.9615   2.0000                                                             
     2  1  0.50        -9.0305   4.0000                                                             
     3  2  1.50        -9.5241   0.0000                                                             
   Description                                                                                      
     l       E           TYP  RCUT    TYP  RCUT                                                     
     0    -23.9615319     23  1.100                                                                 
     0    -25.3221145     23  1.100                                                                 
     1     -9.0304911     23  1.100                                                                 
     1     -5.4802209     23  1.100                                                                 
     2     -9.5240782      7  1.100                                                                 
  local pseudopotential read in
  partial core-charges read in
  partial kinetic energy density read in
  atomic valenz-charges read in
  non local Contribution for L=           0  read in
    real space projection operators read in
  non local Contribution for L=           0  read in
    real space projection operators read in
  non local Contribution for L=           1  read in
    real space projection operators read in
  non local Contribution for L=           1  read in
    real space projection operators read in
    PAW grid and wavefunctions read in

   number of l-projection  operators is LMAX  =           4
   number of lm-projection operators is LMMAX =           8

 -----------------------------------------------------------------------------
|                                                                             |
|               ----> ADVICE to this user running VASP <----                  |
|                                                                             |
|     You enforced a specific xc type in the INCAR file but a different       |
|     type was found in the POTCAR file.                                      |
|     I HOPE YOU KNOW WHAT YOU ARE DOING!                                     |
|                                                                             |
 -----------------------------------------------------------------------------

  PAW_PBE C_h 06Feb2004                 :
 energy of atom  1       EATOM= -147.1560
 kinetic energy error for atom=    0.0031 (will be added to EATOM!!)
  PAW_PBE H_h 06Feb2004                 :
 energy of atom  2       EATOM=  -12.4884
 kinetic energy error for atom=    0.0006 (will be added to EATOM!!)
  PAW_PBE N_h 06Feb2004                 :
 energy of atom  3       EATOM= -264.5486
 kinetic energy error for atom=    0.0081 (will be added to EATOM!!)
  PAW_PBE O_h 06Feb2004                 :
 energy of atom  4       EATOM= -432.3788
 kinetic energy error for atom=    0.0171 (will be added to EATOM!!)


 POSCAR:  C  H  N  O
  positions in cartesian coordinates
  No initial velocities read in
 exchange correlation table for  LEXCH =        9
   RHO(1)=    0.500       N(1)  =     2000
   RHO(2)=  100.500       N(2)  =     4000

 VTST: version 4.1, (05/19/21)

 CHAIN: initializing optimizer
 
 OPT: Using VASP Dynamics algorithm
 CHAIN: Read ICHAIN            0

 POSCAR:  C  H  N  O
  positions in cartesian coordinates
  No initial velocities read in



--------------------------------------------------------------------------------------------------------


 ion  position               nearest neighbor table
   1  0.506  0.523  0.500-   8 1.22   7 1.39   6 1.39
   2  0.420  0.484  0.505-   6 1.01
   3  0.423  0.559  0.486-   6 1.01
   4  0.516  0.429  0.495-   7 1.01
   5  0.580  0.469  0.514-   7 1.01
   6  0.445  0.518  0.486-   3 1.01   2 1.01   1 1.39
   7  0.534  0.467  0.514-   5 1.01   4 1.01   1 1.39
   8  0.534  0.571  0.500-   1 1.22

  LATTYP: Found a simple cubic cell.
 ALAT       =    22.0000000000
  
  Lattice vectors:
  
 A1 = (  22.0000000000,   0.0000000000,   0.0000000000)
 A2 = (   0.0000000000,  22.0000000000,   0.0000000000)
 A3 = (   0.0000000000,   0.0000000000,  22.0000000000)


Analysis of symmetry for initial positions (statically):
=====================================================================
 Subroutine PRICEL returns:
 Original cell was already a primitive cell.
 

 Routine SETGRP: Setting up the symmetry group for a 
 simple cubic supercell.


 Subroutine GETGRP returns: Found  1 space group operations
 (whereof  1 operations were pure point group operations)
 out of a pool of 48 trial point group operations.


The static configuration has the point symmetry C_1 .


Analysis of symmetry for dynamics (positions and initial velocities):
=====================================================================
 Subroutine PRICEL returns:
 Original cell was already a primitive cell.
 

 Routine SETGRP: Setting up the symmetry group for a 
 simple cubic supercell.


 Subroutine GETGRP returns: Found  1 space group operations
 (whereof  1 operations were pure point group operations)
 out of a pool of 48 trial point group operations.


The dynamic configuration has the point symmetry C_1 .


 Subroutine INISYM returns: Found  1 space group operations
 (whereof  1 operations are pure point group operations),
 and found     1 'primitive' translations


----------------------------------------------------------------------------------------

                                     Primitive cell                                     

  volume of cell :   10648.0000

  direct lattice vectors                    reciprocal lattice vectors
    22.000000000  0.000000000  0.000000000     0.045454545  0.000000000  0.000000000
     0.000000000 22.000000000  0.000000000     0.000000000  0.045454545  0.000000000
     0.000000000  0.000000000 22.000000000     0.000000000  0.000000000  0.045454545

  length of vectors
    22.000000000 22.000000000 22.000000000     0.045454545  0.045454545  0.045454545

  position of ions in fractional coordinates (direct lattice)
     0.506258636  0.522679545  0.500042727
     0.420451364  0.484133182  0.505191818
     0.423366818  0.559149091  0.485809091
     0.516053182  0.429103636  0.495250455
     0.579548636  0.469427727  0.514190909
     0.444790909  0.518395909  0.486301364
     0.533554091  0.467460455  0.513819091
     0.533957727  0.570896364  0.500012727

  ion indices of the primitive-cell ions
   primitive index   ion index
                 1           1
                 2           2
                 3           3
                 4           4
                 5           5
                 6           6
                 7           7
                 8           8

----------------------------------------------------------------------------------------



 KPOINTS: auto                                    

Automatic generation of k-mesh.
 Grid dimensions read from file:
 generate k-points for:    1    1    1

 Generating k-lattice:

  Cartesian coordinates                     Fractional coordinates (reciprocal lattice)
     0.045454545  0.000000000  0.000000000     1.000000000  0.000000000  0.000000000
     0.000000000  0.045454545  0.000000000     0.000000000  1.000000000  0.000000000
     0.000000000  0.000000000  0.045454545     0.000000000  0.000000000  1.000000000

  Length of vectors
     0.045454545  0.045454545  0.045454545

  Shift w.r.t. Gamma in fractional coordinates (k-lattice)
     0.000000000  0.000000000  0.000000000

 
 Subroutine IBZKPT returns following result:
 ===========================================
 
 Found      1 irreducible k-points:
 
 Following reciprocal coordinates:
            Coordinates               Weight
  0.000000  0.000000  0.000000      1.000000
 
 Following cartesian coordinates:
            Coordinates               Weight
  0.000000  0.000000  0.000000      1.000000
 


--------------------------------------------------------------------------------------------------------




 Dimension of arrays:
   k-points           NKPTS =      1   k-points in BZ     NKDIM =      1   number of bands    NBANDS=    256
   number of dos      NEDOS =    301   number of ions     NIONS =      8
   non local maximal  LDIM  =      4   non local SUM 2l+1 LMDIM =      8
   total plane-waves  NPLWV = ******
   max r-space proj   IRMAX =      1   max aug-charges    IRDMAX=   9667
   dimension x,y,z NGX =   240 NGY =  240 NGZ =  240
   dimension x,y,z NGXF=   480 NGYF=  480 NGZF=  480
   support grid    NGXF=   480 NGYF=  480 NGZF=  480
   ions per type =               1   4   2   1
   NGX,Y,Z   is equivalent  to a cutoff of  18.14, 18.14, 18.14 a.u.
   NGXF,Y,Z  is equivalent  to a cutoff of  36.27, 36.27, 36.27 a.u.

 SYSTEM =  unknown system                          
 POSCAR =   C  H  N  O                             

 Startparameter for this run:
   NWRITE =      2    write-flag & timer
   PREC   = accura    normal or accurate (medium, high low for compatibility)
   ISTART =      0    job   : 0-new  1-cont  2-samecut
   ICHARG =      2    charge: 1-file 2-atom 10-const
   ISPIN  =      1    spin polarized calculation?
   LNONCOLLINEAR =      F non collinear calculations
   LSORBIT =      F    spin-orbit coupling
   INIWAV =      1    electr: 0-lowe 1-rand  2-diag
   LASPH  =      F    aspherical Exc in radial PAW
 Electronic Relaxation 1
   ENCUT  = 1000.0 eV  73.50 Ry    8.57 a.u.  56.73 56.73 56.73*2*pi/ulx,y,z
   ENINI  = 1000.0     initial cutoff
   ENAUG  = 1000.0 eV  augmentation charge cutoff
   NELM   =     60;   NELMIN=  2; NELMDL= -5     # of ELM steps 
   EDIFF  = 0.1E-06   stopping-criterion for ELM
   LREAL  =      F    real-space projection
   NLSPLINE    = F    spline interpolate recip. space projectors
   LCOMPAT=      F    compatible to vasp.4.4
   GGA_COMPAT  = T    GGA compatible to vasp.4.4-vasp.4.6
   LMAXPAW     = -100 max onsite density
   LMAXMIX     =    2 max onsite mixed and CHGCAR
   VOSKOWN=      0    Vosko Wilk Nusair interpolation
   ROPT   =    0.00000   0.00000   0.00000   0.00000
 Ionic relaxation
   EDIFFG = 0.1E-05   stopping-criterion for IOM
   NSW    =      0    number of steps for IOM
   NBLOCK =      1;   KBLOCK =      1    inner block; outer block 
   IBRION =     -1    ionic relax: 0-MD 1-quasi-New 2-CG
   NFREE  =      0    steps in history (QN), initial steepest desc. (CG)
   ISIF   =      0    stress and relaxation
   IWAVPR =     10    prediction:  0-non 1-charg 2-wave 3-comb
   ISYM   =      2    0-nonsym 1-usesym 2-fastsym
   LCORR  =      T    Harris-Foulkes like correction to forces

   POTIM  = 0.5000    time-step for ionic-motion
   TEIN   =    0.0    initial temperature
   TEBEG  =    0.0;   TEEND  =   0.0 temperature during run
   SMASS  =  -3.00    Nose mass-parameter (am)
   estimated Nose-frequenzy (Omega)   =  0.10E-29 period in steps = 0.13E+47 mass=  -0.111E-25a.u.
   SCALEE = 1.0000    scale energy and forces
   NPACO  =    256;   APACO  = 10.0  distance and # of slots for P.C.
   PSTRESS=    0.0 pullay stress

  Mass of Ions in am
   POMASS =  12.01  1.00 14.00 16.00
  Ionic Valenz
   ZVAL   =   4.00  1.00  5.00  6.00
  Atomic Wigner-Seitz radii
   RWIGS  =  -1.00 -1.00 -1.00 -1.00
  virtual crystal weights 
   VCA    =   1.00  1.00  1.00  1.00
   NELECT =      24.0000    total number of electrons
   NUPDOWN=      -1.0000    fix difference up-down

 DOS related values:
   EMIN   =  10.00;   EMAX   =-10.00  energy-range for DOS
   EFERMI =   0.00;   METHOD = LEGACY      
   ISMEAR =     0;   SIGMA  =   0.01  broadening in eV -4-tet -1-fermi 0-gaus

 Electronic relaxation 2 (details)
   IALGO  =     58    algorithm
   LDIAG  =      T    sub-space diagonalisation (order eigenvalues)
   LSUBROT=      F    optimize rotation matrix (better conditioning)
   TURBO    =      0    0=normal 1=particle mesh
   IRESTART =      0    0=no restart 2=restart with 2 vectors
   NREBOOT  =      0    no. of reboots
   NMIN     =      0    reboot dimension
   EREF     =   0.00    reference energy to select bands
   IMIX   =      4    mixing-type and parameters
     AMIX     =   0.40;   BMIX     =  1.00
     AMIX_MAG =   1.60;   BMIX_MAG =  1.00
     AMIN     =   0.10
     WC   =   100.;   INIMIX=   1;  MIXPRE=   1;  MAXMIX= -45

 Intra band minimization:
   WEIMIN = 0.0000     energy-eigenvalue tresh-hold
   EBREAK =  0.98E-10  absolut break condition
   DEPER  =   0.30     relativ break condition  

   TIME   =   0.40     timestep for ELM

  volume/ion in A,a.u.               =    1331.00      8982.03
  Fermi-wavevector in a.u.,A,eV,Ry     =   0.214646  0.405622  0.626859  0.046073
  Thomas-Fermi vector in A             =   0.987905

 Write flags
   LWAVE        =      F    write WAVECAR
   LDOWNSAMPLE  =      F    k-point downsampling of WAVECAR
   LCHARG       =      F    write CHGCAR
   LVTOT        =      F    write LOCPOT, total local potential
   LVHAR        =      F    write LOCPOT, Hartree potential only
   LELF         =      F    write electronic localiz. function (ELF)
   LORBIT       =      0    0 simple, 1 ext, 2 COOP (PROOUT), +10 PAW based schemes


 Dipole corrections
   LMONO  =      F    monopole corrections only (constant potential shift)
   LDIPOL =      F    correct potential (dipole corrections)
   IDIPOL =      0    1-x, 2-y, 3-z, 4-all directions 
   EPSILON=  1.0000000 bulk dielectric constant

 Exchange correlation treatment:
   GGA     =    RP    GGA type
   LEXCH   =     9    internal setting for exchange type
   LIBXC   =     F    Libxc                    
   VOSKOWN =     0    Vosko Wilk Nusair interpolation
   LHFCALC =     F    Hartree Fock is set to
   LHFONE  =     F    Hartree Fock one center treatment
   AEXX    =    0.0000 exact exchange contribution

 Linear response parameters
   LEPSILON=     F    determine dielectric tensor
   LRPA    =     F    only Hartree local field effects (RPA)
   LNABLA  =     F    use nabla operator in PAW spheres
   LVEL    =     F    velocity operator in full k-point grid
   CSHIFT  =0.1000    complex shift for real part using Kramers Kronig
   OMEGAMAX=  -1.0    maximum frequency
   DEG_THRESHOLD= 0.2000000E-02 threshold for treating states as degnerate
   RTIME   =   -0.100 relaxation time in fs
  (WPLASMAI=    0.000 imaginary part of plasma frequency in eV, 0.658/RTIME)
   DFIELD  = 0.0000000 0.0000000 0.0000000 field for delta impulse in time

  Optional k-point grid parameters
   LKPOINTS_OPT  =     F    use optional k-point grid
   KPOINTS_OPT_MODE=     1    mode for optional k-point grid

 Orbital magnetization related:
   ORBITALMAG=     F  switch on orbital magnetization
   LCHIMAG   =     F  perturbation theory with respect to B field
   DQ        =  0.001000  dq finite difference perturbation B field
   LLRAUG    =     F  two centre corrections for induced B field
   LBONE     =     F  B-component reconstruction in AE one-centre
   LVGVCALC  =     T  calculate vGv susceptibility
   LVGVAPPL  =     F  apply vGv susceptibility instead of pGv for G=0

 Random number generation:
   RANDOM_GENERATOR = DEFAULT
   PCG_SEED         = not used


--------------------------------------------------------------------------------------------------------


 Static calculation
 charge density and potential will be updated during run
 non-spin polarized calculation
 Conjugate gradient for all bands (Freysoldt, et al. PRB 79, 241103 (2009))
 preconditioned conjugated gradient                                        
 perform sub-space diagonalisation
    before iterative eigenvector-optimisation
 modified Broyden-mixing scheme, WC =      100.0
 initial mixing is a Kerker type mixing with AMIX =  0.4000 and BMIX =      1.0000
 Hartree-type preconditioning will be used
 using additional bands          244
 reciprocal scheme for non local part
 use partial core corrections
 no Harris-corrections to forces 
 use gradient corrections 
 use of overlap-Matrix (Vanderbilt PP)
 Gauss-broadening in eV      SIGMA  =   0.01


--------------------------------------------------------------------------------------------------------


  energy-cutoff  :     1000.00
  volume of cell :    10648.00
      direct lattice vectors                 reciprocal lattice vectors
    22.000000000  0.000000000  0.000000000     0.045454545  0.000000000  0.000000000
     0.000000000 22.000000000  0.000000000     0.000000000  0.045454545  0.000000000
     0.000000000  0.000000000 22.000000000     0.000000000  0.000000000  0.045454545

  length of vectors
    22.000000000 22.000000000 22.000000000     0.045454545  0.045454545  0.045454545



 k-points in units of 2pi/SCALE and weight: auto                                    
   0.00000000  0.00000000  0.00000000       1.000

 k-points in reciprocal lattice and weights: auto                                    
   0.00000000  0.00000000  0.00000000       1.000

 position of ions in fractional coordinates (direct lattice) 
   0.50625864  0.52267955  0.50004273
   0.42045136  0.48413318  0.50519182
   0.42336682  0.55914909  0.48580909
   0.51605318  0.42910364  0.49525045
   0.57954864  0.46942773  0.51419091
   0.44479091  0.51839591  0.48630136
   0.53355409  0.46746045  0.51381909
   0.53395773  0.57089636  0.50001273

 position of ions in cartesian coordinates  (Angst):
  11.13769000 11.49895000 11.00094000
   9.24993000 10.65093000 11.11422000
   9.31407000 12.30128000 10.68780000
  11.35317000  9.44028000 10.89551000
  12.75007000 10.32741000 11.31220000
   9.78540000 11.40471000 10.69863000
  11.73819000 10.28413000 11.30402000
  11.74707000 12.55972000 11.00028000



--------------------------------------------------------------------------------------------------------


 use parallel FFT for orbitals z direction half grid
 k-point   1 :   0.0000 0.0000 0.0000  plane waves:  381993

 maximum and minimum number of plane-waves per node :    191003   190990

 maximum number of plane-waves:    381993
 maximum index in each direction: 
   IXMAX=   56   IYMAX=   56   IZMAX=   56
   IXMIN=  -56   IYMIN=  -56   IZMIN=    0


 parallel 3D FFT for wavefunctions:
    minimum data exchange during FFTs selected (reduces bandwidth)
 parallel 3D FFT for charge:
    minimum data exchange during FFTs selected (reduces bandwidth)


 total amount of memory used by VASP MPI-rank0   557982. kBytes
=======================================================================

   base      :      30000. kBytes
   nonl-proj :      73433. kBytes
   fftplans  :     151777. kBytes
   grid      :     293583. kBytes
   one-center:          6. kBytes
   wavefun   :       9183. kBytes

     INWAV:  cpu time      0.0001: real time      0.0001
 Broyden mixing: mesh for mixing (old mesh)
   NGX =113   NGY =113   NGZ =113
  (NGX  =480   NGY  =480   NGZ  =480)
  gives a total of ****** points

 initial charge density was supplied:
 charge density of overlapping atoms calculated
 number of electron      24.0000000 magnetization 
 keeping initial charge density in first step


--------------------------------------------------------------------------------------------------------


 Maximum index for augmentation-charges            0 (set IRDMAX)


--------------------------------------------------------------------------------------------------------


 First call to EWALD:  gamma=   0.081
 Maximum number of real-space cells 3x 3x 3
 Maximum number of reciprocal cells 3x 3x 3

    FEWALD:  cpu time      0.0048: real time      0.0048


--------------------------------------- Ionic step        1  -------------------------------------------




--------------------------------------- Iteration      1(   1)  ---------------------------------------


    POTLOK:  cpu time      0.8663: real time      0.8686
    SETDIJ:  cpu time      0.0106: real time      0.0110
    TRIAL :  cpu time      5.3364: real time      5.3397
    CORREC:  cpu time      0.0030: real time      0.0030
    --------------------------------------------
      LOOP:  cpu time      6.2266: real time      6.2331

 eigenvalue-minimisations  :   512
 total energy-change (2. order) : 0.2764703E+03  (-0.1073236E+04)
 number of electron      24.0000000 magnetization 
 augmentation part       24.0000000 magnetization 

 Free energy of the ion-electron system (eV)
  ---------------------------------------------------
  alpha Z        PSCENC =         0.15477404
  Ewald energy   TEWEN  =      1354.52000889
  -Hartree energ DENC   =     -2215.13506272
  -exchange      EXHF   =         0.00000000
  -V(xc)+E(xc)   XCENC  =        74.98035991
  PAW double counting   =       880.35424629     -873.04552705
  entropy T*S    EENTRO =        -0.00758443
  eigenvalues    EBANDS =      -104.10366141
  atomic energy  EATOM  =      1158.75271068
  ---------------------------------------------------
  free energy    TOTEN  =       276.47026421 eV

  energy without entropy =      276.47784863  energy(sigma->0) =      276.47405642


--------------------------------------------------------------------------------------------------------




--------------------------------------- Iteration      1(   2)  ---------------------------------------


    TRIAL :  cpu time     14.2248: real time     14.2331
    CORREC:  cpu time      0.0002: real time      0.0002
    --------------------------------------------
      LOOP:  cpu time     14.2387: real time     14.2647

 eigenvalue-minimisations  :  1024
 total energy-change (2. order) :-0.3238297E+03  (-0.3210860E+03)
 number of electron      24.0000000 magnetization 
 augmentation part       24.0000000 magnetization 

 Free energy of the ion-electron system (eV)
  ---------------------------------------------------
  alpha Z        PSCENC =         0.15477404
  Ewald energy   TEWEN  =      1354.52000889
  -Hartree energ DENC   =     -2215.13506272
  -exchange      EXHF   =         0.00000000
  -V(xc)+E(xc)   XCENC  =        74.98035991
  PAW double counting   =       880.35424629     -873.04552705
  entropy T*S    EENTRO =        -0.00000000
  eigenvalues    EBANDS =      -427.94090924
  atomic energy  EATOM  =      1158.75271068
  ---------------------------------------------------
  free energy    TOTEN  =       -47.35939920 eV

  energy without entropy =      -47.35939920  energy(sigma->0) =      -47.35939920


--------------------------------------------------------------------------------------------------------




--------------------------------------- Iteration      1(   3)  ---------------------------------------


    TRIAL :  cpu time      5.4951: real time      5.4983
    CORREC:  cpu time      0.0002: real time      0.0002
    --------------------------------------------
      LOOP:  cpu time      5.5218: real time      5.5293

 eigenvalue-minimisations  :   512
 total energy-change (2. order) :-0.4951551E+01  (-0.4951551E+01)
 number of electron      24.0000000 magnetization 
 augmentation part       24.0000000 magnetization 

 Free energy of the ion-electron system (eV)
  ---------------------------------------------------
  alpha Z        PSCENC =         0.15477404
  Ewald energy   TEWEN  =      1354.52000889
  -Hartree energ DENC   =     -2215.13506272
  -exchange      EXHF   =         0.00000000
  -V(xc)+E(xc)   XCENC  =        74.98035991
  PAW double counting   =       880.35424629     -873.04552705
  entropy T*S    EENTRO =        -0.00000000
  eigenvalues    EBANDS =      -432.89246004
  atomic energy  EATOM  =      1158.75271068
  ---------------------------------------------------
  free energy    TOTEN  =       -52.31094999 eV

  energy without entropy =      -52.31094999  energy(sigma->0) =      -52.31094999


--------------------------------------------------------------------------------------------------------




--------------------------------------- Iteration      1(   4)  ---------------------------------------


    TRIAL :  cpu time     14.0029: real time     14.0104
    CORREC:  cpu time      0.0002: real time      0.0002
    --------------------------------------------
      LOOP:  cpu time     14.0351: real time     14.0428

 eigenvalue-minimisations  :  1024
 total energy-change (2. order) :-0.3716378E-01  (-0.3716378E-01)
 number of electron      24.0000000 magnetization 
 augmentation part       24.0000000 magnetization 

 Free energy of the ion-electron system (eV)
  ---------------------------------------------------
  alpha Z        PSCENC =         0.15477404
  Ewald energy   TEWEN  =      1354.52000889
  -Hartree energ DENC   =     -2215.13506272
  -exchange      EXHF   =         0.00000000
  -V(xc)+E(xc)   XCENC  =        74.98035991
  PAW double counting   =       880.35424629     -873.04552705
  entropy T*S    EENTRO =        -0.00000000
  eigenvalues    EBANDS =      -432.92962382
  atomic energy  EATOM  =      1158.75271068
  ---------------------------------------------------
  free energy    TOTEN  =       -52.34811377 eV

  energy without entropy =      -52.34811377  energy(sigma->0) =      -52.34811377


--------------------------------------------------------------------------------------------------------




--------------------------------------- Iteration      1(   5)  ---------------------------------------


    TRIAL :  cpu time      5.4873: real time      5.4902
    CORREC:  cpu time      0.0002: real time      0.0002
    CHARGE:  cpu time      1.4180: real time      1.4199
    --------------------------------------------
      LOOP:  cpu time      6.9191: real time      6.9416

 eigenvalue-minimisations  :   512
 total energy-change (2. order) :-0.1555043E-05  (-0.1557212E-05)
 number of electron      24.0000000 magnetization 
 augmentation part        0.0838621 magnetization 

 Free energy of the ion-electron system (eV)
  ---------------------------------------------------
  alpha Z        PSCENC =         0.15477404
  Ewald energy   TEWEN  =      1354.52000889
  -Hartree energ DENC   =     -2215.13506272
  -exchange      EXHF   =         0.00000000
  -V(xc)+E(xc)   XCENC  =        74.98035991
  PAW double counting   =       880.35424629     -873.04552705
  entropy T*S    EENTRO =        -0.00000000
  eigenvalues    EBANDS =      -432.92962537
  atomic energy  EATOM  =      1158.75271068
  ---------------------------------------------------
  free energy    TOTEN  =       -52.34811533 eV

  energy without entropy =      -52.34811533  energy(sigma->0) =      -52.34811533


--------------------------------------------------------------------------------------------------------




--------------------------------------- Iteration      1(   6)  ---------------------------------------


    POTLOK:  cpu time      0.4738: real time      0.4744
    SETDIJ:  cpu time      0.0017: real time      0.0017
    TRIAL :  cpu time      2.6666: real time      2.6699
    CORREC:  cpu time      2.5795: real time      2.5821
    CHARGE:  cpu time      1.3824: real time      1.3833
    --------------------------------------------
      LOOP:  cpu time      7.1210: real time      7.1412

 eigenvalue-minimisations  :     0
 total energy-change (2. order) : 0.1191018E+02  (-0.5284504E+01)
 number of electron      24.0000000 magnetization 
 augmentation part        0.0339236 magnetization 

 Free energy of the ion-electron system (eV)
  ---------------------------------------------------
  alpha Z        PSCENC =         0.15477404
  Ewald energy   TEWEN  =      1354.52000889
  -Hartree energ DENC   =     -2432.27658863
  -exchange      EXHF   =         0.00000000
  -V(xc)+E(xc)   XCENC  =        84.93516935
  PAW double counting   =      9784.58195570    -9778.47239110
  entropy T*S    EENTRO =        -0.00000000
  eigenvalues    EBANDS =      -212.63357559
  atomic energy  EATOM  =      1158.75271068
  ---------------------------------------------------
  free energy    TOTEN  =       -40.43793666 eV

  energy without entropy =      -40.43793666  energy(sigma->0) =      -40.43793666


--------------------------------------------------------------------------------------------------------




--------------------------------------- Iteration      1(   7)  ---------------------------------------


    POTLOK:  cpu time      0.4634: real time      0.4634
    SETDIJ:  cpu time      0.0017: real time      0.0017
    TRIAL :  cpu time      2.5439: real time      2.5460
    CORREC:  cpu time      2.5454: real time      2.5465
    CHARGE:  cpu time      1.3878: real time      1.3885
    --------------------------------------------
      LOOP:  cpu time      6.9729: real time      6.9769

 eigenvalue-minimisations  :     0
 total energy-change (2. order) :-0.5311828E+01  (-0.7732899E+00)
 number of electron      24.0000000 magnetization 
 augmentation part        0.0087732 magnetization 

 Free energy of the ion-electron system (eV)
  ---------------------------------------------------
  alpha Z        PSCENC =         0.15477404
  Ewald energy   TEWEN  =      1354.52000889
  -Hartree energ DENC   =     -2337.91491679
  -exchange      EXHF   =         0.00000000
  -V(xc)+E(xc)   XCENC  =        80.53741893
  PAW double counting   =     13507.32183611   -13500.58791366
  entropy T*S    EENTRO =        -0.00000000
  eigenvalues    EBANDS =      -308.53368245
  atomic energy  EATOM  =      1158.75271068
  ---------------------------------------------------
  free energy    TOTEN  =       -45.74976424 eV

  energy without entropy =      -45.74976424  energy(sigma->0) =      -45.74976424


--------------------------------------------------------------------------------------------------------




--------------------------------------- Iteration      1(   8)  ---------------------------------------


    POTLOK:  cpu time      0.4599: real time      0.4599
    SETDIJ:  cpu time      0.0019: real time      0.0019
    TRIAL :  cpu time      2.5390: real time      2.5410
    CORREC:  cpu time      2.5774: real time      2.5784
    CHARGE:  cpu time      1.3705: real time      1.3712
    --------------------------------------------
      LOOP:  cpu time      6.9615: real time      6.9834

 eigenvalue-minimisations  :     0
 total energy-change (2. order) :-0.7773152E+00  (-0.4209875E+00)
 number of electron      24.0000000 magnetization 
 augmentation part        0.0081708 magnetization 

 Free energy of the ion-electron system (eV)
  ---------------------------------------------------
  alpha Z        PSCENC =         0.15477404
  Ewald energy   TEWEN  =      1354.52000889
  -Hartree energ DENC   =     -2333.67298081
  -exchange      EXHF   =         0.00000000
  -V(xc)+E(xc)   XCENC  =        80.31157765
  PAW double counting   =     13696.53506665   -13689.69437113
  entropy T*S    EENTRO =        -0.00000000
  eigenvalues    EBANDS =      -313.43386543
  atomic energy  EATOM  =      1158.75271068
  ---------------------------------------------------
  free energy    TOTEN  =       -46.52707946 eV

  energy without entropy =      -46.52707946  energy(sigma->0) =      -46.52707946


--------------------------------------------------------------------------------------------------------




--------------------------------------- Iteration      1(   9)  ---------------------------------------


    POTLOK:  cpu time      0.4688: real time      0.4688
    SETDIJ:  cpu time      0.0016: real time      0.0016
    TRIAL :  cpu time      2.5416: real time      2.5436
    CORREC:  cpu time      2.5571: real time      2.5579
    CHARGE:  cpu time      1.3723: real time      1.3729
    --------------------------------------------
      LOOP:  cpu time      6.9550: real time      6.9752

 eigenvalue-minimisations  :     0
 total energy-change (2. order) :-0.4112021E+00  (-0.1470463E+00)
 number of electron      24.0000000 magnetization 
 augmentation part        0.0120369 magnetization 

 Free energy of the ion-electron system (eV)
  ---------------------------------------------------
  alpha Z        PSCENC =         0.15477404
  Ewald energy   TEWEN  =      1354.52000889
  -Hartree energ DENC   =     -2325.94078936
  -exchange      EXHF   =         0.00000000
  -V(xc)+E(xc)   XCENC  =        79.97172863
  PAW double counting   =     13810.70192004   -13803.82809554
  entropy T*S    EENTRO =        -0.00000000
  eigenvalues    EBANDS =      -321.27053897
  atomic energy  EATOM  =      1158.75271068
  ---------------------------------------------------
  free energy    TOTEN  =       -46.93828159 eV

  energy without entropy =      -46.93828159  energy(sigma->0) =      -46.93828159


--------------------------------------------------------------------------------------------------------




--------------------------------------- Iteration      1(  10)  ---------------------------------------


    POTLOK:  cpu time      0.4715: real time      0.4715
    SETDIJ:  cpu time      0.0016: real time      0.0016
    TRIAL :  cpu time      2.5392: real time      2.5412
    CORREC:  cpu time      2.5463: real time      2.5470
    CHARGE:  cpu time      1.3819: real time      1.3826
    --------------------------------------------
      LOOP:  cpu time      6.9737: real time      6.9773

 eigenvalue-minimisations  :     0
 total energy-change (2. order) :-0.1455298E+00  (-0.4112993E-01)
 number of electron      24.0000000 magnetization 
 augmentation part        0.0141630 magnetization 

 Free energy of the ion-electron system (eV)
  ---------------------------------------------------
  alpha Z        PSCENC =         0.15477404
  Ewald energy   TEWEN  =      1354.52000889
  -Hartree energ DENC   =     -2320.85818761
  -exchange      EXHF   =         0.00000000
  -V(xc)+E(xc)   XCENC  =        79.80165615
  PAW double counting   =     13198.03658364   -13191.17784249
  entropy T*S    EENTRO =        -0.00000000
  eigenvalues    EBANDS =      -326.31351470
  atomic energy  EATOM  =      1158.75271068
  ---------------------------------------------------
  free energy    TOTEN  =       -47.08381140 eV

  energy without entropy =      -47.08381140  energy(sigma->0) =      -47.08381140


--------------------------------------------------------------------------------------------------------




--------------------------------------- Iteration      1(  11)  ---------------------------------------


    POTLOK:  cpu time      0.4797: real time      0.4797
    SETDIJ:  cpu time      0.0016: real time      0.0016
    TRIAL :  cpu time      2.5382: real time      2.5397
    CORREC:  cpu time      2.5505: real time      2.5511
    CHARGE:  cpu time      1.3760: real time      1.3766
    --------------------------------------------
      LOOP:  cpu time      6.9613: real time      6.9792

 eigenvalue-minimisations  :     0
 total energy-change (2. order) :-0.4113035E-01  (-0.1240652E-01)
 number of electron      24.0000000 magnetization 
 augmentation part        0.0148579 magnetization 

 Free energy of the ion-electron system (eV)
  ---------------------------------------------------
  alpha Z        PSCENC =         0.15477404
  Ewald energy   TEWEN  =      1354.52000889
  -Hartree energ DENC   =     -2319.81828777
  -exchange      EXHF   =         0.00000000
  -V(xc)+E(xc)   XCENC  =        79.77281566
  PAW double counting   =     12757.16531488   -12750.32705663
  entropy T*S    EENTRO =        -0.00000000
  eigenvalues    EBANDS =      -327.34522150
  atomic energy  EATOM  =      1158.75271068
  ---------------------------------------------------
  free energy    TOTEN  =       -47.12494175 eV

  energy without entropy =      -47.12494175  energy(sigma->0) =      -47.12494175


--------------------------------------------------------------------------------------------------------




--------------------------------------- Iteration      1(  12)  ---------------------------------------


    POTLOK:  cpu time      0.4637: real time      0.4637
    SETDIJ:  cpu time      0.0016: real time      0.0016
    TRIAL :  cpu time      2.5525: real time      2.5540
    CORREC:  cpu time      2.5306: real time      2.5313
    CHARGE:  cpu time      1.3817: real time      1.3822
    --------------------------------------------
      LOOP:  cpu time      6.9442: real time      6.9637

 eigenvalue-minimisations  :     0
 total energy-change (2. order) :-0.1241959E-01  (-0.3896908E-02)
 number of electron      24.0000000 magnetization 
 augmentation part        0.0144888 magnetization 

 Free energy of the ion-electron system (eV)
  ---------------------------------------------------
  alpha Z        PSCENC =         0.15477404
  Ewald energy   TEWEN  =      1354.52000889
  -Hartree energ DENC   =     -2319.46427862
  -exchange      EXHF   =         0.00000000
  -V(xc)+E(xc)   XCENC  =        79.75221526
  PAW double counting   =     12651.31673799   -12644.48499804
  entropy T*S    EENTRO =        -0.00000000
  eigenvalues    EBANDS =      -327.68453153
  atomic energy  EATOM  =      1158.75271068
  ---------------------------------------------------
  free energy    TOTEN  =       -47.13736133 eV

  energy without entropy =      -47.13736133  energy(sigma->0) =      -47.13736133


--------------------------------------------------------------------------------------------------------




--------------------------------------- Iteration      1(  13)  ---------------------------------------


    POTLOK:  cpu time      0.4589: real time      0.4589
    SETDIJ:  cpu time      0.0022: real time      0.0022
    TRIAL :  cpu time      2.5362: real time      2.5379
    CORREC:  cpu time      2.5444: real time      2.5449
    CHARGE:  cpu time      1.3787: real time      1.3793
    --------------------------------------------
      LOOP:  cpu time      6.9349: real time      6.9551

 eigenvalue-minimisations  :     0
 total energy-change (2. order) :-0.3898656E-02  (-0.1404440E-02)
 number of electron      24.0000000 magnetization 
 augmentation part        0.0139921 magnetization 

 Free energy of the ion-electron system (eV)
  ---------------------------------------------------
  alpha Z        PSCENC =         0.15477404
  Ewald energy   TEWEN  =      1354.52000889
  -Hartree energ DENC   =     -2319.58284913
  -exchange      EXHF   =         0.00000000
  -V(xc)+E(xc)   XCENC  =        79.75652417
  PAW double counting   =     12674.28454737   -12667.45288485
  entropy T*S    EENTRO =        -0.00000000
  eigenvalues    EBANDS =      -327.57409116
  atomic energy  EATOM  =      1158.75271068
  ---------------------------------------------------
  free energy    TOTEN  =       -47.14125999 eV

  energy without entropy =      -47.14125999  energy(sigma->0) =      -47.14125999


--------------------------------------------------------------------------------------------------------




--------------------------------------- Iteration      1(  14)  ---------------------------------------


    POTLOK:  cpu time      0.4622: real time      0.4623
    SETDIJ:  cpu time      0.0016: real time      0.0016
    TRIAL :  cpu time      2.5381: real time      2.5394
    CORREC:  cpu time      2.5386: real time      2.5393
    CHARGE:  cpu time      1.3682: real time      1.3689
    --------------------------------------------
      LOOP:  cpu time      6.9258: real time      6.9421

 eigenvalue-minimisations  :     0
 total energy-change (2. order) :-0.1402270E-02  (-0.5382939E-03)
 number of electron      24.0000000 magnetization 
 augmentation part        0.0138307 magnetization 

 Free energy of the ion-electron system (eV)
  ---------------------------------------------------
  alpha Z        PSCENC =         0.15477404
  Ewald energy   TEWEN  =      1354.52000889
  -Hartree energ DENC   =     -2319.77164719
  -exchange      EXHF   =         0.00000000
  -V(xc)+E(xc)   XCENC  =        79.76388005
  PAW double counting   =     12720.58527623   -12713.75175035
  entropy T*S    EENTRO =        -0.00000000
  eigenvalues    EBANDS =      -327.39591461
  atomic energy  EATOM  =      1158.75271068
  ---------------------------------------------------
  free energy    TOTEN  =       -47.14266226 eV

  energy without entropy =      -47.14266226  energy(sigma->0) =      -47.14266226


--------------------------------------------------------------------------------------------------------




--------------------------------------- Iteration      1(  15)  ---------------------------------------


    POTLOK:  cpu time      0.4504: real time      0.4505
    SETDIJ:  cpu time      0.0016: real time      0.0016
    TRIAL :  cpu time      2.5409: real time      2.5422
    CORREC:  cpu time      2.5352: real time      2.5360
    CHARGE:  cpu time      1.3780: real time      1.3783
    --------------------------------------------
      LOOP:  cpu time      6.9191: real time      6.9391

 eigenvalue-minimisations  :     0
 total energy-change (2. order) :-0.5371382E-03  (-0.1818143E-03)
 number of electron      24.0000000 magnetization 
 augmentation part        0.0138562 magnetization 

 Free energy of the ion-electron system (eV)
  ---------------------------------------------------
  alpha Z        PSCENC =         0.15477404
  Ewald energy   TEWEN  =      1354.52000889
  -Hartree energ DENC   =     -2320.04435535
  -exchange      EXHF   =         0.00000000
  -V(xc)+E(xc)   XCENC  =        79.77433988
  PAW double counting   =     12741.16507356   -12734.33105058
  entropy T*S    EENTRO =        -0.00000000
  eigenvalues    EBANDS =      -327.13470052
  atomic energy  EATOM  =      1158.75271068
  ---------------------------------------------------
  free energy    TOTEN  =       -47.14319940 eV

  energy without entropy =      -47.14319940  energy(sigma->0) =      -47.14319940


--------------------------------------------------------------------------------------------------------




--------------------------------------- Iteration      1(  16)  ---------------------------------------


    POTLOK:  cpu time      0.4522: real time      0.4522
    SETDIJ:  cpu time      0.0019: real time      0.0019
    TRIAL :  cpu time      2.5384: real time      2.5397
    CORREC:  cpu time      2.5329: real time      2.5337
    CHARGE:  cpu time      1.3874: real time      1.3877
    --------------------------------------------
      LOOP:  cpu time      6.9263: real time      6.9473

 eigenvalue-minimisations  :     0
 total energy-change (2. order) :-0.1819426E-03  (-0.5209254E-04)
 number of electron      24.0000000 magnetization 
 augmentation part        0.0139310 magnetization 

 Free energy of the ion-electron system (eV)
  ---------------------------------------------------
  alpha Z        PSCENC =         0.15477404
  Ewald energy   TEWEN  =      1354.52000889
  -Hartree energ DENC   =     -2320.12750029
  -exchange      EXHF   =         0.00000000
  -V(xc)+E(xc)   XCENC  =        79.77751440
  PAW double counting   =     12739.35289613   -12732.51884779
  entropy T*S    EENTRO =        -0.00000000
  eigenvalues    EBANDS =      -327.05493741
  atomic energy  EATOM  =      1158.75271068
  ---------------------------------------------------
  free energy    TOTEN  =       -47.14338134 eV

  energy without entropy =      -47.14338134  energy(sigma->0) =      -47.14338134


--------------------------------------------------------------------------------------------------------




--------------------------------------- Iteration      1(  17)  ---------------------------------------


    POTLOK:  cpu time      0.4477: real time      0.4480
    SETDIJ:  cpu time      0.0016: real time      0.0016
    TRIAL :  cpu time      2.5416: real time      2.5428
    CORREC:  cpu time      2.5387: real time      2.5402
    CHARGE:  cpu time      1.3860: real time      1.3865
    --------------------------------------------
      LOOP:  cpu time      6.9287: real time      6.9493

 eigenvalue-minimisations  :     0
 total energy-change (2. order) :-0.5232976E-04  (-0.1515005E-04)
 number of electron      24.0000000 magnetization 
 augmentation part        0.0139809 magnetization 

 Free energy of the ion-electron system (eV)
  ---------------------------------------------------
  alpha Z        PSCENC =         0.15477404
  Ewald energy   TEWEN  =      1354.52000889
  -Hartree energ DENC   =     -2320.15678434
  -exchange      EXHF   =         0.00000000
  -V(xc)+E(xc)   XCENC  =        79.77866692
  PAW double counting   =     12734.10940714   -12727.27553350
  entropy T*S    EENTRO =        -0.00000000
  eigenvalues    EBANDS =      -327.02668351
  atomic energy  EATOM  =      1158.75271068
  ---------------------------------------------------
  free energy    TOTEN  =       -47.14343367 eV

  energy without entropy =      -47.14343367  energy(sigma->0) =      -47.14343367


--------------------------------------------------------------------------------------------------------




--------------------------------------- Iteration      1(  18)  ---------------------------------------


    POTLOK:  cpu time      0.4481: real time      0.4483
    SETDIJ:  cpu time      0.0016: real time      0.0016
    TRIAL :  cpu time      2.5363: real time      2.5375
    CORREC:  cpu time      2.5206: real time      2.5219
    CHARGE:  cpu time      1.3809: real time      1.3813
    --------------------------------------------
      LOOP:  cpu time      6.9188: real time      6.9220

 eigenvalue-minimisations  :     0
 total energy-change (2. order) :-0.1527567E-04  (-0.4664251E-05)
 number of electron      24.0000000 magnetization 
 augmentation part        0.0139883 magnetization 

 Free energy of the ion-electron system (eV)
  ---------------------------------------------------
  alpha Z        PSCENC =         0.15477404
  Ewald energy   TEWEN  =      1354.52000889
  -Hartree energ DENC   =     -2320.16826442
  -exchange      EXHF   =         0.00000000
  -V(xc)+E(xc)   XCENC  =        79.77919808
  PAW double counting   =     12733.19209728   -12726.35835823
  entropy T*S    EENTRO =        -0.00000000
  eigenvalues    EBANDS =      -327.01561528
  atomic energy  EATOM  =      1158.75271068
  ---------------------------------------------------
  free energy    TOTEN  =       -47.14344895 eV

  energy without entropy =      -47.14344895  energy(sigma->0) =      -47.14344895


--------------------------------------------------------------------------------------------------------




--------------------------------------- Iteration      1(  19)  ---------------------------------------


    POTLOK:  cpu time      0.4534: real time      0.4537
    SETDIJ:  cpu time      0.0019: real time      0.0019
    TRIAL :  cpu time      2.5371: real time      2.5382
    CORREC:  cpu time      2.5363: real time      2.5377
    CHARGE:  cpu time      1.3843: real time      1.3847
    --------------------------------------------
      LOOP:  cpu time      6.9310: real time      6.9465

 eigenvalue-minimisations  :     0
 total energy-change (2. order) :-0.4707625E-05  (-0.1584849E-05)
 number of electron      24.0000000 magnetization 
 augmentation part        0.0139949 magnetization 

 Free energy of the ion-electron system (eV)
  ---------------------------------------------------
  alpha Z        PSCENC =         0.15477404
  Ewald energy   TEWEN  =      1354.52000889
  -Hartree energ DENC   =     -2320.14984857
  -exchange      EXHF   =         0.00000000
  -V(xc)+E(xc)   XCENC  =        79.77846730
  PAW double counting   =     12735.41952696   -12728.58570172
  entropy T*S    EENTRO =        -0.00000000
  eigenvalues    EBANDS =      -327.03339123
  atomic energy  EATOM  =      1158.75271068
  ---------------------------------------------------
  free energy    TOTEN  =       -47.14345365 eV

  energy without entropy =      -47.14345365  energy(sigma->0) =      -47.14345365


--------------------------------------------------------------------------------------------------------




--------------------------------------- Iteration      1(  20)  ---------------------------------------


    POTLOK:  cpu time      0.4544: real time      0.4547
    SETDIJ:  cpu time      0.0016: real time      0.0016
    TRIAL :  cpu time      2.5391: real time      2.5403
    CORREC:  cpu time      2.5459: real time      2.5471
    CHARGE:  cpu time      1.3769: real time      1.3774
    --------------------------------------------
      LOOP:  cpu time      6.9340: real time      6.9509

 eigenvalue-minimisations  :     0
 total energy-change (2. order) :-0.1574961E-05  (-0.4914374E-06)
 number of electron      24.0000000 magnetization 
 augmentation part        0.0139983 magnetization 

 Free energy of the ion-electron system (eV)
  ---------------------------------------------------
  alpha Z        PSCENC =         0.15477404
  Ewald energy   TEWEN  =      1354.52000889
  -Hartree energ DENC   =     -2320.14659874
  -exchange      EXHF   =         0.00000000
  -V(xc)+E(xc)   XCENC  =        79.77839007
  PAW double counting   =     12737.49113905   -12730.65731971
  entropy T*S    EENTRO =        -0.00000000
  eigenvalues    EBANDS =      -327.03655951
  atomic energy  EATOM  =      1158.75271068
  ---------------------------------------------------
  free energy    TOTEN  =       -47.14345523 eV

  energy without entropy =      -47.14345523  energy(sigma->0) =      -47.14345523


--------------------------------------------------------------------------------------------------------




--------------------------------------- Iteration      1(  21)  ---------------------------------------


    POTLOK:  cpu time      0.4469: real time      0.4473
    SETDIJ:  cpu time      0.0021: real time      0.0021
    TRIAL :  cpu time      2.5396: real time      2.5408
    CORREC:  cpu time      2.5341: real time      2.5353
    CHARGE:  cpu time      1.3907: real time      1.3910
    --------------------------------------------
      LOOP:  cpu time      6.9292: real time      6.9480

 eigenvalue-minimisations  :     0
 total energy-change (2. order) :-0.4833364E-06  (-0.1512686E-06)
 number of electron      24.0000000 magnetization 
 augmentation part        0.0140013 magnetization 

 Free energy of the ion-electron system (eV)
  ---------------------------------------------------
  alpha Z        PSCENC =         0.15477404
  Ewald energy   TEWEN  =      1354.52000889
  -Hartree energ DENC   =     -2320.14125140
  -exchange      EXHF   =         0.00000000
  -V(xc)+E(xc)   XCENC  =        79.77818114
  PAW double counting   =     12738.18634888   -12731.35253302
  entropy T*S    EENTRO =        -0.00000000
  eigenvalues    EBANDS =      -327.04169493
  atomic energy  EATOM  =      1158.75271068
  ---------------------------------------------------
  free energy    TOTEN  =       -47.14345571 eV

  energy without entropy =      -47.14345571  energy(sigma->0) =      -47.14345571


--------------------------------------------------------------------------------------------------------




--------------------------------------- Iteration      1(  22)  ---------------------------------------


    POTLOK:  cpu time      0.4421: real time      0.4424
    SETDIJ:  cpu time      0.0017: real time      0.0017
    TRIAL :  cpu time      2.5430: real time      2.5445
    CORREC:  cpu time      2.5308: real time      2.5322
    CHARGE:  cpu time      1.3767: real time      1.3770
    --------------------------------------------
      LOOP:  cpu time      6.9086: real time      6.9284

 eigenvalue-minimisations  :     0
 total energy-change (2. order) :-0.1425142E-06  (-0.5674016E-07)
 number of electron      24.0000000 magnetization 
 augmentation part        0.0140035 magnetization 

 Free energy of the ion-electron system (eV)
  ---------------------------------------------------
  alpha Z        PSCENC =         0.15477404
  Ewald energy   TEWEN  =      1354.52000889
  -Hartree energ DENC   =     -2320.13947465
  -exchange      EXHF   =         0.00000000
  -V(xc)+E(xc)   XCENC  =        79.77810115
  PAW double counting   =     12737.94856329   -12731.11476281
  entropy T*S    EENTRO =        -0.00000000
  eigenvalues    EBANDS =      -327.04337645
  atomic energy  EATOM  =      1158.75271068
  ---------------------------------------------------
  free energy    TOTEN  =       -47.14345585 eV

  energy without entropy =      -47.14345585  energy(sigma->0) =      -47.14345585


--------------------------------------------------------------------------------------------------------




--------------------------------------- Iteration      1(  23)  ---------------------------------------


    POTLOK:  cpu time      0.4550: real time      0.4555
    SETDIJ:  cpu time      0.0016: real time      0.0016
    TRIAL :  cpu time      2.5377: real time      2.5388
    CORREC:  cpu time      2.5239: real time      2.5256
    EDDIAG:  cpu time      1.0912: real time      1.0917
    CHARGE:  cpu time      1.3802: real time      1.3808
    --------------------------------------------
      LOOP:  cpu time      8.0044: real time      8.0247

 eigenvalue-minimisations  :     0
 total energy-change (2. order) :-0.4305184E-07  (-0.5292750E-07)
 number of electron      24.0000000 magnetization 
 augmentation part        0.0140031 magnetization 

 Free energy of the ion-electron system (eV)
  ---------------------------------------------------
  alpha Z        PSCENC =         0.15477404
  Ewald energy   TEWEN  =      1354.52000889
  -Hartree energ DENC   =     -2320.13984745
  -exchange      EXHF   =         0.00000000
  -V(xc)+E(xc)   XCENC  =        79.77810739
  PAW double counting   =     12737.48297249   -12730.64918686
  entropy T*S    EENTRO =        -0.00000000
  eigenvalues    EBANDS =      -327.04299508
  atomic energy  EATOM  =      1158.75271068
  ---------------------------------------------------
  free energy    TOTEN  =       -47.14345590 eV

  energy without entropy =      -47.14345590  energy(sigma->0) =      -47.14345590


--------------------------------------------------------------------------------------------------------


  average scaling for gradient   1.8799


 average (electrostatic) potential at core
  the test charge radii are     0.5770  0.4325  0.5902  0.5955
  (the norm of the test charge is              1.0000)
       1 -89.2507       2 -47.6197       3 -47.4080       4 -47.6217       5 -47.4121
       6-104.2946       7-104.2956       8-118.4865



 E-fermi :  -5.8236     XC(G=0):  -0.1250     alpha+bet : -0.0451

 Fermi energy:        -5.8235881280

 k-point     1 :       0.0000    0.0000    0.0000
  band No.  band energies     occupation 
      1     -26.0739      2.00000
      2     -22.9519      2.00000
      3     -21.9815      2.00000
      4     -15.1552      2.00000
      5     -13.5233      2.00000
      6     -13.2116      2.00000
      7     -11.4537      2.00000
      8     -10.2697      2.00000
      9      -9.8763      2.00000
     10      -6.5944      2.00000
     11      -6.5606      2.00000
     12      -5.8694      2.00000
     13      -1.0586      0.00000
     14      -0.4095      0.00000
     15      -0.0126      0.00000
     16       0.0448      0.00000
     17       0.0982      0.00000
     18       0.3097      0.00000
     19       0.3219      0.00000
     20       0.3276      0.00000
     21       0.3944      0.00000
     22       0.4051      0.00000
     23       0.4578      0.00000
     24       0.5545      0.00000
     25       0.5683      0.00000
     26       0.5816      0.00000
     27       0.6024      0.00000
     28       0.6304      0.00000
     29       0.6353      0.00000
     30       0.6423      0.00000
     31       0.6485      0.00000
     32       0.6576      0.00000
     33       0.7562      0.00000
     34       0.7856      0.00000
     35       0.8437      0.00000
     36       0.8558      0.00000
     37       0.8820      0.00000
     38       0.8898      0.00000
     39       0.9211      0.00000
     40       0.9253      0.00000
     41       0.9509      0.00000
     42       1.0459      0.00000
     43       1.0778      0.00000
     44       1.0816      0.00000
     45       1.1633      0.00000
     46       1.1755      0.00000
     47       1.2695      0.00000
     48       1.3207      0.00000
     49       1.3386      0.00000
     50       1.3449      0.00000
     51       1.3642      0.00000
     52       1.3810      0.00000
     53       1.4111      0.00000
     54       1.4422      0.00000
     55       1.4490      0.00000
     56       1.5109      0.00000
     57       1.5258      0.00000
     58       1.5327      0.00000
     59       1.5355      0.00000
     60       1.5573      0.00000
     61       1.5574      0.00000
     62       1.5680      0.00000
     63       1.5687      0.00000
     64       1.5728      0.00000
     65       1.5780      0.00000
     66       1.5787      0.00000
     67       1.5813      0.00000
     68       1.5884      0.00000
     69       1.5905      0.00000
     70       1.5936      0.00000
     71       1.6840      0.00000
     72       1.7187      0.00000
     73       1.7256      0.00000
     74       1.7386      0.00000
     75       1.7517      0.00000
     76       1.7639      0.00000
     77       1.7781      0.00000
     78       1.7911      0.00000
     79       1.8082      0.00000
     80       1.8201      0.00000
     81       1.8472      0.00000
     82       1.8586      0.00000
     83       1.8601      0.00000
     84       1.8720      0.00000
     85       1.8752      0.00000
     86       1.8763      0.00000
     87       1.8791      0.00000
     88       1.8824      0.00000
     89       1.8830      0.00000
     90       1.8915      0.00000
     91       1.8921      0.00000
     92       1.8938      0.00000
     93       1.8954      0.00000
     94       1.9020      0.00000
     95       2.0902      0.00000
     96       2.1186      0.00000
     97       2.1656      0.00000
     98       2.3077      0.00000
     99       2.3236      0.00000
    100       2.3299      0.00000
    101       2.3354      0.00000
    102       2.4054      0.00000
    103       2.4226      0.00000
    104       2.4269      0.00000
    105       2.4346      0.00000
    106       2.4697      0.00000
    107       2.5142      0.00000
    108       2.5438      0.00000
    109       2.5647      0.00000
    110       2.5906      0.00000
    111       2.6153      0.00000
    112       2.6284      0.00000
    113       2.6327      0.00000
    114       2.6380      0.00000
    115       2.6680      0.00000
    116       2.6921      0.00000
    117       2.7032      0.00000
    118       2.7257      0.00000
    119       2.7448      0.00000
    120       2.7637      0.00000
    121       2.7662      0.00000
    122       2.7680      0.00000
    123       2.7918      0.00000
    124       2.7928      0.00000
    125       2.7971      0.00000
    126       2.8015      0.00000
    127       2.8062      0.00000
    128       2.8081      0.00000
    129       2.8109      0.00000
    130       2.8157      0.00000
    131       2.8175      0.00000
    132       2.8208      0.00000
    133       2.8216      0.00000
    134       2.8257      0.00000
    135       2.8274      0.00000
    136       2.8280      0.00000
    137       2.9016      0.00000
    138       2.9072      0.00000
    139       2.9509      0.00000
    140       2.9531      0.00000
    141       2.9903      0.00000
    142       3.0106      0.00000
    143       3.0291      0.00000
    144       3.0424      0.00000
    145       3.0489      0.00000
    146       3.0572      0.00000
    147       3.0608      0.00000
    148       3.0661      0.00000
    149       3.0810      0.00000
    150       3.0829      0.00000
    151       3.0945      0.00000
    152       3.1002      0.00000
    153       3.1117      0.00000
    154       3.1135      0.00000
    155       3.1251      0.00000
    156       3.1264      0.00000
    157       3.1304      0.00000
    158       3.1310      0.00000
    159       3.1358      0.00000
    160       3.1368      0.00000
    161       3.2272      0.00000
    162       3.2413      0.00000
    163       3.2554      0.00000
    164       3.3130      0.00000
    165       3.3180      0.00000
    166       3.3334      0.00000
    167       3.3349      0.00000
    168       3.3474      0.00000
    169       3.3589      0.00000
    170       3.3617      0.00000
    171       3.3739      0.00000
    172       3.3778      0.00000
    173       3.3865      0.00000
    174       3.3887      0.00000
    175       3.3965      0.00000
    176       3.4005      0.00000
    177       3.4021      0.00000
    178       3.4133      0.00000
    179       3.4222      0.00000
    180       3.4226      0.00000
    181       3.4308      0.00000
    182       3.4322      0.00000
    183       3.4339      0.00000
    184       3.4375      0.00000
    185       3.5403      0.00000
    186       3.5577      0.00000
    187       3.5685      0.00000
    188       3.6244      0.00000
    189       3.6486      0.00000
    190       3.6609      0.00000
    191       3.6779      0.00000
    192       3.6934      0.00000
    193       3.7248      0.00000
    194       3.7371      0.00000
    195       3.7637      0.00000
    196       3.8110      0.00000
    197       3.8234      0.00000
    198       3.8482      0.00000
    199       3.8742      0.00000
    200       3.8835      0.00000
    201       3.8899      0.00000
    202       3.9436      0.00000
    203       3.9664      0.00000
    204       3.9750      0.00000
    205       4.0082      0.00000
    206       4.0164      0.00000
    207       4.0198      0.00000
    208       4.0264      0.00000
    209       4.0310      0.00000
    210       4.0362      0.00000
    211       4.0457      0.00000
    212       4.0458      0.00000
    213       4.0508      0.00000
    214       4.0522      0.00000
    215       4.0584      0.00000
    216       4.0611      0.00000
    217       4.0998      0.00000
    218       4.1196      0.00000
    219       4.1437      0.00000
    220       4.1501      0.00000
    221       4.1859      0.00000
    222       4.1922      0.00000
    223       4.1992      0.00000
    224       4.2138      0.00000
    225       4.2316      0.00000
    226       4.2411      0.00000
    227       4.2524      0.00000
    228       4.2666      0.00000
    229       4.2751      0.00000
    230       4.2822      0.00000
    231       4.2866      0.00000
    232       4.2947      0.00000
    233       4.3052      0.00000
    234       4.3078      0.00000
    235       4.3138      0.00000
    236       4.3223      0.00000
    237       4.3300      0.00000
    238       4.3368      0.00000
    239       4.3415      0.00000
    240       4.3442      0.00000
    241       4.3475      0.00000
    242       4.3559      0.00000
    243       4.3606      0.00000
    244       4.3628      0.00000
    245       4.3643      0.00000
    246       4.3674      0.00000
    247       4.3684      0.00000
    248       4.3717      0.00000
    249       4.3769      0.00000
    250       4.3786      0.00000
    251       4.3823      0.00000
    252       4.3881      0.00000
    253       4.3902      0.00000
    254       4.5051      0.00000
    255       4.5150      0.00000
    256       4.6267      0.00000


--------------------------------------------------------------------------------------------------------


 soft charge-density along one line, spin component           1
         0         1         2         3         4         5         6         7         8         9
 total charge-density along one line

 pseudopotential strength for first ion, spin component:           1
 12.851  21.630  -0.005  -0.000  -0.003  -0.010  -0.000  -0.006
 21.630  36.404  -0.009  -0.000  -0.005  -0.016  -0.000  -0.009
 -0.005  -0.009  -3.133   0.000  -0.000  -5.620   0.000  -0.000
 -0.000  -0.000   0.000  -3.134  -0.000   0.000  -5.621  -0.000
 -0.003  -0.005  -0.000  -0.000  -3.133  -0.000  -0.000  -5.620
 -0.010  -0.016  -5.620   0.000  -0.000 -10.058   0.000  -0.001
 -0.000  -0.000   0.000  -5.621  -0.000   0.000 -10.059  -0.000
 -0.006  -0.009  -0.000  -0.000  -5.620  -0.001  -0.000 -10.057
 total augmentation occupancy for first ion, spin component:           1
  9.448  -3.631   1.383  -0.000   0.797  -0.653   0.000  -0.376
 -3.631   1.480  -0.660   0.000  -0.381   0.320  -0.000   0.185
  1.383  -0.660   9.468  -0.496   1.290  -3.545   0.214  -0.571
 -0.000   0.000  -0.496   3.636   0.855   0.214  -1.068  -0.369
  0.797  -0.381   1.290   0.855   7.963  -0.571  -0.369  -2.878
 -0.653   0.320  -3.545   0.214  -0.571   1.361  -0.088   0.255
  0.000  -0.000   0.214  -1.068  -0.369  -0.088   0.318   0.152
 -0.376   0.185  -0.571  -0.369  -2.878   0.255   0.152   1.063


------------------------ aborting loop because EDIFF is reached ----------------------------------------


    FORLOC:  cpu time      0.0217: real time      0.0217
    FORNL :  cpu time      0.2192: real time      0.2195
    FORCOR:  cpu time      0.2602: real time      0.2604
    OFIELD:  cpu time      0.0028: real time      0.0028

 ---------------------------------------------------------------------------------------------

         DFTD3 V3.0 Rev 1        
 IVDW         = 11
 DF rpbe      
 parameters
 VDW_S6       =    1.0000
 VDW_S8       =    0.5140
 VDW_SR       =    0.8720
 rs18     =    1.0000
 alpha6   =   14.0000
 alpha8   =   16.0000
 k1-k3    =   16.0000    1.3333   -4.0000
 VDW_RADIUS   =   50.2022 A
 VDW_CNRADIUS =   21.1671 A
 Edisp (eV)   -0.16887

 E6    (eV) :    -0.1478
 E8    (eV) :    -0.0211
 % E8        : 12.48
    FORVDW:  cpu time      0.0670: real time      0.0674

 VOLUME and BASIS-vectors are now :
 -----------------------------------------------------------------------------
  energy-cutoff  :     1000.00
  volume of cell :    10648.00
      direct lattice vectors                 reciprocal lattice vectors
    22.000000000  0.000000000  0.000000000     0.045454545  0.000000000  0.000000000
     0.000000000 22.000000000  0.000000000     0.000000000  0.045454545  0.000000000
     0.000000000  0.000000000 22.000000000     0.000000000  0.000000000  0.045454545

  length of vectors
    22.000000000 22.000000000 22.000000000     0.045454545  0.045454545  0.045454545


 FORCES acting on ions:
    Electron-Ion                     Ewald-Force                    Non-Local-Force
 -----------------------------------------------------------------------------------------------
   0.242E+02 0.421E+02 0.161E-01   -.220E+02 -.381E+02 -.124E-01   -.244E+01 -.426E+01 0.498E-03
   0.665E+02 0.591E+02 -.273E+02   -.705E+02 -.646E+02 0.303E+02   0.397E+01 0.551E+01 -.294E+01
   0.623E+02 -.700E+02 0.729E+01   -.657E+02 0.767E+02 -.749E+01   0.344E+01 -.668E+01 0.213E+00
   0.178E+02 0.873E+02 0.268E+02   -.206E+02 -.936E+02 -.297E+02   0.279E+01 0.622E+01 0.289E+01
   -.918E+02 0.186E+02 -.707E+01   0.994E+02 -.182E+02 0.725E+01   -.751E+01 -.382E+00 -.192E+00
   0.214E+03 0.149E+02 0.737E+02   -.214E+03 -.184E+02 -.904E+02   -.135E+00 0.342E+01 0.168E+02
   -.950E+02 0.192E+03 -.737E+02   0.922E+02 -.194E+03 0.903E+02   0.292E+01 0.151E+01 -.167E+02
   -.174E+03 -.303E+03 0.208E+00   0.201E+03 0.350E+03 -.228E+00   -.267E+02 -.464E+02 0.145E-01
 -----------------------------------------------------------------------------------------------
   0.236E+02 0.411E+02 -.104E+00   -.284E-13 0.000E+00 0.711E-14   -.236E+02 -.411E+02 0.104E+00


 POSITION                                       TOTAL-FORCE (eV/Angst)
 -----------------------------------------------------------------------------------
     11.13769     11.49895     11.00094        -0.011577     -0.028823      0.004136
      9.24993     10.65093     11.11422        -0.035521     -0.042329      0.018135
      9.31407     12.30128     10.68780        -0.020133      0.045552      0.015140
     11.35317      9.44028     10.89551        -0.016362     -0.057902     -0.023263
     12.75007     10.32741     11.31220         0.051651      0.004512     -0.013183
      9.78540     11.40471     10.69863        -0.313388     -0.050978     -0.121073
     11.73819     10.28413     11.30402         0.105698     -0.291044      0.124874
     11.74707     12.55972     11.00028         0.239632      0.421013     -0.004768
 -----------------------------------------------------------------------------------
    total drift:                               -0.000012      0.000008     -0.000023


--------------------------------------------------------------------------------------------------------



  FREE ENERGIE OF THE ION-ELECTRON SYSTEM (eV)
  ---------------------------------------------------
  free  energy   TOTEN  =       -47.31232792 eV

  energy  without entropy=      -47.31232792  energy(sigma->0) =      -47.31232792



--------------------------------------------------------------------------------------------------------


    POTLOK:  cpu time      0.4678: real time      0.4681


--------------------------------------------------------------------------------------------------------


 stress matrix after NEB project (eV)
      0.03192      0.04614      0.01519
      0.04614      0.08571     -0.00895
      0.01519     -0.00895      0.00750
  FORCES: max atom, RMS     0.484457    0.243859
  FORCE total and by dimension    0.689737    0.421013
  Stress total and by dimension    0.115332    0.085713
     LOOP+:  cpu time    174.1645: real time    174.5553
    4ORBIT:  cpu time      0.0000: real time      0.0000

 total amount of memory used by VASP MPI-rank0   557982. kBytes
=======================================================================

   base      :      30000. kBytes
   nonl-proj :      73433. kBytes
   fftplans  :     151777. kBytes
   grid      :     293583. kBytes
   one-center:          6. kBytes
   wavefun   :       9183. kBytes

  
  
 General timing and accounting informations for this job:
 ========================================================
  
                  Total CPU time used (sec):      241.405
                            User time (sec):      211.679
                          System time (sec):       29.726
                         Elapsed time (sec):      262.543
  
                   Maximum memory used (kb):      826888.
                   Average memory used (kb):          N/A
  
                          Minor page faults:      1232445
                          Major page faults:         1164
                 Voluntary context switches:        12238
