 vasp.6.4.1 05Apr23 (build Jun  6 2023 14:46:38) gamma-only                      
 executed on        HPECrayEX_GCC date 2024.08.22  10:21:48
 running  512 mpi-ranks, with    1 threads/rank, on    4 nodes
 distrk:  each k-point on  512 cores,    1 groups
 distr:  one band on NCORE= 128 cores,    4 groups


--------------------------------------------------------------------------------------------------------


 INCAR:
   ALGO = Conjugate
   NPAR = 4
   ISMEAR = 0
   SIGMA = 0.01
   PREC = Accurate
   EDIFF = 1E-7
   ENCUT = 1000
   ISIF = 0
   IVDW = 2
   SYMPREC = 1E-7
   LWAVE = .FALSE.
   LCHARG = .FALSE.

 POTCAR:    PAW_PBE C_h 06Feb2004                 
 POTCAR:    PAW_PBE H_h 06Feb2004                 
 POTCAR:    PAW_PBE N_h 06Feb2004                 
 POTCAR:    PAW_PBE O_h 06Feb2004                 
 POTCAR:    PAW_PBE C_h 06Feb2004                 
   VRHFIN =C: s2p2                                                                                  
   LEXCH  = PE                                                                                      
   EATOM  =   147.1560 eV,   10.8157 Ry                                                             
                                                                                                    
   TITEL  = PAW_PBE C_h 06Feb2004                                                                   
   LULTRA =        F    use ultrasoft PP ?                                                          
   IUNSCR =        1    unscreen: 0-lin 1-nonlin 2-no                                               
   RPACOR =    0.800    partial core radius                                                         
   POMASS =   12.011; ZVAL   =    4.000    mass and valenz                                          
   RCORE  =    1.100    outmost cutoff radius                                                       
   RWIGS  =    1.630; RWIGS  =    0.863    wigner-seitz radius (au A)                               
   ENMAX  =  700.000; ENMIN  =  500.000 eV                                                          
   ICORE  =        2    local potential                                                             
   LCOR   =        T    correct aug charges                                                         
   LPAW   =        T    paw PP                                                                      
   EAUG   =  946.768                                                                                
   DEXC   =    0.000                                                                                
   RMAX   =    1.128    core radius for proj-oper                                                   
   RAUG   =    1.300    factor for augmentation sphere                                              
   RDEP   =    1.162    radius for radial grids                                                     
   RDEPT  =    1.088    core radius for aug-charge                                                  
                                                                                                    
   Atomic configuration                                                                             
    4 entries                                                                                       
     n  l   j            E        occ.                                                              
     1  0  0.50      -273.3789   2.0000                                                             
     2  0  0.50       -13.7508   2.0000                                                             
     2  1  0.50        -5.2854   2.0000                                                             
     3  2  1.50        -5.4423   0.0000                                                             
   Description                                                                                      
     l       E           TYP  RCUT    TYP  RCUT                                                     
     0    -13.7508458     23  1.100                                                                 
     0     -8.2022199     23  1.100                                                                 
     1     -5.2854383     23  1.100                                                                 
     1      1.1560700     23  1.100                                                                 
     2     -5.4423304      7  1.100                                                                 
  local pseudopotential read in
  partial core-charges read in
  partial kinetic energy density read in
  atomic valenz-charges read in
  non local Contribution for L=           0  read in
    real space projection operators read in
  non local Contribution for L=           0  read in
    real space projection operators read in
  non local Contribution for L=           1  read in
    real space projection operators read in
  non local Contribution for L=           1  read in
    real space projection operators read in
    PAW grid and wavefunctions read in

   number of l-projection  operators is LMAX  =           4
   number of lm-projection operators is LMMAX =           8

 POTCAR:    PAW_PBE H_h 06Feb2004                 
   VRHFIN =H: ultrasoft test                                                                        
   LEXCH  = PE                                                                                      
   EATOM  =    12.4884 eV,    0.9179 Ry                                                             
                                                                                                    
   TITEL  = PAW_PBE H_h 06Feb2004                                                                   
   LULTRA =        F    use ultrasoft PP ?                                                          
   IUNSCR =        0    unscreen: 0-lin 1-nonlin 2-no                                               
   RPACOR =    0.000    partial core radius                                                         
   POMASS =    1.000; ZVAL   =    1.000    mass and valenz                                          
   RCORE  =    0.800    outmost cutoff radius                                                       
   RWIGS  =    0.700; RWIGS  =    0.370    wigner-seitz radius (au A)                               
   ENMAX  =  700.000; ENMIN  =  350.000 eV                                                          
   RCLOC  =    0.701    cutoff for local pot                                                        
   LCOR   =        T    correct aug charges                                                         
   LPAW   =        T    paw PP                                                                      
   EAUG   = 1000.000                                                                                
   RMAX   =    0.819    core radius for proj-oper                                                   
   RAUG   =    1.000    factor for augmentation sphere                                              
   RDEP   =    0.817    radius for radial grids                                                     
   RDEPT  =    0.817    core radius for aug-charge                                                  
                                                                                                    
   Atomic configuration                                                                             
    2 entries                                                                                       
     n  l   j            E        occ.                                                              
     1  0  0.50        -6.4927   1.0000                                                             
     2  1  0.50        -3.4015   0.0000                                                             
   Description                                                                                      
     l       E           TYP  RCUT    TYP  RCUT                                                     
     0     -6.4927493     23  0.800                                                                 
     0      6.8029130     23  0.800                                                                 
     1     -6.8029130     23  0.800                                                                 
  local pseudopotential read in
  atomic valenz-charges read in
  non local Contribution for L=           0  read in
    real space projection operators read in
  non local Contribution for L=           0  read in
    real space projection operators read in
  non local Contribution for L=           1  read in
    real space projection operators read in
    PAW grid and wavefunctions read in

   number of l-projection  operators is LMAX  =           3
   number of lm-projection operators is LMMAX =           5

 POTCAR:    PAW_PBE N_h 06Feb2004                 
   VRHFIN =N: s2p3                                                                                  
   LEXCH  = PE                                                                                      
   EATOM  =   264.5486 eV,   19.4438 Ry                                                             
                                                                                                    
   TITEL  = PAW_PBE N_h 06Feb2004                                                                   
   LULTRA =        F    use ultrasoft PP ?                                                          
   IUNSCR =        1    unscreen: 0-lin 1-nonlin 2-no                                               
   RPACOR =    0.800    partial core radius                                                         
   POMASS =   14.001; ZVAL   =    5.000    mass and valenz                                          
   RCORE  =    1.100    outmost cutoff radius                                                       
   RWIGS  =    1.480; RWIGS  =    0.783    wigner-seitz radius (au A)                               
   ENMAX  =  700.000; ENMIN  =  500.000 eV                                                          
   ICORE  =        2    local potential                                                             
   LCOR   =        T    correct aug charges                                                         
   LPAW   =        T    paw PP                                                                      
   EAUG   =  904.640                                                                                
   DEXC   =    0.000                                                                                
   RMAX   =    1.127    core radius for proj-oper                                                   
   RAUG   =    1.300    factor for augmentation sphere                                              
   RDEP   =    1.115    radius for radial grids                                                     
   RDEPT  =    1.106    core radius for aug-charge                                                  
                                                                                                    
   Atomic configuration                                                                             
    4 entries                                                                                       
     n  l   j            E        occ.                                                              
     1  0  0.50      -384.7179   2.0000                                                             
     2  0  0.50       -18.5828   2.0000                                                             
     2  1  0.50        -7.0898   3.0000                                                             
     3  2  1.50        -6.8029   0.0000                                                             
   Description                                                                                      
     l       E           TYP  RCUT    TYP  RCUT                                                     
     0    -18.5828117     23  1.100                                                                 
     0    -15.0750597     23  1.100                                                                 
     1     -7.0897851     23  1.100                                                                 
     1     -1.9663412     23  1.100                                                                 
     2     -6.8029130      7  1.100                                                                 
  local pseudopotential read in
  partial core-charges read in
  partial kinetic energy density read in
  kinetic energy density of atom read in
  atomic valenz-charges read in
  non local Contribution for L=           0  read in
    real space projection operators read in
  non local Contribution for L=           0  read in
    real space projection operators read in
  non local Contribution for L=           1  read in
    real space projection operators read in
  non local Contribution for L=           1  read in
    real space projection operators read in
    PAW grid and wavefunctions read in

   number of l-projection  operators is LMAX  =           4
   number of lm-projection operators is LMMAX =           8

 POTCAR:    PAW_PBE O_h 06Feb2004                 
   VRHFIN =O: s2p4                                                                                  
   LEXCH  = PE                                                                                      
   EATOM  =   432.3788 eV,   31.7789 Ry                                                             
                                                                                                    
   TITEL  = PAW_PBE O_h 06Feb2004                                                                   
   LULTRA =        F    use ultrasoft PP ?                                                          
   IUNSCR =        1    unscreen: 0-lin 1-nonlin 2-no                                               
   RPACOR =    0.800    partial core radius                                                         
   POMASS =   16.000; ZVAL   =    6.000    mass and valenz                                          
   RCORE  =    1.100    outmost cutoff radius                                                       
   RWIGS  =    1.400; RWIGS  =    0.741    wigner-seitz radius (au A)                               
   ENMAX  =  700.000; ENMIN  =  500.000 eV                                                          
   ICORE  =        2    local potential                                                             
   LCOR   =        T    correct aug charges                                                         
   LPAW   =        T    paw PP                                                                      
   EAUG   =  888.804                                                                                
   DEXC   =    0.000                                                                                
   RMAX   =    1.128    core radius for proj-oper                                                   
   RAUG   =    1.300    factor for augmentation sphere                                              
   RDEP   =    1.125    radius for radial grids                                                     
   RDEPT  =    1.088    core radius for aug-charge                                                  
                                                                                                    
   Atomic configuration                                                                             
    4 entries                                                                                       
     n  l   j            E        occ.                                                              
     1  0  0.50      -514.6923   2.0000                                                             
     2  0  0.50       -23.9615   2.0000                                                             
     2  1  0.50        -9.0305   4.0000                                                             
     3  2  1.50        -9.5241   0.0000                                                             
   Description                                                                                      
     l       E           TYP  RCUT    TYP  RCUT                                                     
     0    -23.9615319     23  1.100                                                                 
     0    -25.3221145     23  1.100                                                                 
     1     -9.0304911     23  1.100                                                                 
     1     -5.4802209     23  1.100                                                                 
     2     -9.5240782      7  1.100                                                                 
  local pseudopotential read in
  partial core-charges read in
  partial kinetic energy density read in
  atomic valenz-charges read in
  non local Contribution for L=           0  read in
    real space projection operators read in
  non local Contribution for L=           0  read in
    real space projection operators read in
  non local Contribution for L=           1  read in
    real space projection operators read in
  non local Contribution for L=           1  read in
    real space projection operators read in
    PAW grid and wavefunctions read in

   number of l-projection  operators is LMAX  =           4
   number of lm-projection operators is LMMAX =           8

  PAW_PBE C_h 06Feb2004                 :
 energy of atom  1       EATOM= -147.1560
 kinetic energy error for atom=    0.0031 (will be added to EATOM!!)
  PAW_PBE H_h 06Feb2004                 :
 energy of atom  2       EATOM=  -12.4884
 kinetic energy error for atom=    0.0006 (will be added to EATOM!!)
  PAW_PBE N_h 06Feb2004                 :
 energy of atom  3       EATOM= -264.5486
 kinetic energy error for atom=    0.0081 (will be added to EATOM!!)
  PAW_PBE O_h 06Feb2004                 :
 energy of atom  4       EATOM= -432.3788
 kinetic energy error for atom=    0.0171 (will be added to EATOM!!)


 POSCAR:  C  H  N  O
  positions in cartesian coordinates
  No initial velocities read in
 exchange correlation table for  LEXCH =        8
   RHO(1)=    0.500       N(1)  =     2000
   RHO(2)=  100.500       N(2)  =     4000

 VTST: version 4.1, (05/19/21)

 CHAIN: initializing optimizer
 
 OPT: Using VASP Dynamics algorithm
 CHAIN: Read ICHAIN            0

 POSCAR:  C  H  N  O
  positions in cartesian coordinates
  No initial velocities read in



--------------------------------------------------------------------------------------------------------


 ion  position               nearest neighbor table
   1  0.506  0.523  0.500-   8 1.22   7 1.39   6 1.39
   2  0.420  0.484  0.505-   6 1.01
   3  0.423  0.559  0.486-   6 1.01
   4  0.516  0.429  0.495-   7 1.01
   5  0.580  0.469  0.514-   7 1.01
   6  0.445  0.518  0.486-   3 1.01   2 1.01   1 1.39
   7  0.534  0.467  0.514-   5 1.01   4 1.01   1 1.39
   8  0.534  0.571  0.500-   1 1.22

  LATTYP: Found a simple cubic cell.
 ALAT       =    22.0000000000
  
  Lattice vectors:
  
 A1 = (  22.0000000000,   0.0000000000,   0.0000000000)
 A2 = (   0.0000000000,  22.0000000000,   0.0000000000)
 A3 = (   0.0000000000,   0.0000000000,  22.0000000000)


Analysis of symmetry for initial positions (statically):
=====================================================================
 Subroutine PRICEL returns:
 Original cell was already a primitive cell.
 

 Routine SETGRP: Setting up the symmetry group for a 
 simple cubic supercell.


 Subroutine GETGRP returns: Found  1 space group operations
 (whereof  1 operations were pure point group operations)
 out of a pool of 48 trial point group operations.


The static configuration has the point symmetry C_1 .


Analysis of symmetry for dynamics (positions and initial velocities):
=====================================================================
 Subroutine PRICEL returns:
 Original cell was already a primitive cell.
 

 Routine SETGRP: Setting up the symmetry group for a 
 simple cubic supercell.


 Subroutine GETGRP returns: Found  1 space group operations
 (whereof  1 operations were pure point group operations)
 out of a pool of 48 trial point group operations.


The dynamic configuration has the point symmetry C_1 .


 Subroutine INISYM returns: Found  1 space group operations
 (whereof  1 operations are pure point group operations),
 and found     1 'primitive' translations


----------------------------------------------------------------------------------------

                                     Primitive cell                                     

  volume of cell :   10648.0000

  direct lattice vectors                    reciprocal lattice vectors
    22.000000000  0.000000000  0.000000000     0.045454545  0.000000000  0.000000000
     0.000000000 22.000000000  0.000000000     0.000000000  0.045454545  0.000000000
     0.000000000  0.000000000 22.000000000     0.000000000  0.000000000  0.045454545

  length of vectors
    22.000000000 22.000000000 22.000000000     0.045454545  0.045454545  0.045454545

  position of ions in fractional coordinates (direct lattice)
     0.506258636  0.522679545  0.500042727
     0.420451364  0.484133182  0.505191818
     0.423366818  0.559149091  0.485809091
     0.516053182  0.429103636  0.495250455
     0.579548636  0.469427727  0.514190909
     0.444790909  0.518395909  0.486301364
     0.533554091  0.467460455  0.513819091
     0.533957727  0.570896364  0.500012727

  ion indices of the primitive-cell ions
   primitive index   ion index
                 1           1
                 2           2
                 3           3
                 4           4
                 5           5
                 6           6
                 7           7
                 8           8

----------------------------------------------------------------------------------------



 KPOINTS: auto                                    

Automatic generation of k-mesh.
 Grid dimensions read from file:
 generate k-points for:    1    1    1

 Generating k-lattice:

  Cartesian coordinates                     Fractional coordinates (reciprocal lattice)
     0.045454545  0.000000000  0.000000000     1.000000000  0.000000000  0.000000000
     0.000000000  0.045454545  0.000000000     0.000000000  1.000000000  0.000000000
     0.000000000  0.000000000  0.045454545     0.000000000  0.000000000  1.000000000

  Length of vectors
     0.045454545  0.045454545  0.045454545

  Shift w.r.t. Gamma in fractional coordinates (k-lattice)
     0.000000000  0.000000000  0.000000000

 
 Subroutine IBZKPT returns following result:
 ===========================================
 
 Found      1 irreducible k-points:
 
 Following reciprocal coordinates:
            Coordinates               Weight
  0.000000  0.000000  0.000000      1.000000
 
 Following cartesian coordinates:
            Coordinates               Weight
  0.000000  0.000000  0.000000      1.000000
 


--------------------------------------------------------------------------------------------------------




 Dimension of arrays:
   k-points           NKPTS =      1   k-points in BZ     NKDIM =      1   number of bands    NBANDS=     20
   number of dos      NEDOS =    301   number of ions     NIONS =      8
   non local maximal  LDIM  =      4   non local SUM 2l+1 LMDIM =      8
   total plane-waves  NPLWV = ******
   max r-space proj   IRMAX =      1   max aug-charges    IRDMAX=   9667
   dimension x,y,z NGX =   240 NGY =  240 NGZ =  240
   dimension x,y,z NGXF=   480 NGYF=  480 NGZF=  480
   support grid    NGXF=   480 NGYF=  480 NGZF=  480
   ions per type =               1   4   2   1
   NGX,Y,Z   is equivalent  to a cutoff of  18.14, 18.14, 18.14 a.u.
   NGXF,Y,Z  is equivalent  to a cutoff of  36.27, 36.27, 36.27 a.u.

 SYSTEM =  unknown system                          
 POSCAR =   C  H  N  O                             

 Startparameter for this run:
   NWRITE =      2    write-flag & timer
   PREC   = accura    normal or accurate (medium, high low for compatibility)
   ISTART =      0    job   : 0-new  1-cont  2-samecut
   ICHARG =      2    charge: 1-file 2-atom 10-const
   ISPIN  =      1    spin polarized calculation?
   LNONCOLLINEAR =      F non collinear calculations
   LSORBIT =      F    spin-orbit coupling
   INIWAV =      1    electr: 0-lowe 1-rand  2-diag
   LASPH  =      F    aspherical Exc in radial PAW
 Electronic Relaxation 1
   ENCUT  = 1000.0 eV  73.50 Ry    8.57 a.u.  56.73 56.73 56.73*2*pi/ulx,y,z
   ENINI  = 1000.0     initial cutoff
   ENAUG  = 1000.0 eV  augmentation charge cutoff
   NELM   =     60;   NELMIN=  2; NELMDL= -5     # of ELM steps 
   EDIFF  = 0.1E-06   stopping-criterion for ELM
   LREAL  =      F    real-space projection
   NLSPLINE    = F    spline interpolate recip. space projectors
   LCOMPAT=      F    compatible to vasp.4.4
   GGA_COMPAT  = T    GGA compatible to vasp.4.4-vasp.4.6
   LMAXPAW     = -100 max onsite density
   LMAXMIX     =    2 max onsite mixed and CHGCAR
   VOSKOWN=      0    Vosko Wilk Nusair interpolation
   ROPT   =    0.00000   0.00000   0.00000   0.00000
 Ionic relaxation
   EDIFFG = 0.1E-05   stopping-criterion for IOM
   NSW    =      0    number of steps for IOM
   NBLOCK =      1;   KBLOCK =      1    inner block; outer block 
   IBRION =     -1    ionic relax: 0-MD 1-quasi-New 2-CG
   NFREE  =      0    steps in history (QN), initial steepest desc. (CG)
   ISIF   =      0    stress and relaxation
   IWAVPR =     10    prediction:  0-non 1-charg 2-wave 3-comb
   ISYM   =      2    0-nonsym 1-usesym 2-fastsym
   LCORR  =      T    Harris-Foulkes like correction to forces

   POTIM  = 0.5000    time-step for ionic-motion
   TEIN   =    0.0    initial temperature
   TEBEG  =    0.0;   TEEND  =   0.0 temperature during run
   SMASS  =  -3.00    Nose mass-parameter (am)
   estimated Nose-frequenzy (Omega)   =  0.10E-29 period in steps = 0.13E+47 mass=  -0.111E-25a.u.
   SCALEE = 1.0000    scale energy and forces
   NPACO  =    256;   APACO  = 10.0  distance and # of slots for P.C.
   PSTRESS=    0.0 pullay stress

  Mass of Ions in am
   POMASS =  12.01  1.00 14.00 16.00
  Ionic Valenz
   ZVAL   =   4.00  1.00  5.00  6.00
  Atomic Wigner-Seitz radii
   RWIGS  =  -1.00 -1.00 -1.00 -1.00
  virtual crystal weights 
   VCA    =   1.00  1.00  1.00  1.00
   NELECT =      24.0000    total number of electrons
   NUPDOWN=      -1.0000    fix difference up-down

 DOS related values:
   EMIN   =  10.00;   EMAX   =-10.00  energy-range for DOS
   EFERMI =   0.00;   METHOD = LEGACY      
   ISMEAR =     0;   SIGMA  =   0.01  broadening in eV -4-tet -1-fermi 0-gaus

 Electronic relaxation 2 (details)
   IALGO  =     58    algorithm
   LDIAG  =      T    sub-space diagonalisation (order eigenvalues)
   LSUBROT=      F    optimize rotation matrix (better conditioning)
   TURBO    =      0    0=normal 1=particle mesh
   IRESTART =      0    0=no restart 2=restart with 2 vectors
   NREBOOT  =      0    no. of reboots
   NMIN     =      0    reboot dimension
   EREF     =   0.00    reference energy to select bands
   IMIX   =      4    mixing-type and parameters
     AMIX     =   0.40;   BMIX     =  1.00
     AMIX_MAG =   1.60;   BMIX_MAG =  1.00
     AMIN     =   0.10
     WC   =   100.;   INIMIX=   1;  MIXPRE=   1;  MAXMIX= -45

 Intra band minimization:
   WEIMIN = 0.0000     energy-eigenvalue tresh-hold
   EBREAK =  0.13E-08  absolut break condition
   DEPER  =   0.30     relativ break condition  

   TIME   =   0.40     timestep for ELM

  volume/ion in A,a.u.               =    1331.00      8982.03
  Fermi-wavevector in a.u.,A,eV,Ry     =   0.214646  0.405622  0.626859  0.046073
  Thomas-Fermi vector in A             =   0.987905

 Write flags
   LWAVE        =      F    write WAVECAR
   LDOWNSAMPLE  =      F    k-point downsampling of WAVECAR
   LCHARG       =      F    write CHGCAR
   LVTOT        =      F    write LOCPOT, total local potential
   LVHAR        =      F    write LOCPOT, Hartree potential only
   LELF         =      F    write electronic localiz. function (ELF)
   LORBIT       =      0    0 simple, 1 ext, 2 COOP (PROOUT), +10 PAW based schemes


 Dipole corrections
   LMONO  =      F    monopole corrections only (constant potential shift)
   LDIPOL =      F    correct potential (dipole corrections)
   IDIPOL =      0    1-x, 2-y, 3-z, 4-all directions 
   EPSILON=  1.0000000 bulk dielectric constant

 Exchange correlation treatment:
   GGA     =    --    GGA type
   LEXCH   =     8    internal setting for exchange type
   LIBXC   =     F    Libxc                    
   VOSKOWN =     0    Vosko Wilk Nusair interpolation
   LHFCALC =     F    Hartree Fock is set to
   LHFONE  =     F    Hartree Fock one center treatment
   AEXX    =    0.0000 exact exchange contribution

 Linear response parameters
   LEPSILON=     F    determine dielectric tensor
   LRPA    =     F    only Hartree local field effects (RPA)
   LNABLA  =     F    use nabla operator in PAW spheres
   LVEL    =     F    velocity operator in full k-point grid
   CSHIFT  =0.1000    complex shift for real part using Kramers Kronig
   OMEGAMAX=  -1.0    maximum frequency
   DEG_THRESHOLD= 0.2000000E-02 threshold for treating states as degnerate
   RTIME   =   -0.100 relaxation time in fs
  (WPLASMAI=    0.000 imaginary part of plasma frequency in eV, 0.658/RTIME)
   DFIELD  = 0.0000000 0.0000000 0.0000000 field for delta impulse in time

  Optional k-point grid parameters
   LKPOINTS_OPT  =     F    use optional k-point grid
   KPOINTS_OPT_MODE=     1    mode for optional k-point grid

 Orbital magnetization related:
   ORBITALMAG=     F  switch on orbital magnetization
   LCHIMAG   =     F  perturbation theory with respect to B field
   DQ        =  0.001000  dq finite difference perturbation B field
   LLRAUG    =     F  two centre corrections for induced B field
   LBONE     =     F  B-component reconstruction in AE one-centre
   LVGVCALC  =     T  calculate vGv susceptibility
   LVGVAPPL  =     F  apply vGv susceptibility instead of pGv for G=0

 Random number generation:
   RANDOM_GENERATOR = DEFAULT
   PCG_SEED         = not used


--------------------------------------------------------------------------------------------------------


 Static calculation
 charge density and potential will be updated during run
 non-spin polarized calculation
 Conjugate gradient for all bands (Freysoldt, et al. PRB 79, 241103 (2009))
 preconditioned conjugated gradient                                        
 perform sub-space diagonalisation
    before iterative eigenvector-optimisation
 modified Broyden-mixing scheme, WC =      100.0
 initial mixing is a Kerker type mixing with AMIX =  0.4000 and BMIX =      1.0000
 Hartree-type preconditioning will be used
 using additional bands            8
 reciprocal scheme for non local part
 use partial core corrections
 no Harris-corrections to forces 
 use gradient corrections 
 use of overlap-Matrix (Vanderbilt PP)
 Gauss-broadening in eV      SIGMA  =   0.01


--------------------------------------------------------------------------------------------------------


  energy-cutoff  :     1000.00
  volume of cell :    10648.00
      direct lattice vectors                 reciprocal lattice vectors
    22.000000000  0.000000000  0.000000000     0.045454545  0.000000000  0.000000000
     0.000000000 22.000000000  0.000000000     0.000000000  0.045454545  0.000000000
     0.000000000  0.000000000 22.000000000     0.000000000  0.000000000  0.045454545

  length of vectors
    22.000000000 22.000000000 22.000000000     0.045454545  0.045454545  0.045454545



 k-points in units of 2pi/SCALE and weight: auto                                    
   0.00000000  0.00000000  0.00000000       1.000

 k-points in reciprocal lattice and weights: auto                                    
   0.00000000  0.00000000  0.00000000       1.000

 position of ions in fractional coordinates (direct lattice) 
   0.50625864  0.52267955  0.50004273
   0.42045136  0.48413318  0.50519182
   0.42336682  0.55914909  0.48580909
   0.51605318  0.42910364  0.49525045
   0.57954864  0.46942773  0.51419091
   0.44479091  0.51839591  0.48630136
   0.53355409  0.46746045  0.51381909
   0.53395773  0.57089636  0.50001273

 position of ions in cartesian coordinates  (Angst):
  11.13769000 11.49895000 11.00094000
   9.24993000 10.65093000 11.11422000
   9.31407000 12.30128000 10.68780000
  11.35317000  9.44028000 10.89551000
  12.75007000 10.32741000 11.31220000
   9.78540000 11.40471000 10.69863000
  11.73819000 10.28413000 11.30402000
  11.74707000 12.55972000 11.00028000



--------------------------------------------------------------------------------------------------------


 use parallel FFT for orbitals z direction half grid
 k-point   1 :   0.0000 0.0000 0.0000  plane waves:  381993

 maximum and minimum number of plane-waves per node :      2992     2977

 maximum number of plane-waves:    381993
 maximum index in each direction: 
   IXMAX=   56   IYMAX=   56   IZMAX=   56
   IXMIN=  -56   IYMIN=  -56   IZMIN=    0


 parallel 3D FFT for wavefunctions:
    minimum data exchange during FFTs selected (reduces bandwidth)
 parallel 3D FFT for charge:
    minimum data exchange during FFTs selected (reduces bandwidth)


 total amount of memory used by VASP MPI-rank0    63516. kBytes
=======================================================================

   base      :      30000. kBytes
   nonl-proj :       1145. kBytes
   fftplans  :      10395. kBytes
   grid      :      21258. kBytes
   one-center:          1. kBytes
   wavefun   :        717. kBytes

     INWAV:  cpu time      0.0001: real time      0.0003
 Broyden mixing: mesh for mixing (old mesh)
   NGX =113   NGY =113   NGZ =113
  (NGX  =480   NGY  =480   NGZ  =480)
  gives a total of ****** points

 initial charge density was supplied:
 charge density of overlapping atoms calculated
 number of electron      24.0000000 magnetization 
 keeping initial charge density in first step


--------------------------------------------------------------------------------------------------------


 Maximum index for augmentation-charges            0 (set IRDMAX)


--------------------------------------------------------------------------------------------------------


 First call to EWALD:  gamma=   0.081
 Maximum number of real-space cells 3x 3x 3
 Maximum number of reciprocal cells 3x 3x 3

    FEWALD:  cpu time      0.0029: real time      0.0029


--------------------------------------- Ionic step        1  -------------------------------------------




--------------------------------------- Iteration      1(   1)  ---------------------------------------


    POTLOK:  cpu time      0.3102: real time      0.3126
    SETDIJ:  cpu time      0.0089: real time      0.0092
    TRIAL :  cpu time      0.2727: real time      0.2750
    CORREC:  cpu time      0.0017: real time      0.0017
    --------------------------------------------
      LOOP:  cpu time      0.5993: real time      0.6044

 eigenvalue-minimisations  :    56
 total energy-change (2. order) : 0.2136469E+03  (-0.5583086E+03)
 number of electron      24.0000000 magnetization 
 augmentation part       24.0000000 magnetization 

 Free energy of the ion-electron system (eV)
  ---------------------------------------------------
  alpha Z        PSCENC =         0.15477404
  Ewald energy   TEWEN  =      1354.52000889
  -Hartree energ DENC   =     -2215.13506272
  -exchange      EXHF   =         0.00000000
  -V(xc)+E(xc)   XCENC  =        75.91723217
  PAW double counting   =       879.51800176     -872.84836328
  entropy T*S    EENTRO =        -0.00000000
  eigenvalues    EBANDS =      -167.02641226
  atomic energy  EATOM  =      1158.54671353
  ---------------------------------------------------
  free energy    TOTEN  =       213.64689215 eV

  energy without entropy =      213.64689215  energy(sigma->0) =      213.64689215


--------------------------------------------------------------------------------------------------------




--------------------------------------- Iteration      1(   2)  ---------------------------------------


    TRIAL :  cpu time      0.2635: real time      0.2638
    CORREC:  cpu time      0.0002: real time      0.0002
    --------------------------------------------
      LOOP:  cpu time      0.2791: real time      0.2933

 eigenvalue-minimisations  :    68
 total energy-change (2. order) :-0.1131716E+03  (-0.1116568E+03)
 number of electron      24.0000000 magnetization 
 augmentation part       24.0000000 magnetization 

 Free energy of the ion-electron system (eV)
  ---------------------------------------------------
  alpha Z        PSCENC =         0.15477404
  Ewald energy   TEWEN  =      1354.52000889
  -Hartree energ DENC   =     -2215.13506272
  -exchange      EXHF   =         0.00000000
  -V(xc)+E(xc)   XCENC  =        75.91723217
  PAW double counting   =       879.51800176     -872.84836328
  entropy T*S    EENTRO =        -0.00000000
  eigenvalues    EBANDS =      -280.19797487
  atomic energy  EATOM  =      1158.54671353
  ---------------------------------------------------
  free energy    TOTEN  =       100.47532953 eV

  energy without entropy =      100.47532953  energy(sigma->0) =      100.47532953


--------------------------------------------------------------------------------------------------------




--------------------------------------- Iteration      1(   3)  ---------------------------------------


    TRIAL :  cpu time      0.2723: real time      0.2723
    CORREC:  cpu time      0.0001: real time      0.0001
    --------------------------------------------
      LOOP:  cpu time      0.2857: real time      0.3028

 eigenvalue-minimisations  :    72
 total energy-change (2. order) :-0.1106436E+03  (-0.1098645E+03)
 number of electron      24.0000000 magnetization 
 augmentation part       24.0000000 magnetization 

 Free energy of the ion-electron system (eV)
  ---------------------------------------------------
  alpha Z        PSCENC =         0.15477404
  Ewald energy   TEWEN  =      1354.52000889
  -Hartree energ DENC   =     -2215.13506272
  -exchange      EXHF   =         0.00000000
  -V(xc)+E(xc)   XCENC  =        75.91723217
  PAW double counting   =       879.51800176     -872.84836328
  entropy T*S    EENTRO =        -0.00000000
  eigenvalues    EBANDS =      -390.84158403
  atomic energy  EATOM  =      1158.54671353
  ---------------------------------------------------
  free energy    TOTEN  =       -10.16827963 eV

  energy without entropy =      -10.16827963  energy(sigma->0) =      -10.16827963


--------------------------------------------------------------------------------------------------------




--------------------------------------- Iteration      1(   4)  ---------------------------------------


    TRIAL :  cpu time      0.2025: real time      0.2025
    CORREC:  cpu time      0.0001: real time      0.0001
    --------------------------------------------
      LOOP:  cpu time      0.2325: real time      0.2327

 eigenvalue-minimisations  :    48
 total energy-change (2. order) :-0.4037945E+02  (-0.4034545E+02)
 number of electron      24.0000000 magnetization 
 augmentation part       24.0000000 magnetization 

 Free energy of the ion-electron system (eV)
  ---------------------------------------------------
  alpha Z        PSCENC =         0.15477404
  Ewald energy   TEWEN  =      1354.52000889
  -Hartree energ DENC   =     -2215.13506272
  -exchange      EXHF   =         0.00000000
  -V(xc)+E(xc)   XCENC  =        75.91723217
  PAW double counting   =       879.51800176     -872.84836328
  entropy T*S    EENTRO =        -0.00000000
  eigenvalues    EBANDS =      -431.22103045
  atomic energy  EATOM  =      1158.54671353
  ---------------------------------------------------
  free energy    TOTEN  =       -50.54772605 eV

  energy without entropy =      -50.54772605  energy(sigma->0) =      -50.54772605


--------------------------------------------------------------------------------------------------------




--------------------------------------- Iteration      1(   5)  ---------------------------------------


    TRIAL :  cpu time      0.2476: real time      0.2480
    CORREC:  cpu time      0.0001: real time      0.0001
    CHARGE:  cpu time      0.0710: real time      0.0718
    --------------------------------------------
      LOOP:  cpu time      0.3507: real time      0.3521

 eigenvalue-minimisations  :    64
 total energy-change (2. order) :-0.2867258E+01  (-0.2866025E+01)
 number of electron      24.0000000 magnetization 
 augmentation part        0.0899703 magnetization 

 Free energy of the ion-electron system (eV)
  ---------------------------------------------------
  alpha Z        PSCENC =         0.15477404
  Ewald energy   TEWEN  =      1354.52000889
  -Hartree energ DENC   =     -2215.13506272
  -exchange      EXHF   =         0.00000000
  -V(xc)+E(xc)   XCENC  =        75.91723217
  PAW double counting   =       879.51800176     -872.84836328
  entropy T*S    EENTRO =        -0.00000000
  eigenvalues    EBANDS =      -434.08828833
  atomic energy  EATOM  =      1158.54671353
  ---------------------------------------------------
  free energy    TOTEN  =       -53.41498392 eV

  energy without entropy =      -53.41498392  energy(sigma->0) =      -53.41498392


--------------------------------------------------------------------------------------------------------




--------------------------------------- Iteration      1(   6)  ---------------------------------------


    POTLOK:  cpu time      0.3032: real time      0.3032
    SETDIJ:  cpu time      0.0026: real time      0.0026
    TRIAL :  cpu time      0.1244: real time      0.1266
    CORREC:  cpu time      0.3953: real time      0.3959
    CHARGE:  cpu time      0.0408: real time      0.0408
    --------------------------------------------
      LOOP:  cpu time      0.8816: real time      0.8982

 eigenvalue-minimisations  :     0
 total energy-change (2. order) : 0.1201465E+02  (-0.5542642E+01)
 number of electron      24.0000000 magnetization 
 augmentation part        0.0502431 magnetization 

 Free energy of the ion-electron system (eV)
  ---------------------------------------------------
  alpha Z        PSCENC =         0.15477404
  Ewald energy   TEWEN  =      1354.52000889
  -Hartree energ DENC   =     -2431.90699118
  -exchange      EXHF   =         0.00000000
  -V(xc)+E(xc)   XCENC  =        85.93656771
  PAW double counting   =      8562.73907153    -8557.66139302
  entropy T*S    EENTRO =        -0.00000000
  eigenvalues    EBANDS =      -213.72908246
  atomic energy  EATOM  =      1158.54671353
  ---------------------------------------------------
  free energy    TOTEN  =       -41.40033093 eV

  energy without entropy =      -41.40033093  energy(sigma->0) =      -41.40033093


--------------------------------------------------------------------------------------------------------




--------------------------------------- Iteration      1(   7)  ---------------------------------------


    POTLOK:  cpu time      0.3063: real time      0.3063
    SETDIJ:  cpu time      0.0024: real time      0.0024
    TRIAL :  cpu time      0.1053: real time      0.1053
    CORREC:  cpu time      0.3777: real time      0.3778
    CHARGE:  cpu time      0.0412: real time      0.0412
    --------------------------------------------
      LOOP:  cpu time      0.8479: real time      0.8638

 eigenvalue-minimisations  :     0
 total energy-change (2. order) :-0.5632819E+01  (-0.6319601E+00)
 number of electron      24.0000000 magnetization 
 augmentation part        0.0232622 magnetization 

 Free energy of the ion-electron system (eV)
  ---------------------------------------------------
  alpha Z        PSCENC =         0.15477404
  Ewald energy   TEWEN  =      1354.52000889
  -Hartree energ DENC   =     -2321.78731314
  -exchange      EXHF   =         0.00000000
  -V(xc)+E(xc)   XCENC  =        80.90802123
  PAW double counting   =     11369.21253771   -11363.33489158
  entropy T*S    EENTRO =        -0.00000000
  eigenvalues    EBANDS =      -325.25300072
  atomic energy  EATOM  =      1158.54671353
  ---------------------------------------------------
  free energy    TOTEN  =       -47.03315003 eV

  energy without entropy =      -47.03315003  energy(sigma->0) =      -47.03315003


--------------------------------------------------------------------------------------------------------




--------------------------------------- Iteration      1(   8)  ---------------------------------------


    POTLOK:  cpu time      0.3040: real time      0.3043
    SETDIJ:  cpu time      0.0025: real time      0.0025
    TRIAL :  cpu time      0.1044: real time      0.1044
    CORREC:  cpu time      0.3787: real time      0.3788
    CHARGE:  cpu time      0.0406: real time      0.0406
    --------------------------------------------
      LOOP:  cpu time      0.8429: real time      0.8602

 eigenvalue-minimisations  :     0
 total energy-change (2. order) :-0.6340443E+00  (-0.2189517E+00)
 number of electron      24.0000000 magnetization 
 augmentation part        0.0189523 magnetization 

 Free energy of the ion-electron system (eV)
  ---------------------------------------------------
  alpha Z        PSCENC =         0.15477404
  Ewald energy   TEWEN  =      1354.52000889
  -Hartree energ DENC   =     -2323.31032994
  -exchange      EXHF   =         0.00000000
  -V(xc)+E(xc)   XCENC  =        80.87510257
  PAW double counting   =     11661.91887802   -11655.92142505
  entropy T*S    EENTRO =        -0.00000000
  eigenvalues    EBANDS =      -324.45091643
  atomic energy  EATOM  =      1158.54671353
  ---------------------------------------------------
  free energy    TOTEN  =       -47.66719437 eV

  energy without entropy =      -47.66719437  energy(sigma->0) =      -47.66719437


--------------------------------------------------------------------------------------------------------




--------------------------------------- Iteration      1(   9)  ---------------------------------------


    POTLOK:  cpu time      0.3079: real time      0.3083
    SETDIJ:  cpu time      0.0025: real time      0.0025
    TRIAL :  cpu time      0.1053: real time      0.1054
    CORREC:  cpu time      0.3794: real time      0.3794
    CHARGE:  cpu time      0.0404: real time      0.0404
    --------------------------------------------
      LOOP:  cpu time      0.8498: real time      0.8650

 eigenvalue-minimisations  :     0
 total energy-change (2. order) :-0.2179018E+00  (-0.9748112E-01)
 number of electron      24.0000000 magnetization 
 augmentation part        0.0193951 magnetization 

 Free energy of the ion-electron system (eV)
  ---------------------------------------------------
  alpha Z        PSCENC =         0.15477404
  Ewald energy   TEWEN  =      1354.52000889
  -Hartree energ DENC   =     -2324.04769571
  -exchange      EXHF   =         0.00000000
  -V(xc)+E(xc)   XCENC  =        80.86371467
  PAW double counting   =     11821.22808369   -11815.19473211
  entropy T*S    EENTRO =        -0.00000000
  eigenvalues    EBANDS =      -323.95596321
  atomic energy  EATOM  =      1158.54671353
  ---------------------------------------------------
  free energy    TOTEN  =       -47.88509619 eV

  energy without entropy =      -47.88509619  energy(sigma->0) =      -47.88509619


--------------------------------------------------------------------------------------------------------




--------------------------------------- Iteration      1(  10)  ---------------------------------------


    POTLOK:  cpu time      0.3042: real time      0.3042
    SETDIJ:  cpu time      0.0025: real time      0.0025
    TRIAL :  cpu time      0.1045: real time      0.1049
    CORREC:  cpu time      0.3792: real time      0.3792
    CHARGE:  cpu time      0.0408: real time      0.0408
    --------------------------------------------
      LOOP:  cpu time      0.8606: real time      0.8612

 eigenvalue-minimisations  :     0
 total energy-change (2. order) :-0.9657759E-01  (-0.3296649E-01)
 number of electron      24.0000000 magnetization 
 augmentation part        0.0205546 magnetization 

 Free energy of the ion-electron system (eV)
  ---------------------------------------------------
  alpha Z        PSCENC =         0.15477404
  Ewald energy   TEWEN  =      1354.52000889
  -Hartree energ DENC   =     -2322.09995340
  -exchange      EXHF   =         0.00000000
  -V(xc)+E(xc)   XCENC  =        80.82348094
  PAW double counting   =     11635.60800371   -11629.57416595
  entropy T*S    EENTRO =        -0.00000000
  eigenvalues    EBANDS =      -325.96053556
  atomic energy  EATOM  =      1158.54671353
  ---------------------------------------------------
  free energy    TOTEN  =       -47.98167379 eV

  energy without entropy =      -47.98167379  energy(sigma->0) =      -47.98167379


--------------------------------------------------------------------------------------------------------




--------------------------------------- Iteration      1(  11)  ---------------------------------------


    POTLOK:  cpu time      0.3044: real time      0.3044
    SETDIJ:  cpu time      0.0027: real time      0.0027
    TRIAL :  cpu time      0.1052: real time      0.1052
    CORREC:  cpu time      0.3814: real time      0.3818
    CHARGE:  cpu time      0.0405: real time      0.0405
    --------------------------------------------
      LOOP:  cpu time      0.8505: real time      0.8645

 eigenvalue-minimisations  :     0
 total energy-change (2. order) :-0.3283999E-01  (-0.1059893E-01)
 number of electron      24.0000000 magnetization 
 augmentation part        0.0214603 magnetization 

 Free energy of the ion-electron system (eV)
  ---------------------------------------------------
  alpha Z        PSCENC =         0.15477404
  Ewald energy   TEWEN  =      1354.52000889
  -Hartree energ DENC   =     -2320.94426818
  -exchange      EXHF   =         0.00000000
  -V(xc)+E(xc)   XCENC  =        80.79868022
  PAW double counting   =     11440.40467850   -11434.38121419
  entropy T*S    EENTRO =        -0.00000000
  eigenvalues    EBANDS =      -327.11388659
  atomic energy  EATOM  =      1158.54671353
  ---------------------------------------------------
  free energy    TOTEN  =       -48.01451378 eV

  energy without entropy =      -48.01451378  energy(sigma->0) =      -48.01451378


--------------------------------------------------------------------------------------------------------




--------------------------------------- Iteration      1(  12)  ---------------------------------------


    POTLOK:  cpu time      0.3028: real time      0.3028
    SETDIJ:  cpu time      0.0026: real time      0.0026
    TRIAL :  cpu time      0.1050: real time      0.1050
    CORREC:  cpu time      0.3776: real time      0.3780
    CHARGE:  cpu time      0.0406: real time      0.0406
    --------------------------------------------
      LOOP:  cpu time      0.8546: real time      0.8593

 eigenvalue-minimisations  :     0
 total energy-change (2. order) :-0.1058021E-01  (-0.3106785E-02)
 number of electron      24.0000000 magnetization 
 augmentation part        0.0217693 magnetization 

 Free energy of the ion-electron system (eV)
  ---------------------------------------------------
  alpha Z        PSCENC =         0.15477404
  Ewald energy   TEWEN  =      1354.52000889
  -Hartree energ DENC   =     -2320.50394809
  -exchange      EXHF   =         0.00000000
  -V(xc)+E(xc)   XCENC  =        80.77577192
  PAW double counting   =     11375.61942378   -11369.60031790
  entropy T*S    EENTRO =        -0.00000000
  eigenvalues    EBANDS =      -327.53752017
  atomic energy  EATOM  =      1158.54671353
  ---------------------------------------------------
  free energy    TOTEN  =       -48.02509399 eV

  energy without entropy =      -48.02509399  energy(sigma->0) =      -48.02509399


--------------------------------------------------------------------------------------------------------




--------------------------------------- Iteration      1(  13)  ---------------------------------------


    POTLOK:  cpu time      0.3016: real time      0.3017
    SETDIJ:  cpu time      0.0025: real time      0.0025
    TRIAL :  cpu time      0.1050: real time      0.1050
    CORREC:  cpu time      0.3760: real time      0.3761
    CHARGE:  cpu time      0.0409: real time      0.0412
    --------------------------------------------
      LOOP:  cpu time      0.8444: real time      0.8560

 eigenvalue-minimisations  :     0
 total energy-change (2. order) :-0.3105564E-02  (-0.9066079E-03)
 number of electron      24.0000000 magnetization 
 augmentation part        0.0216436 magnetization 

 Free energy of the ion-electron system (eV)
  ---------------------------------------------------
  alpha Z        PSCENC =         0.15477404
  Ewald energy   TEWEN  =      1354.52000889
  -Hartree energ DENC   =     -2320.41290658
  -exchange      EXHF   =         0.00000000
  -V(xc)+E(xc)   XCENC  =        80.77132748
  PAW double counting   =     11378.53613590   -11372.51909124
  entropy T*S    EENTRO =        -0.00000000
  eigenvalues    EBANDS =      -327.62516159
  atomic energy  EATOM  =      1158.54671353
  ---------------------------------------------------
  free energy    TOTEN  =       -48.02819956 eV

  energy without entropy =      -48.02819956  energy(sigma->0) =      -48.02819956


--------------------------------------------------------------------------------------------------------




--------------------------------------- Iteration      1(  14)  ---------------------------------------


    POTLOK:  cpu time      0.3016: real time      0.3016
    SETDIJ:  cpu time      0.0024: real time      0.0024
    TRIAL :  cpu time      0.1054: real time      0.1054
    CORREC:  cpu time      0.3706: real time      0.3707
    CHARGE:  cpu time      0.0410: real time      0.0410
    --------------------------------------------
      LOOP:  cpu time      0.8339: real time      0.8520

 eigenvalue-minimisations  :     0
 total energy-change (2. order) :-0.9061511E-03  (-0.2726996E-03)
 number of electron      24.0000000 magnetization 
 augmentation part        0.0216580 magnetization 

 Free energy of the ion-electron system (eV)
  ---------------------------------------------------
  alpha Z        PSCENC =         0.15477404
  Ewald energy   TEWEN  =      1354.52000889
  -Hartree energ DENC   =     -2320.22941457
  -exchange      EXHF   =         0.00000000
  -V(xc)+E(xc)   XCENC  =        80.76335820
  PAW double counting   =     11386.82122882   -11380.80292513
  entropy T*S    EENTRO =        -0.00000000
  eigenvalues    EBANDS =      -327.80284950
  atomic energy  EATOM  =      1158.54671353
  ---------------------------------------------------
  free energy    TOTEN  =       -48.02910571 eV

  energy without entropy =      -48.02910571  energy(sigma->0) =      -48.02910571


--------------------------------------------------------------------------------------------------------




--------------------------------------- Iteration      1(  15)  ---------------------------------------


    POTLOK:  cpu time      0.2951: real time      0.2958
    SETDIJ:  cpu time      0.0026: real time      0.0026
    TRIAL :  cpu time      0.1052: real time      0.1053
    CORREC:  cpu time      0.3696: real time      0.3696
    CHARGE:  cpu time      0.0409: real time      0.0409
    --------------------------------------------
      LOOP:  cpu time      0.8385: real time      0.8454

 eigenvalue-minimisations  :     0
 total energy-change (2. order) :-0.2727093E-03  (-0.9021663E-04)
 number of electron      24.0000000 magnetization 
 augmentation part        0.0216838 magnetization 

 Free energy of the ion-electron system (eV)
  ---------------------------------------------------
  alpha Z        PSCENC =         0.15477404
  Ewald energy   TEWEN  =      1354.52000889
  -Hartree energ DENC   =     -2320.36682483
  -exchange      EXHF   =         0.00000000
  -V(xc)+E(xc)   XCENC  =        80.76772262
  PAW double counting   =     11380.18992508   -11374.17212881
  entropy T*S    EENTRO =        -0.00000000
  eigenvalues    EBANDS =      -327.66956894
  atomic energy  EATOM  =      1158.54671353
  ---------------------------------------------------
  free energy    TOTEN  =       -48.02937842 eV

  energy without entropy =      -48.02937842  energy(sigma->0) =      -48.02937842


--------------------------------------------------------------------------------------------------------




--------------------------------------- Iteration      1(  16)  ---------------------------------------


    POTLOK:  cpu time      0.2947: real time      0.2951
    SETDIJ:  cpu time      0.0025: real time      0.0025
    TRIAL :  cpu time      0.1049: real time      0.1049
    CORREC:  cpu time      0.3687: real time      0.3687
    CHARGE:  cpu time      0.0406: real time      0.0406
    --------------------------------------------
      LOOP:  cpu time      0.8284: real time      0.8438

 eigenvalue-minimisations  :     0
 total energy-change (2. order) :-0.9052705E-04  (-0.3098517E-04)
 number of electron      24.0000000 magnetization 
 augmentation part        0.0217377 magnetization 

 Free energy of the ion-electron system (eV)
  ---------------------------------------------------
  alpha Z        PSCENC =         0.15477404
  Ewald energy   TEWEN  =      1354.52000889
  -Hartree energ DENC   =     -2320.35238000
  -exchange      EXHF   =         0.00000000
  -V(xc)+E(xc)   XCENC  =        80.76553977
  PAW double counting   =     11370.58303166   -11364.56502679
  entropy T*S    EENTRO =        -0.00000000
  eigenvalues    EBANDS =      -327.68213005
  atomic energy  EATOM  =      1158.54671353
  ---------------------------------------------------
  free energy    TOTEN  =       -48.02946895 eV

  energy without entropy =      -48.02946895  energy(sigma->0) =      -48.02946895


--------------------------------------------------------------------------------------------------------




--------------------------------------- Iteration      1(  17)  ---------------------------------------


    POTLOK:  cpu time      0.2936: real time      0.2937
    SETDIJ:  cpu time      0.0026: real time      0.0026
    TRIAL :  cpu time      0.1051: real time      0.1051
    CORREC:  cpu time      0.3671: real time      0.3675
    CHARGE:  cpu time      0.0408: real time      0.0408
    --------------------------------------------
      LOOP:  cpu time      0.8243: real time      0.8401

 eigenvalue-minimisations  :     0
 total energy-change (2. order) :-0.3113962E-04  (-0.1101769E-04)
 number of electron      24.0000000 magnetization 
 augmentation part        0.0217463 magnetization 

 Free energy of the ion-electron system (eV)
  ---------------------------------------------------
  alpha Z        PSCENC =         0.15477404
  Ewald energy   TEWEN  =      1354.52000889
  -Hartree energ DENC   =     -2320.40067507
  -exchange      EXHF   =         0.00000000
  -V(xc)+E(xc)   XCENC  =        80.76726257
  PAW double counting   =     11363.15293095   -11357.13525830
  entropy T*S    EENTRO =        -0.00000000
  eigenvalues    EBANDS =      -327.63525670
  atomic energy  EATOM  =      1158.54671353
  ---------------------------------------------------
  free energy    TOTEN  =       -48.02950008 eV

  energy without entropy =      -48.02950008  energy(sigma->0) =      -48.02950008


--------------------------------------------------------------------------------------------------------




--------------------------------------- Iteration      1(  18)  ---------------------------------------


    POTLOK:  cpu time      0.2980: real time      0.2980
    SETDIJ:  cpu time      0.0035: real time      0.0035
    TRIAL :  cpu time      0.1058: real time      0.1058
    CORREC:  cpu time      0.3697: real time      0.3704
    CHARGE:  cpu time      0.0409: real time      0.0409
    --------------------------------------------
      LOOP:  cpu time      0.8468: real time      0.8477

 eigenvalue-minimisations  :     0
 total energy-change (2. order) :-0.1106862E-04  (-0.3924384E-05)
 number of electron      24.0000000 magnetization 
 augmentation part        0.0217447 magnetization 

 Free energy of the ion-electron system (eV)
  ---------------------------------------------------
  alpha Z        PSCENC =         0.15477404
  Ewald energy   TEWEN  =      1354.52000889
  -Hartree energ DENC   =     -2320.40567882
  -exchange      EXHF   =         0.00000000
  -V(xc)+E(xc)   XCENC  =        80.76747364
  PAW double counting   =     11362.08950679   -11356.07179229
  entropy T*S    EENTRO =        -0.00000000
  eigenvalues    EBANDS =      -327.63051694
  atomic energy  EATOM  =      1158.54671353
  ---------------------------------------------------
  free energy    TOTEN  =       -48.02951115 eV

  energy without entropy =      -48.02951115  energy(sigma->0) =      -48.02951115


--------------------------------------------------------------------------------------------------------




--------------------------------------- Iteration      1(  19)  ---------------------------------------


    POTLOK:  cpu time      0.2926: real time      0.2926
    SETDIJ:  cpu time      0.0027: real time      0.0027
    TRIAL :  cpu time      0.1053: real time      0.1053
    CORREC:  cpu time      0.3674: real time      0.3678
    CHARGE:  cpu time      0.0404: real time      0.0404
    --------------------------------------------
      LOOP:  cpu time      0.8247: real time      0.8385

 eigenvalue-minimisations  :     0
 total energy-change (2. order) :-0.3910953E-05  (-0.1359953E-05)
 number of electron      24.0000000 magnetization 
 augmentation part        0.0217355 magnetization 

 Free energy of the ion-electron system (eV)
  ---------------------------------------------------
  alpha Z        PSCENC =         0.15477404
  Ewald energy   TEWEN  =      1354.52000889
  -Hartree energ DENC   =     -2320.40823783
  -exchange      EXHF   =         0.00000000
  -V(xc)+E(xc)   XCENC  =        80.76763153
  PAW double counting   =     11364.70591627   -11358.68814364
  entropy T*S    EENTRO =        -0.00000000
  eigenvalues    EBANDS =      -327.62817786
  atomic energy  EATOM  =      1158.54671353
  ---------------------------------------------------
  free energy    TOTEN  =       -48.02951506 eV

  energy without entropy =      -48.02951506  energy(sigma->0) =      -48.02951506


--------------------------------------------------------------------------------------------------------




--------------------------------------- Iteration      1(  20)  ---------------------------------------


    POTLOK:  cpu time      0.2930: real time      0.2930
    SETDIJ:  cpu time      0.0026: real time      0.0026
    TRIAL :  cpu time      0.1051: real time      0.1051
    CORREC:  cpu time      0.3683: real time      0.3683
    CHARGE:  cpu time      0.0410: real time      0.0411
    --------------------------------------------
      LOOP:  cpu time      0.8235: real time      0.8399

 eigenvalue-minimisations  :     0
 total energy-change (2. order) :-0.1325549E-05  (-0.4738166E-06)
 number of electron      24.0000000 magnetization 
 augmentation part        0.0217341 magnetization 

 Free energy of the ion-electron system (eV)
  ---------------------------------------------------
  alpha Z        PSCENC =         0.15477404
  Ewald energy   TEWEN  =      1354.52000889
  -Hartree energ DENC   =     -2320.40977765
  -exchange      EXHF   =         0.00000000
  -V(xc)+E(xc)   XCENC  =        80.76774248
  PAW double counting   =     11367.28566677   -11361.26781481
  entropy T*S    EENTRO =        -0.00000000
  eigenvalues    EBANDS =      -327.62682966
  atomic energy  EATOM  =      1158.54671353
  ---------------------------------------------------
  free energy    TOTEN  =       -48.02951639 eV

  energy without entropy =      -48.02951639  energy(sigma->0) =      -48.02951639


--------------------------------------------------------------------------------------------------------




--------------------------------------- Iteration      1(  21)  ---------------------------------------


    POTLOK:  cpu time      0.2916: real time      0.2919
    SETDIJ:  cpu time      0.0027: real time      0.0027
    TRIAL :  cpu time      0.1051: real time      0.1051
    CORREC:  cpu time      0.3674: real time      0.3675
    CHARGE:  cpu time      0.0408: real time      0.0408
    --------------------------------------------
      LOOP:  cpu time      0.8369: real time      0.8373

 eigenvalue-minimisations  :     0
 total energy-change (2. order) :-0.4562644E-06  (-0.1632803E-06)
 number of electron      24.0000000 magnetization 
 augmentation part        0.0217276 magnetization 

 Free energy of the ion-electron system (eV)
  ---------------------------------------------------
  alpha Z        PSCENC =         0.15477404
  Ewald energy   TEWEN  =      1354.52000889
  -Hartree energ DENC   =     -2320.41174049
  -exchange      EXHF   =         0.00000000
  -V(xc)+E(xc)   XCENC  =        80.76791306
  PAW double counting   =     11368.50518882   -11362.48735190
  entropy T*S    EENTRO =        -0.00000000
  eigenvalues    EBANDS =      -327.62502280
  atomic energy  EATOM  =      1158.54671353
  ---------------------------------------------------
  free energy    TOTEN  =       -48.02951685 eV

  energy without entropy =      -48.02951685  energy(sigma->0) =      -48.02951685


--------------------------------------------------------------------------------------------------------




--------------------------------------- Iteration      1(  22)  ---------------------------------------


    POTLOK:  cpu time      0.2918: real time      0.2923
    SETDIJ:  cpu time      0.0026: real time      0.0026
    TRIAL :  cpu time      0.1050: real time      0.1050
    CORREC:  cpu time      0.3686: real time      0.3687
    CHARGE:  cpu time      0.0405: real time      0.0405
    --------------------------------------------
      LOOP:  cpu time      0.8236: real time      0.8404

 eigenvalue-minimisations  :     0
 total energy-change (2. order) :-0.1598419E-06  (-0.8733729E-07)
 number of electron      24.0000000 magnetization 
 augmentation part        0.0217287 magnetization 

 Free energy of the ion-electron system (eV)
  ---------------------------------------------------
  alpha Z        PSCENC =         0.15477404
  Ewald energy   TEWEN  =      1354.52000889
  -Hartree energ DENC   =     -2320.40571481
  -exchange      EXHF   =         0.00000000
  -V(xc)+E(xc)   XCENC  =        80.76764728
  PAW double counting   =     11368.76688515   -11362.74899177
  entropy T*S    EENTRO =        -0.00000000
  eigenvalues    EBANDS =      -327.63083932
  atomic energy  EATOM  =      1158.54671353
  ---------------------------------------------------
  free energy    TOTEN  =       -48.02951701 eV

  energy without entropy =      -48.02951701  energy(sigma->0) =      -48.02951701


--------------------------------------------------------------------------------------------------------




--------------------------------------- Iteration      1(  23)  ---------------------------------------


    POTLOK:  cpu time      0.2964: real time      0.2964
    SETDIJ:  cpu time      0.0025: real time      0.0025
    TRIAL :  cpu time      0.1049: real time      0.1055
    CORREC:  cpu time      0.3774: real time      0.3774
    EDDIAG:  cpu time      0.0592: real time      0.0599
    CHARGE:  cpu time      0.0406: real time      0.0406
    --------------------------------------------
      LOOP:  cpu time      0.8960: real time      0.9121

 eigenvalue-minimisations  :     0
 total energy-change (2. order) :-0.7910603E-07  (-0.3645358E-07)
 number of electron      24.0000000 magnetization 
 augmentation part        0.0217244 magnetization 

 Free energy of the ion-electron system (eV)
  ---------------------------------------------------
  alpha Z        PSCENC =         0.15477404
  Ewald energy   TEWEN  =      1354.52000889
  -Hartree energ DENC   =     -2320.41035234
  -exchange      EXHF   =         0.00000000
  -V(xc)+E(xc)   XCENC  =        80.76785303
  PAW double counting   =     11368.56021345   -11362.54235868
  entropy T*S    EENTRO =        -0.00000000
  eigenvalues    EBANDS =      -327.62636902
  atomic energy  EATOM  =      1158.54671353
  ---------------------------------------------------
  free energy    TOTEN  =       -48.02951709 eV

  energy without entropy =      -48.02951709  energy(sigma->0) =      -48.02951709


--------------------------------------------------------------------------------------------------------


  average scaling for gradient   1.0972


 average (electrostatic) potential at core
  the test charge radii are     0.5770  0.4325  0.5902  0.5955
  (the norm of the test charge is              1.0000)
       1 -89.0126       2 -47.3590       3 -47.1387       4 -47.3609       5 -47.1426
       6-104.1262       7-104.1272       8-118.3818



 E-fermi :  -5.8825     XC(G=0):  -0.1210     alpha+bet : -0.0451

 Fermi energy:        -5.8825110987

 k-point     1 :       0.0000    0.0000    0.0000
  band No.  band energies     occupation 
      1     -26.0465      2.00000
      2     -22.9251      2.00000
      3     -21.9485      2.00000
      4     -15.1690      2.00000
      5     -13.5657      2.00000
      6     -13.2352      2.00000
      7     -11.4769      2.00000
      8     -10.3403      2.00000
      9      -9.9162      2.00000
     10      -6.6462      2.00000
     11      -6.6156      2.00000
     12      -5.9292      2.00000
     13      -0.9705      0.00000
     14      -0.3690      0.00000
     15       0.0529      0.00000
     16       0.0603      0.00000
     17       0.1530      0.00000
     18       0.3178      0.00000
     19       0.3358      0.00000
     20       1.2630      0.00000


--------------------------------------------------------------------------------------------------------


 soft charge-density along one line, spin component           1
         0         1         2         3         4         5         6         7         8         9
 total charge-density along one line

 pseudopotential strength for first ion, spin component:           1
 12.820  21.577  -0.005  -0.000  -0.003  -0.009  -0.000  -0.005
 21.577  36.314  -0.009  -0.000  -0.005  -0.016  -0.000  -0.009
 -0.005  -0.009  -3.224   0.000  -0.000  -5.783   0.000  -0.000
 -0.000  -0.000   0.000  -3.225  -0.000   0.000  -5.784  -0.000
 -0.003  -0.005  -0.000  -0.000  -3.224  -0.000  -0.000  -5.782
 -0.009  -0.016  -5.783   0.000  -0.000 -10.350   0.000  -0.001
 -0.000  -0.000   0.000  -5.784  -0.000   0.000 -10.351  -0.000
 -0.005  -0.009  -0.000  -0.000  -5.782  -0.001  -0.000 -10.349
 total augmentation occupancy for first ion, spin component:           1
  8.725  -3.295   1.337  -0.000   0.771  -0.631   0.000  -0.363
 -3.295   1.337  -0.637   0.000  -0.367   0.310  -0.000   0.178
  1.337  -0.637   8.843  -0.474   1.241  -3.251   0.202  -0.547
 -0.000   0.000  -0.474   3.283   0.818   0.202  -0.913  -0.348
  0.771  -0.367   1.241   0.818   7.395  -0.547  -0.348  -2.613
 -0.631   0.310  -3.251   0.202  -0.547   1.232  -0.081   0.243
  0.000  -0.000   0.202  -0.913  -0.348  -0.081   0.259   0.140
 -0.363   0.178  -0.547  -0.348  -2.613   0.243   0.140   0.949


------------------------ aborting loop because EDIFF is reached ----------------------------------------


    FORLOC:  cpu time      0.0202: real time      0.0202
    FORNL :  cpu time      0.0131: real time      0.0134
    FORCOR:  cpu time      0.2557: real time      0.2557
    OFIELD:  cpu time      0.0027: real time      0.0027

  Hirshfeld charges:
            ion         q(e)     
   ------------------------------
      1     C        0.16876222
      2     H        0.12308601
      3     H        0.12946293
      4     H        0.12311308
      5     H        0.12958287
      6     N       -0.18383298
      7     N       -0.18366001
      8     O       -0.30651412

  Atomic reference data used in the T-S method for vdW correction:
            C6at              R0at           ALPHAat      REFSTATE
            (au)              (au)            (au)                
   ---------------------------------------------------------------
   C          46.600          3.590         12.000         0
   H           6.500          3.099          4.500         0
   N          24.200          3.345          7.400         0
   O          15.600          3.194          5.400         0

  Tkatchenko/Scheffler method for vdW energy calculation
  ---------------------------------------------------------------------------------------------

  Parameters of vdW forcefield:
            C6ts              R0ts           ALPHAts        RELVOL
            (au)              (au)            (au)                
   ---------------------------------------------------------------
   C          33.387          3.396         10.157          0.84643903
   H           2.303          2.607          2.678          0.59517266
   H           2.481          2.640          2.780          0.61779694
   H           2.303          2.607          2.679          0.59522506
   H           2.479          2.639          2.779          0.61752598
   N          16.828          3.148          6.171          0.83388070
   N          16.821          3.148          6.170          0.83371843
   O          15.543          3.192          5.390          0.99817630

  vdW correction parametrized for the method pbe       

  IVDW =   2
  VDW_RADIUS =    50.000 A
  VDW_IDAMPF =  0
  VDW_S6 =     1.000
  VDW_SR =     0.940
  VDW_D =    20.000
  LVDW_ONECELL = F F F
  LVDW_SAMETYPE T T T T
  LVDW_EWALD = F

  Number of pair interactions contributing to vdW energy:    1842
  Edisp (eV):   -0.02143
    FORVDW:  cpu time      8.9140: real time      8.9188

 VOLUME and BASIS-vectors are now :
 -----------------------------------------------------------------------------
  energy-cutoff  :     1000.00
  volume of cell :    10648.00
      direct lattice vectors                 reciprocal lattice vectors
    22.000000000  0.000000000  0.000000000     0.045454545  0.000000000  0.000000000
     0.000000000 22.000000000  0.000000000     0.000000000  0.045454545  0.000000000
     0.000000000  0.000000000 22.000000000     0.000000000  0.000000000  0.045454545

  length of vectors
    22.000000000 22.000000000 22.000000000     0.045454545  0.045454545  0.045454545


 FORCES acting on ions:
    Electron-Ion                     Ewald-Force                    Non-Local-Force
 -----------------------------------------------------------------------------------------------
   0.242E+02 0.420E+02 0.161E-01   -.220E+02 -.381E+02 -.124E-01   -.238E+01 -.416E+01 0.434E-03
   0.665E+02 0.591E+02 -.273E+02   -.705E+02 -.646E+02 0.303E+02   0.397E+01 0.550E+01 -.294E+01
   0.623E+02 -.700E+02 0.729E+01   -.657E+02 0.767E+02 -.749E+01   0.344E+01 -.667E+01 0.208E+00
   0.178E+02 0.874E+02 0.268E+02   -.206E+02 -.936E+02 -.297E+02   0.278E+01 0.622E+01 0.289E+01
   -.918E+02 0.186E+02 -.706E+01   0.994E+02 -.182E+02 0.725E+01   -.750E+01 -.381E+00 -.187E+00
   0.214E+03 0.150E+02 0.739E+02   -.214E+03 -.184E+02 -.904E+02   0.520E-01 0.337E+01 0.167E+02
   -.950E+02 0.192E+03 -.739E+02   0.922E+02 -.194E+03 0.903E+02   0.278E+01 0.165E+01 -.166E+02
   -.174E+03 -.304E+03 0.209E+00   0.201E+03 0.350E+03 -.228E+00   -.267E+02 -.465E+02 0.145E-01
 -----------------------------------------------------------------------------------------------
   0.236E+02 0.410E+02 -.103E+00   -.284E-13 0.000E+00 0.711E-14   -.236E+02 -.410E+02 0.103E+00


 POSITION                                       TOTAL-FORCE (eV/Angst)
 -----------------------------------------------------------------------------------
     11.13769     11.49895     11.00094        -0.016854     -0.038325      0.004118
      9.24993     10.65093     11.11422        -0.024024     -0.024034      0.007937
      9.31407     12.30128     10.68780        -0.011005      0.034866      0.004001
     11.35317      9.44028     10.89551        -0.006432     -0.038568     -0.013262
     12.75007     10.32741     11.31220         0.037877      0.007070     -0.002080
      9.78540     11.40471     10.69863         0.004226     -0.023392     -0.015550
     11.73819     10.28413     11.30402        -0.030623     -0.002981      0.019352
     11.74707     12.55972     11.00028         0.046834      0.085363     -0.004517
 -----------------------------------------------------------------------------------
    total drift:                                0.000054      0.000071      0.000006


--------------------------------------------------------------------------------------------------------



  FREE ENERGIE OF THE ION-ELECTRON SYSTEM (eV)
  ---------------------------------------------------
  free  energy   TOTEN  =       -48.05094494 eV

  energy  without entropy=      -48.05094494  energy(sigma->0) =      -48.05094494



--------------------------------------------------------------------------------------------------------


    POTLOK:  cpu time      0.3112: real time      0.3127


--------------------------------------------------------------------------------------------------------


 stress matrix after NEB project (eV)
      0.01034     -0.00784     -0.00140
     -0.00784      0.00118      0.00082
     -0.00140      0.00082     -0.00015
  FORCES: max atom, RMS     0.097471    0.048942
  FORCE total and by dimension    0.138429    0.085363
  Stress total and by dimension    0.015386    0.010344
     LOOP+:  cpu time     26.5181: real time     26.7845
    4ORBIT:  cpu time      0.0000: real time      0.0000

 total amount of memory used by VASP MPI-rank0    63516. kBytes
=======================================================================

   base      :      30000. kBytes
   nonl-proj :       1145. kBytes
   fftplans  :      10395. kBytes
   grid      :      21258. kBytes
   one-center:          1. kBytes
   wavefun   :        717. kBytes

  
  
 General timing and accounting informations for this job:
 ========================================================
  
                  Total CPU time used (sec):       78.373
                            User time (sec):       76.593
                          System time (sec):        1.780
                         Elapsed time (sec):       98.325
  
                   Maximum memory used (kb):      251736.
                   Average memory used (kb):          N/A
  
                          Minor page faults:        38469
                          Major page faults:          325
                 Voluntary context switches:        11335
