    3    3    1    1
  0.2666667E+04  0.2000000E-08  0.2000000E-08  0.2000000E-08  0.5000000E-15
   1.0000000000000000E-004
  CAR 
 unknown system                          
     16      1     12

  0.1262379E-14  0.1262379E-14  0.1262379E-14  0.1000000E+01
      1        -29.330418   1.000000
      2        -28.377476   1.000000
      3        -14.144236   1.000000
      4        -13.052120   1.000000
      5        -12.917231   1.000000
      6        -12.917230   1.000000
      7         -9.392829   1.000000
      8         -9.392814   1.000000
      9         -1.494945   0.000000
     10         -0.932004   0.000000
     11         -0.931525   0.000000
     12          0.027359   0.000000
