 vasp.6.4.1 05Apr23 (build Jun  6 2023 14:46:38) gamma-only                      
 executed on        HPECrayEX_GCC date 2024.07.05  20:17:46
 running  128 mpi-ranks, with    1 threads/rank, on    1 nodes
 distrk:  each k-point on  128 cores,    1 groups
 distr:  one band on NCORE=  32 cores,    4 groups


--------------------------------------------------------------------------------------------------------


 INCAR:
   NPAR = 4
   ISMEAR = 0
   SIGMA = 0.01
   PREC = Accurate
   EDIFF = 1E-7
   ENCUT = 1000
   ISIF = 2
   GGA = ML
   LUSE_VDW = .TRUE.
   ZAB_VDW = -1.8867
   AGGAC = 0.0000
   LASPH = .TRUE.
   SYMPREC = 1E-7
   ALGO = Conjugate
   LWAVE = .FALSE.
   LCHARG = .FALSE.

 POTCAR:    PAW_PBE C_h 06Feb2004                 
 POTCAR:    PAW_PBE O_h 06Feb2004                 
 -----------------------------------------------------------------------------
|                                                                             |
|               ----> ADVICE to this user running VASP <----                  |
|                                                                             |
|     You have switched on vdW-DFT.                                           |
|     This routine was written and supplied by Jiri Klimes. We recommend      |
|     that you carefully read and cite the following publications:            |
|       J. Klimes, D.R. Bowler, A. Michelides                                 |
|          J. Phys.: Cond Matt. 22 022201 (2010)                              |
|       J. Klimes, D.R. Bowler, A. Michelides                                 |
|          Phys. Rev. B. 83, 195131 (2011)                                    |
|     and references therein.                                                 |
|                                                                             |
 -----------------------------------------------------------------------------

 POTCAR:    PAW_PBE C_h 06Feb2004                 
   VRHFIN =C: s2p2                                                                                  
   LEXCH  = PE                                                                                      
   EATOM  =   147.1560 eV,   10.8157 Ry                                                             
                                                                                                    
   TITEL  = PAW_PBE C_h 06Feb2004                                                                   
   LULTRA =        F    use ultrasoft PP ?                                                          
   IUNSCR =        1    unscreen: 0-lin 1-nonlin 2-no                                               
   RPACOR =    0.800    partial core radius                                                         
   POMASS =   12.011; ZVAL   =    4.000    mass and valenz                                          
   RCORE  =    1.100    outmost cutoff radius                                                       
   RWIGS  =    1.630; RWIGS  =    0.863    wigner-seitz radius (au A)                               
   ENMAX  =  700.000; ENMIN  =  500.000 eV                                                          
   ICORE  =        2    local potential                                                             
   LCOR   =        T    correct aug charges                                                         
   LPAW   =        T    paw PP                                                                      
   EAUG   =  946.768                                                                                
   DEXC   =    0.000                                                                                
   RMAX   =    1.128    core radius for proj-oper                                                   
   RAUG   =    1.300    factor for augmentation sphere                                              
   RDEP   =    1.162    radius for radial grids                                                     
   RDEPT  =    1.088    core radius for aug-charge                                                  
                                                                                                    
   Atomic configuration                                                                             
    4 entries                                                                                       
     n  l   j            E        occ.                                                              
     1  0  0.50      -273.3789   2.0000                                                             
     2  0  0.50       -13.7508   2.0000                                                             
     2  1  0.50        -5.2854   2.0000                                                             
     3  2  1.50        -5.4423   0.0000                                                             
   Description                                                                                      
     l       E           TYP  RCUT    TYP  RCUT                                                     
     0    -13.7508458     23  1.100                                                                 
     0     -8.2022199     23  1.100                                                                 
     1     -5.2854383     23  1.100                                                                 
     1      1.1560700     23  1.100                                                                 
     2     -5.4423304      7  1.100                                                                 
  local pseudopotential read in
  partial core-charges read in
  partial kinetic energy density read in
  atomic valenz-charges read in
  non local Contribution for L=           0  read in
    real space projection operators read in
  non local Contribution for L=           0  read in
    real space projection operators read in
  non local Contribution for L=           1  read in
    real space projection operators read in
  non local Contribution for L=           1  read in
    real space projection operators read in
    PAW grid and wavefunctions read in

   number of l-projection  operators is LMAX  =           4
   number of lm-projection operators is LMMAX =           8

 POTCAR:    PAW_PBE O_h 06Feb2004                 
   VRHFIN =O: s2p4                                                                                  
   LEXCH  = PE                                                                                      
   EATOM  =   432.3788 eV,   31.7789 Ry                                                             
                                                                                                    
   TITEL  = PAW_PBE O_h 06Feb2004                                                                   
   LULTRA =        F    use ultrasoft PP ?                                                          
   IUNSCR =        1    unscreen: 0-lin 1-nonlin 2-no                                               
   RPACOR =    0.800    partial core radius                                                         
   POMASS =   16.000; ZVAL   =    6.000    mass and valenz                                          
   RCORE  =    1.100    outmost cutoff radius                                                       
   RWIGS  =    1.400; RWIGS  =    0.741    wigner-seitz radius (au A)                               
   ENMAX  =  700.000; ENMIN  =  500.000 eV                                                          
   ICORE  =        2    local potential                                                             
   LCOR   =        T    correct aug charges                                                         
   LPAW   =        T    paw PP                                                                      
   EAUG   =  888.804                                                                                
   DEXC   =    0.000                                                                                
   RMAX   =    1.128    core radius for proj-oper                                                   
   RAUG   =    1.300    factor for augmentation sphere                                              
   RDEP   =    1.125    radius for radial grids                                                     
   RDEPT  =    1.088    core radius for aug-charge                                                  
                                                                                                    
   Atomic configuration                                                                             
    4 entries                                                                                       
     n  l   j            E        occ.                                                              
     1  0  0.50      -514.6923   2.0000                                                             
     2  0  0.50       -23.9615   2.0000                                                             
     2  1  0.50        -9.0305   4.0000                                                             
     3  2  1.50        -9.5241   0.0000                                                             
   Description                                                                                      
     l       E           TYP  RCUT    TYP  RCUT                                                     
     0    -23.9615319     23  1.100                                                                 
     0    -25.3221145     23  1.100                                                                 
     1     -9.0304911     23  1.100                                                                 
     1     -5.4802209     23  1.100                                                                 
     2     -9.5240782      7  1.100                                                                 
  local pseudopotential read in
  partial core-charges read in
  partial kinetic energy density read in
  atomic valenz-charges read in
  non local Contribution for L=           0  read in
    real space projection operators read in
  non local Contribution for L=           0  read in
    real space projection operators read in
  non local Contribution for L=           1  read in
    real space projection operators read in
  non local Contribution for L=           1  read in
    real space projection operators read in
    PAW grid and wavefunctions read in

   number of l-projection  operators is LMAX  =           4
   number of lm-projection operators is LMMAX =           8

 -----------------------------------------------------------------------------
|                                                                             |
|               ----> ADVICE to this user running VASP <----                  |
|                                                                             |
|     You enforced a specific xc type in the INCAR file but a different       |
|     type was found in the POTCAR file.                                      |
|     I HOPE YOU KNOW WHAT YOU ARE DOING!                                     |
|                                                                             |
 -----------------------------------------------------------------------------

  PAW_PBE C_h 06Feb2004                 :
 energy of atom  1       EATOM= -147.1560
 kinetic energy error for atom=    0.0031 (will be added to EATOM!!)
  PAW_PBE O_h 06Feb2004                 :
 energy of atom  2       EATOM= -432.3788
 kinetic energy error for atom=    0.0171 (will be added to EATOM!!)


 POSCAR: super cell
  positions in direct lattice
  No initial velocities read in
 exchange correlation table for  LEXCH =       44
   RHO(1)=    0.500       N(1)  =     2000
   RHO(2)=  100.500       N(2)  =     4000

 VTST: version 4.1, (05/19/21)

 CHAIN: initializing optimizer
 
 OPT: Using VASP Dynamics algorithm
 CHAIN: Read ICHAIN            0

 POSCAR: super cell
  positions in direct lattice
  No initial velocities read in



--------------------------------------------------------------------------------------------------------


 ion  position               nearest neighbor table
   1  0.241  0.241  0.281-   3 1.17   2 1.18
   2  0.275  0.207  0.248-   1 1.18
   3  0.207  0.275  0.314-   1 1.17

  LATTYP: Found a simple cubic cell.
 ALAT       =    20.0000000000
  
  Lattice vectors:
  
 A1 = (  20.0000000000,   0.0000000000,   0.0000000000)
 A2 = (   0.0000000000,  20.0000000000,   0.0000000000)
 A3 = (   0.0000000000,   0.0000000000,  20.0000000000)


Analysis of symmetry for initial positions (statically):
=====================================================================
 Subroutine PRICEL returns:
 Original cell was already a primitive cell.
 

 Routine SETGRP: Setting up the symmetry group for a 
 simple cubic supercell.


 Subroutine GETGRP returns: Found  1 space group operations
 (whereof  1 operations were pure point group operations)
 out of a pool of 48 trial point group operations.


The static configuration has the point symmetry C_1 .


Analysis of symmetry for dynamics (positions and initial velocities):
=====================================================================
 Subroutine PRICEL returns:
 Original cell was already a primitive cell.
 

 Routine SETGRP: Setting up the symmetry group for a 
 simple cubic supercell.


 Subroutine GETGRP returns: Found  1 space group operations
 (whereof  1 operations were pure point group operations)
 out of a pool of 48 trial point group operations.


The dynamic configuration has the point symmetry C_1 .


 Subroutine INISYM returns: Found  1 space group operations
 (whereof  1 operations are pure point group operations),
 and found     1 'primitive' translations


----------------------------------------------------------------------------------------

                                     Primitive cell                                     

  volume of cell :    8000.0000

  direct lattice vectors                    reciprocal lattice vectors
    20.000000000  0.000000000  0.000000000     0.050000000  0.000000000  0.000000000
     0.000000000 20.000000000  0.000000000     0.000000000  0.050000000  0.000000000
     0.000000000  0.000000000 20.000000000     0.000000000  0.000000000  0.050000000

  length of vectors
    20.000000000 20.000000000 20.000000000     0.050000000  0.050000000  0.050000000

  position of ions in fractional coordinates (direct lattice)
     0.240579500  0.240625833  0.281145500
     0.275011147  0.206578165  0.247857939
     0.206547853  0.274673502  0.314433061

  ion indices of the primitive-cell ions
   primitive index   ion index
                 1           1
                 2           2
                 3           3

----------------------------------------------------------------------------------------



 KPOINTS: auto                                    

Automatic generation of k-mesh.
 Grid dimensions read from file:
 generate k-points for:    1    1    1

 Generating k-lattice:

  Cartesian coordinates                     Fractional coordinates (reciprocal lattice)
     0.050000000  0.000000000  0.000000000     1.000000000  0.000000000  0.000000000
     0.000000000  0.050000000  0.000000000     0.000000000  1.000000000  0.000000000
     0.000000000  0.000000000  0.050000000     0.000000000  0.000000000  1.000000000

  Length of vectors
     0.050000000  0.050000000  0.050000000

  Shift w.r.t. Gamma in fractional coordinates (k-lattice)
     0.000000000  0.000000000  0.000000000

 
 Subroutine IBZKPT returns following result:
 ===========================================
 
 Found      1 irreducible k-points:
 
 Following reciprocal coordinates:
            Coordinates               Weight
  0.000000  0.000000  0.000000      1.000000
 
 Following cartesian coordinates:
            Coordinates               Weight
  0.000000  0.000000  0.000000      1.000000
 


--------------------------------------------------------------------------------------------------------




 Dimension of arrays:
   k-points           NKPTS =      1   k-points in BZ     NKDIM =      1   number of bands    NBANDS=     12
   number of dos      NEDOS =    301   number of ions     NIONS =      3
   non local maximal  LDIM  =      4   non local SUM 2l+1 LMDIM =      8
   total plane-waves  NPLWV = ******
   max r-space proj   IRMAX =      1   max aug-charges    IRDMAX=   8641
   dimension x,y,z NGX =   210 NGY =  210 NGZ =  210
   dimension x,y,z NGXF=   420 NGYF=  420 NGZF=  420
   support grid    NGXF=   420 NGYF=  420 NGZF=  420
   ions per type =               1   2
   NGX,Y,Z   is equivalent  to a cutoff of  17.46, 17.46, 17.46 a.u.
   NGXF,Y,Z  is equivalent  to a cutoff of  34.91, 34.91, 34.91 a.u.

 SYSTEM =  unknown system                          
 POSCAR =  super cell                              

 Startparameter for this run:
   NWRITE =      2    write-flag & timer
   PREC   = accura    normal or accurate (medium, high low for compatibility)
   ISTART =      0    job   : 0-new  1-cont  2-samecut
   ICHARG =      2    charge: 1-file 2-atom 10-const
   ISPIN  =      1    spin polarized calculation?
   LNONCOLLINEAR =      F non collinear calculations
   LSORBIT =      F    spin-orbit coupling
   INIWAV =      1    electr: 0-lowe 1-rand  2-diag
   LASPH  =      T    aspherical Exc in radial PAW
 Electronic Relaxation 1
   ENCUT  = 1000.0 eV  73.50 Ry    8.57 a.u.  51.57 51.57 51.57*2*pi/ulx,y,z
   ENINI  = 1000.0     initial cutoff
   ENAUG  =  946.8 eV  augmentation charge cutoff
   NELM   =     60;   NELMIN=  2; NELMDL=  0     # of ELM steps 
   EDIFF  = 0.1E-06   stopping-criterion for ELM
   LREAL  =      F    real-space projection
   NLSPLINE    = F    spline interpolate recip. space projectors
   LCOMPAT=      F    compatible to vasp.4.4
   GGA_COMPAT  = T    GGA compatible to vasp.4.4-vasp.4.6
   LMAXPAW     = -100 max onsite density
   LMAXMIX     =    2 max onsite mixed and CHGCAR
   VOSKOWN=      0    Vosko Wilk Nusair interpolation
   ROPT   =    0.00000   0.00000
 Ionic relaxation
   EDIFFG = 0.1E-05   stopping-criterion for IOM
   NSW    =      0    number of steps for IOM
   NBLOCK =      1;   KBLOCK =      1    inner block; outer block 
   IBRION =     -1    ionic relax: 0-MD 1-quasi-New 2-CG
   NFREE  =      0    steps in history (QN), initial steepest desc. (CG)
   ISIF   =      2    stress and relaxation
   IWAVPR =     10    prediction:  0-non 1-charg 2-wave 3-comb
   ISYM   =      2    0-nonsym 1-usesym 2-fastsym
   LCORR  =      T    Harris-Foulkes like correction to forces

   POTIM  = 0.5000    time-step for ionic-motion
   TEIN   =    0.0    initial temperature
   TEBEG  =    0.0;   TEEND  =   0.0 temperature during run
   SMASS  =  -3.00    Nose mass-parameter (am)
   estimated Nose-frequenzy (Omega)   =  0.10E-29 period in steps = 0.13E+47 mass=  -0.914E-26a.u.
   SCALEE = 1.0000    scale energy and forces
   NPACO  =    256;   APACO  = 10.0  distance and # of slots for P.C.
   PSTRESS=    0.0 pullay stress

  Mass of Ions in am
   POMASS =  12.01 16.00
  Ionic Valenz
   ZVAL   =   4.00  6.00
  Atomic Wigner-Seitz radii
   RWIGS  =  -1.00 -1.00
  virtual crystal weights 
   VCA    =   1.00  1.00
   NELECT =      16.0000    total number of electrons
   NUPDOWN=      -1.0000    fix difference up-down

 DOS related values:
   EMIN   =  10.00;   EMAX   =-10.00  energy-range for DOS
   EFERMI =   0.00;   METHOD = LEGACY      
   ISMEAR =     0;   SIGMA  =   0.01  broadening in eV -4-tet -1-fermi 0-gaus

 Electronic relaxation 2 (details)
   IALGO  =     58    algorithm
   LDIAG  =      T    sub-space diagonalisation (order eigenvalues)
   LSUBROT=      F    optimize rotation matrix (better conditioning)
   TURBO    =      0    0=normal 1=particle mesh
   IRESTART =      0    0=no restart 2=restart with 2 vectors
   NREBOOT  =      0    no. of reboots
   NMIN     =      0    reboot dimension
   EREF     =   0.00    reference energy to select bands
   IMIX   =      4    mixing-type and parameters
     AMIX     =   0.40;   BMIX     =  1.00
     AMIX_MAG =   1.60;   BMIX_MAG =  1.00
     AMIN     =   0.10
     WC   =   100.;   INIMIX=   1;  MIXPRE=   1;  MAXMIX= -45

 Intra band minimization:
   WEIMIN = 0.0000     energy-eigenvalue tresh-hold
   EBREAK =  0.21E-08  absolut break condition
   DEPER  =   0.30     relativ break condition  

   TIME   =   0.40     timestep for ELM

  volume/ion in A,a.u.               =    2666.67     17995.55
  Fermi-wavevector in a.u.,A,eV,Ry     =   0.206261  0.389778  0.578844  0.042544
  Thomas-Fermi vector in A             =   0.968418

 Write flags
   LWAVE        =      F    write WAVECAR
   LDOWNSAMPLE  =      F    k-point downsampling of WAVECAR
   LCHARG       =      F    write CHGCAR
   LVTOT        =      F    write LOCPOT, total local potential
   LVHAR        =      F    write LOCPOT, Hartree potential only
   LELF         =      F    write electronic localiz. function (ELF)
   LORBIT       =      0    0 simple, 1 ext, 2 COOP (PROOUT), +10 PAW based schemes


 Dipole corrections
   LMONO  =      F    monopole corrections only (constant potential shift)
   LDIPOL =      F    correct potential (dipole corrections)
   IDIPOL =      0    1-x, 2-y, 3-z, 4-all directions 
   EPSILON=  1.0000000 bulk dielectric constant

 Exchange correlation treatment:
   GGA     =    ML    GGA type
   LEXCH   =    44    internal setting for exchange type
   LIBXC   =     F    Libxc                    
   VOSKOWN =     0    Vosko Wilk Nusair interpolation
   LHFCALC =     F    Hartree Fock is set to
   LHFONE  =     F    Hartree Fock one center treatment
   AEXX    =    0.0000 exact exchange contribution

 vdW DFT:
   LUSE_VDW   =     T    switch on vdW DFT
   IVDW_NL    =     1    kernel type
   LSPIN_VDW  =     F    use spin-polarized vdW DFT
   Zab_VDW    =******    correlation parameter
   PARAM1     =0.1234
   PARAM2     =1.0000
   PARAM3     =0.0000
   -- rVV10 --
   BPARAM     = 6.3000
   CPARAM     = 0.0093

 Linear response parameters
   LEPSILON=     F    determine dielectric tensor
   LRPA    =     F    only Hartree local field effects (RPA)
   LNABLA  =     F    use nabla operator in PAW spheres
   LVEL    =     F    velocity operator in full k-point grid
   CSHIFT  =0.1000    complex shift for real part using Kramers Kronig
   OMEGAMAX=  -1.0    maximum frequency
   DEG_THRESHOLD= 0.2000000E-02 threshold for treating states as degnerate
   RTIME   =   -0.100 relaxation time in fs
  (WPLASMAI=    0.000 imaginary part of plasma frequency in eV, 0.658/RTIME)
   DFIELD  = 0.0000000 0.0000000 0.0000000 field for delta impulse in time

  Optional k-point grid parameters
   LKPOINTS_OPT  =     F    use optional k-point grid
   KPOINTS_OPT_MODE=     1    mode for optional k-point grid

 Orbital magnetization related:
   ORBITALMAG=     F  switch on orbital magnetization
   LCHIMAG   =     F  perturbation theory with respect to B field
   DQ        =  0.001000  dq finite difference perturbation B field
   LLRAUG    =     F  two centre corrections for induced B field
   LBONE     =     F  B-component reconstruction in AE one-centre
   LVGVCALC  =     T  calculate vGv susceptibility
   LVGVAPPL  =     F  apply vGv susceptibility instead of pGv for G=0

 Random number generation:
   RANDOM_GENERATOR = DEFAULT
   PCG_SEED         = not used


--------------------------------------------------------------------------------------------------------


 Static calculation
 charge density and potential will be updated during run
 non-spin polarized calculation
 Conjugate gradient for all bands (Freysoldt, et al. PRB 79, 241103 (2009))
 preconditioned conjugated gradient                                        
 perform sub-space diagonalisation
    before iterative eigenvector-optimisation
 modified Broyden-mixing scheme, WC =      100.0
 initial mixing is a Kerker type mixing with AMIX =  0.4000 and BMIX =      1.0000
 Hartree-type preconditioning will be used
 using additional bands            4
 reciprocal scheme for non local part
 use partial core corrections
 no Harris-corrections to forces 
 use gradient corrections 
 use of overlap-Matrix (Vanderbilt PP)
 Gauss-broadening in eV      SIGMA  =   0.01


--------------------------------------------------------------------------------------------------------


  energy-cutoff  :     1000.00
  volume of cell :     8000.00
      direct lattice vectors                 reciprocal lattice vectors
    20.000000000  0.000000000  0.000000000     0.050000000  0.000000000  0.000000000
     0.000000000 20.000000000  0.000000000     0.000000000  0.050000000  0.000000000
     0.000000000  0.000000000 20.000000000     0.000000000  0.000000000  0.050000000

  length of vectors
    20.000000000 20.000000000 20.000000000     0.050000000  0.050000000  0.050000000



 k-points in units of 2pi/SCALE and weight: auto                                    
   0.00000000  0.00000000  0.00000000       1.000

 k-points in reciprocal lattice and weights: auto                                    
   0.00000000  0.00000000  0.00000000       1.000

 position of ions in fractional coordinates (direct lattice) 
   0.24057950  0.24062583  0.28114550
   0.27501115  0.20657817  0.24785794
   0.20654785  0.27467350  0.31443306

 position of ions in cartesian coordinates  (Angst):
   4.81159000  4.81251666  5.62291000
   5.50022294  4.13156330  4.95715878
   4.13095706  5.49347004  6.28866122



--------------------------------------------------------------------------------------------------------


 use parallel FFT for orbitals z direction half grid
 k-point   1 :   0.0000 0.0000 0.0000  plane waves:  287166

 maximum and minimum number of plane-waves per node :      8979     8970

 maximum number of plane-waves:    287166
 maximum index in each direction: 
   IXMAX=   51   IYMAX=   51   IZMAX=   51
   IXMIN=  -51   IYMIN=  -51   IZMIN=    0


 parallel 3D FFT for wavefunctions:
    minimum data exchange during FFTs selected (reduces bandwidth)
 parallel 3D FFT for charge:
    minimum data exchange during FFTs selected (reduces bandwidth)


 total amount of memory used by VASP MPI-rank0   114032. kBytes
=======================================================================

   base      :      30000. kBytes
   nonl-proj :       1580. kBytes
   fftplans  :      29139. kBytes
   grid      :      52019. kBytes
   one-center:          1. kBytes
   wavefun   :       1293. kBytes

     INWAV:  cpu time      0.0001: real time      0.0002
 Broyden mixing: mesh for mixing (old mesh)
   NGX =103   NGY =103   NGZ =103
  (NGX  =420   NGY  =420   NGZ  =420)
  gives a total of ****** points

 initial charge density was supplied:
 charge density of overlapping atoms calculated
 number of electron      16.0000000 magnetization 
 charge density for first step will be calculated from the start-wavefunctions


--------------------------------------------------------------------------------------------------------


 Maximum index for augmentation-charges            1 (set IRDMAX)


--------------------------------------------------------------------------------------------------------


 First call to EWALD:  gamma=   0.089
 Maximum number of real-space cells 3x 3x 3
 Maximum number of reciprocal cells 3x 3x 3

    FEWALD:  cpu time      0.0019: real time      0.0019


--------------------------------------- Ionic step        1  -------------------------------------------




--------------------------------------- Iteration      1(   1)  ---------------------------------------


vdW kernel read from vdw_kernel.bindat
  0.0000  0.2424  0.5071  0.7962  1.1119  1.4567  1.8333  2.2446  2.6937  3.1842
  3.7199  4.3049  4.9438  5.6415  6.4036  7.2358  8.1446  9.1372 10.2212 11.4050
 12.6979 14.1099 15.6519 17.3360 19.1751 21.1837 23.3773 25.7729 28.3892 31.2465
 34.3669 37.7748 41.4965 45.5611 50.0000

    POTLOK:  cpu time     32.9805: real time     32.9912
    SETDIJ:  cpu time      0.0740: real time      0.0740
    TRIAL :  cpu time      0.4885: real time      0.4908
    CORREC:  cpu time      0.0013: real time      0.0013
    --------------------------------------------
      LOOP:  cpu time     33.5494: real time     33.5844

 eigenvalue-minimisations  :    40
 total energy-change (2. order) : 0.1638745E+03  (-0.3985327E+03)
 number of electron      16.0000000 magnetization 
 augmentation part       16.0000000 magnetization 

 Free energy of the ion-electron system (eV)
  ---------------------------------------------------
  alpha Z        PSCENC =         0.08964095
  Ewald energy   TEWEN  =       549.80537767
  -Hartree energ DENC   =     -1353.55091017
  -exchange      EXHF   =         0.00000000
  -V(xc)+E(xc)   XCENC  =        55.53166570
  PAW double counting   =       811.69278475     -809.82440165
  entropy T*S    EENTRO =        -0.00000000
  eigenvalues    EBANDS =      -117.84013056
  atomic energy  EATOM  =      1027.97048504
  ---------------------------------------------------
  free energy    TOTEN  =       163.87451174 eV

  energy without entropy =      163.87451174  energy(sigma->0) =      163.87451174


--------------------------------------------------------------------------------------------------------




--------------------------------------- Iteration      1(   2)  ---------------------------------------


    TRIAL :  cpu time      0.4880: real time      0.4880
    CORREC:  cpu time      0.0000: real time      0.0000
    --------------------------------------------
      LOOP:  cpu time      0.5020: real time      0.5171

 eigenvalue-minimisations  :    44
 total energy-change (2. order) :-0.1070673E+03  (-0.1066881E+03)
 number of electron      16.0000000 magnetization 
 augmentation part       16.0000000 magnetization 

 Free energy of the ion-electron system (eV)
  ---------------------------------------------------
  alpha Z        PSCENC =         0.08964095
  Ewald energy   TEWEN  =       549.80537767
  -Hartree energ DENC   =     -1353.55091017
  -exchange      EXHF   =         0.00000000
  -V(xc)+E(xc)   XCENC  =        55.53166570
  PAW double counting   =       811.69278475     -809.82440165
  entropy T*S    EENTRO =        -0.00000000
  eigenvalues    EBANDS =      -224.90740635
  atomic energy  EATOM  =      1027.97048504
  ---------------------------------------------------
  free energy    TOTEN  =        56.80723595 eV

  energy without entropy =       56.80723595  energy(sigma->0) =       56.80723595


--------------------------------------------------------------------------------------------------------




--------------------------------------- Iteration      1(   3)  ---------------------------------------


    TRIAL :  cpu time      0.5215: real time      0.5221
    CORREC:  cpu time      0.0000: real time      0.0000
    --------------------------------------------
      LOOP:  cpu time      0.5350: real time      0.5515

 eigenvalue-minimisations  :    48
 total energy-change (2. order) :-0.5119055E+02  (-0.4974120E+02)
 number of electron      16.0000000 magnetization 
 augmentation part       16.0000000 magnetization 

 Free energy of the ion-electron system (eV)
  ---------------------------------------------------
  alpha Z        PSCENC =         0.08964095
  Ewald energy   TEWEN  =       549.80537767
  -Hartree energ DENC   =     -1353.55091017
  -exchange      EXHF   =         0.00000000
  -V(xc)+E(xc)   XCENC  =        55.53166570
  PAW double counting   =       811.69278475     -809.82440165
  entropy T*S    EENTRO =        -0.00000000
  eigenvalues    EBANDS =      -276.09795437
  atomic energy  EATOM  =      1027.97048504
  ---------------------------------------------------
  free energy    TOTEN  =         5.61668793 eV

  energy without entropy =        5.61668793  energy(sigma->0) =        5.61668793


--------------------------------------------------------------------------------------------------------




--------------------------------------- Iteration      1(   4)  ---------------------------------------


    TRIAL :  cpu time      0.4470: real time      0.4470
    CORREC:  cpu time      0.0001: real time      0.0001
    --------------------------------------------
      LOOP:  cpu time      0.4756: real time      0.4759

 eigenvalue-minimisations  :    40
 total energy-change (2. order) :-0.2360666E+02  (-0.2356727E+02)
 number of electron      16.0000000 magnetization 
 augmentation part       16.0000000 magnetization 

 Free energy of the ion-electron system (eV)
  ---------------------------------------------------
  alpha Z        PSCENC =         0.08964095
  Ewald energy   TEWEN  =       549.80537767
  -Hartree energ DENC   =     -1353.55091017
  -exchange      EXHF   =         0.00000000
  -V(xc)+E(xc)   XCENC  =        55.53166570
  PAW double counting   =       811.69278475     -809.82440165
  entropy T*S    EENTRO =        -0.00000000
  eigenvalues    EBANDS =      -299.70461803
  atomic energy  EATOM  =      1027.97048504
  ---------------------------------------------------
  free energy    TOTEN  =       -17.98997573 eV

  energy without entropy =      -17.98997573  energy(sigma->0) =      -17.98997573


--------------------------------------------------------------------------------------------------------




--------------------------------------- Iteration      1(   5)  ---------------------------------------


    TRIAL :  cpu time      0.3797: real time      0.3801
    CORREC:  cpu time      0.0000: real time      0.0000
    CHARGE:  cpu time      0.1426: real time      0.1436
    --------------------------------------------
      LOOP:  cpu time      0.5350: real time      0.5542

 eigenvalue-minimisations  :    32
 total energy-change (2. order) :-0.1924156E+01  (-0.1922150E+01)
 number of electron      16.0000000 magnetization 
 augmentation part        0.1484116 magnetization 

 Free energy of the ion-electron system (eV)
  ---------------------------------------------------
  alpha Z        PSCENC =         0.08964095
  Ewald energy   TEWEN  =       549.80537767
  -Hartree energ DENC   =     -1353.55091017
  -exchange      EXHF   =         0.00000000
  -V(xc)+E(xc)   XCENC  =        55.53166570
  PAW double counting   =       811.69278475     -809.82440165
  entropy T*S    EENTRO =        -0.00000000
  eigenvalues    EBANDS =      -301.62877418
  atomic energy  EATOM  =      1027.97048504
  ---------------------------------------------------
  free energy    TOTEN  =       -19.91413188 eV

  energy without entropy =      -19.91413188  energy(sigma->0) =      -19.91413188


--------------------------------------------------------------------------------------------------------




--------------------------------------- Iteration      1(   6)  ---------------------------------------


    POTLOK:  cpu time     32.6289: real time     32.6396
    SETDIJ:  cpu time      0.0682: real time      0.0682
    TRIAL :  cpu time      0.2343: real time      0.2364
    CORREC:  cpu time     32.8181: real time     32.8313
    CHARGE:  cpu time      0.1243: real time      0.1243
    --------------------------------------------
      LOOP:  cpu time     65.8864: real time     65.9291

 eigenvalue-minimisations  :     0
 total energy-change (2. order) : 0.5599281E+01  (-0.3033949E+01)
 number of electron      16.0000000 magnetization 
 augmentation part        0.0978448 magnetization 

 Free energy of the ion-electron system (eV)
  ---------------------------------------------------
  alpha Z        PSCENC =         0.08964095
  Ewald energy   TEWEN  =       549.80537767
  -Hartree energ DENC   =     -1447.67142334
  -exchange      EXHF   =         0.00000000
  -V(xc)+E(xc)   XCENC  =        60.93698852
  PAW double counting   =      7764.36801073    -7764.39197756
  entropy T*S    EENTRO =        -0.00000000
  eigenvalues    EBANDS =      -205.42195308
  atomic energy  EATOM  =      1027.97048504
  ---------------------------------------------------
  free energy    TOTEN  =       -14.31485107 eV

  energy without entropy =      -14.31485107  energy(sigma->0) =      -14.31485107


--------------------------------------------------------------------------------------------------------




--------------------------------------- Iteration      1(   7)  ---------------------------------------


    POTLOK:  cpu time     32.5915: real time     32.6031
    SETDIJ:  cpu time      0.0683: real time      0.0683
    TRIAL :  cpu time      0.2209: real time      0.2218
    CORREC:  cpu time     32.8682: real time     32.8785
    CHARGE:  cpu time      0.1252: real time      0.1257
    --------------------------------------------
      LOOP:  cpu time     65.8866: real time     65.9275

 eigenvalue-minimisations  :     0
 total energy-change (2. order) :-0.3080263E+01  (-0.2835551E+00)
 number of electron      16.0000000 magnetization 
 augmentation part        0.0740745 magnetization 

 Free energy of the ion-electron system (eV)
  ---------------------------------------------------
  alpha Z        PSCENC =         0.08964095
  Ewald energy   TEWEN  =       549.80537767
  -Hartree energ DENC   =     -1390.70930881
  -exchange      EXHF   =         0.00000000
  -V(xc)+E(xc)   XCENC  =        57.76031162
  PAW double counting   =      9155.62185791    -9154.80834391
  entropy T*S    EENTRO =        -0.00000000
  eigenvalues    EBANDS =      -263.12513406
  atomic energy  EATOM  =      1027.97048504
  ---------------------------------------------------
  free energy    TOTEN  =       -17.39511359 eV

  energy without entropy =      -17.39511359  energy(sigma->0) =      -17.39511359


--------------------------------------------------------------------------------------------------------




--------------------------------------- Iteration      1(   8)  ---------------------------------------


    POTLOK:  cpu time     32.5442: real time     32.5549
    SETDIJ:  cpu time      0.0672: real time      0.0672
    TRIAL :  cpu time      0.2181: real time      0.2181
    CORREC:  cpu time     32.8025: real time     32.8144
    CHARGE:  cpu time      0.1251: real time      0.1251
    --------------------------------------------
      LOOP:  cpu time     65.7721: real time     65.8098

 eigenvalue-minimisations  :     0
 total energy-change (2. order) :-0.2835364E+00  (-0.9608509E-01)
 number of electron      16.0000000 magnetization 
 augmentation part        0.0696093 magnetization 

 Free energy of the ion-electron system (eV)
  ---------------------------------------------------
  alpha Z        PSCENC =         0.08964095
  Ewald energy   TEWEN  =       549.80537767
  -Hartree energ DENC   =     -1394.58906089
  -exchange      EXHF   =         0.00000000
  -V(xc)+E(xc)   XCENC  =        57.83835966
  PAW double counting   =      9452.63823503    -9451.69825334
  entropy T*S    EENTRO =        -0.00000000
  eigenvalues    EBANDS =      -259.73343410
  atomic energy  EATOM  =      1027.97048504
  ---------------------------------------------------
  free energy    TOTEN  =       -17.67864998 eV

  energy without entropy =      -17.67864998  energy(sigma->0) =      -17.67864998


--------------------------------------------------------------------------------------------------------




--------------------------------------- Iteration      1(   9)  ---------------------------------------


    POTLOK:  cpu time     32.6562: real time     32.6673
    SETDIJ:  cpu time      0.0680: real time      0.0680
    TRIAL :  cpu time      0.2181: real time      0.2181
    CORREC:  cpu time     32.8795: real time     32.8902
    CHARGE:  cpu time      0.1252: real time      0.1252
    --------------------------------------------
      LOOP:  cpu time     65.9603: real time     65.9984

 eigenvalue-minimisations  :     0
 total energy-change (2. order) :-0.9601396E-01  (-0.4517303E-01)
 number of electron      16.0000000 magnetization 
 augmentation part        0.0703986 magnetization 

 Free energy of the ion-electron system (eV)
  ---------------------------------------------------
  alpha Z        PSCENC =         0.08964095
  Ewald energy   TEWEN  =       549.80537767
  -Hartree energ DENC   =     -1397.42615938
  -exchange      EXHF   =         0.00000000
  -V(xc)+E(xc)   XCENC  =        57.93188176
  PAW double counting   =      9974.19666290    -9973.23161824
  entropy T*S    EENTRO =        -0.00000000
  eigenvalues    EBANDS =      -257.11093465
  atomic energy  EATOM  =      1027.97048504
  ---------------------------------------------------
  free energy    TOTEN  =       -17.77466395 eV

  energy without entropy =      -17.77466395  energy(sigma->0) =      -17.77466395


--------------------------------------------------------------------------------------------------------




--------------------------------------- Iteration      1(  10)  ---------------------------------------


    POTLOK:  cpu time     32.5411: real time     32.5523
    SETDIJ:  cpu time      0.0681: real time      0.0681
    TRIAL :  cpu time      0.2180: real time      0.2180
    CORREC:  cpu time     32.8858: real time     32.8970
    CHARGE:  cpu time      0.1249: real time      0.1249
    --------------------------------------------
      LOOP:  cpu time     65.8503: real time     65.8901

 eigenvalue-minimisations  :     0
 total energy-change (2. order) :-0.4539742E-01  (-0.1400981E-01)
 number of electron      16.0000000 magnetization 
 augmentation part        0.0715947 magnetization 

 Free energy of the ion-electron system (eV)
  ---------------------------------------------------
  alpha Z        PSCENC =         0.08964095
  Ewald energy   TEWEN  =       549.80537767
  -Hartree energ DENC   =     -1395.93154315
  -exchange      EXHF   =         0.00000000
  -V(xc)+E(xc)   XCENC  =        57.86158910
  PAW double counting   =     10269.06681646   -10268.08669284
  entropy T*S    EENTRO =        -0.00000000
  eigenvalues    EBANDS =      -258.59573459
  atomic energy  EATOM  =      1027.97048504
  ---------------------------------------------------
  free energy    TOTEN  =       -17.82006137 eV

  energy without entropy =      -17.82006137  energy(sigma->0) =      -17.82006137


--------------------------------------------------------------------------------------------------------




--------------------------------------- Iteration      1(  11)  ---------------------------------------


    POTLOK:  cpu time     32.5952: real time     32.6076
    SETDIJ:  cpu time      0.0680: real time      0.0680
    TRIAL :  cpu time      0.2185: real time      0.2185
    CORREC:  cpu time     32.8660: real time     32.8778
    CHARGE:  cpu time      0.1246: real time      0.1246
    --------------------------------------------
      LOOP:  cpu time     65.9020: real time     65.9265

 eigenvalue-minimisations  :     0
 total energy-change (2. order) :-0.1409606E-01  (-0.5015890E-02)
 number of electron      16.0000000 magnetization 
 augmentation part        0.0731586 magnetization 

 Free energy of the ion-electron system (eV)
  ---------------------------------------------------
  alpha Z        PSCENC =         0.08964095
  Ewald energy   TEWEN  =       549.80537767
  -Hartree energ DENC   =     -1395.15026041
  -exchange      EXHF   =         0.00000000
  -V(xc)+E(xc)   XCENC  =        57.82534554
  PAW double counting   =     10241.51257713   -10240.53796001
  entropy T*S    EENTRO =        -0.00000000
  eigenvalues    EBANDS =      -259.34936334
  atomic energy  EATOM  =      1027.97048504
  ---------------------------------------------------
  free energy    TOTEN  =       -17.83415743 eV

  energy without entropy =      -17.83415743  energy(sigma->0) =      -17.83415743


--------------------------------------------------------------------------------------------------------




--------------------------------------- Iteration      1(  12)  ---------------------------------------


    POTLOK:  cpu time     32.5437: real time     32.5559
    SETDIJ:  cpu time      0.0676: real time      0.0676
    TRIAL :  cpu time      0.2178: real time      0.2179
    CORREC:  cpu time     32.7447: real time     32.7566
    CHARGE:  cpu time      0.1244: real time      0.1244
    --------------------------------------------
      LOOP:  cpu time     65.7277: real time     65.7520

 eigenvalue-minimisations  :     0
 total energy-change (2. order) :-0.5024679E-02  (-0.1199542E-02)
 number of electron      16.0000000 magnetization 
 augmentation part        0.0737486 magnetization 

 Free energy of the ion-electron system (eV)
  ---------------------------------------------------
  alpha Z        PSCENC =         0.08964095
  Ewald energy   TEWEN  =       549.80537767
  -Hartree energ DENC   =     -1395.44068934
  -exchange      EXHF   =         0.00000000
  -V(xc)+E(xc)   XCENC  =        57.83175339
  PAW double counting   =     10209.87445402   -10208.91478716
  entropy T*S    EENTRO =        -0.00000000
  eigenvalues    EBANDS =      -259.05541668
  atomic energy  EATOM  =      1027.97048504
  ---------------------------------------------------
  free energy    TOTEN  =       -17.83918211 eV

  energy without entropy =      -17.83918211  energy(sigma->0) =      -17.83918211


--------------------------------------------------------------------------------------------------------




--------------------------------------- Iteration      1(  13)  ---------------------------------------


    POTLOK:  cpu time     32.5090: real time     32.5209
    SETDIJ:  cpu time      0.0679: real time      0.0679
    TRIAL :  cpu time      0.2177: real time      0.2177
    CORREC:  cpu time     32.6885: real time     32.6993
    CHARGE:  cpu time      0.1236: real time      0.1241
    --------------------------------------------
      LOOP:  cpu time     65.6189: real time     65.6592

 eigenvalue-minimisations  :     0
 total energy-change (2. order) :-0.1199210E-02  (-0.3578017E-03)
 number of electron      16.0000000 magnetization 
 augmentation part        0.0737238 magnetization 

 Free energy of the ion-electron system (eV)
  ---------------------------------------------------
  alpha Z        PSCENC =         0.08964095
  Ewald energy   TEWEN  =       549.80537767
  -Hartree energ DENC   =     -1395.57657442
  -exchange      EXHF   =         0.00000000
  -V(xc)+E(xc)   XCENC  =        57.83671076
  PAW double counting   =     10201.54820809   -10200.59348243
  entropy T*S    EENTRO =        -0.00000000
  eigenvalues    EBANDS =      -258.92074698
  atomic energy  EATOM  =      1027.97048504
  ---------------------------------------------------
  free energy    TOTEN  =       -17.84038132 eV

  energy without entropy =      -17.84038132  energy(sigma->0) =      -17.84038132


--------------------------------------------------------------------------------------------------------




--------------------------------------- Iteration      1(  14)  ---------------------------------------


    POTLOK:  cpu time     32.5137: real time     32.5262
    SETDIJ:  cpu time      0.0675: real time      0.0675
    TRIAL :  cpu time      0.2179: real time      0.2179
    CORREC:  cpu time     32.6831: real time     32.6955
    CHARGE:  cpu time      0.1249: real time      0.1249
    --------------------------------------------
      LOOP:  cpu time     65.6248: real time     65.6616

 eigenvalue-minimisations  :     0
 total energy-change (2. order) :-0.3580692E-03  (-0.9594609E-04)
 number of electron      16.0000000 magnetization 
 augmentation part        0.0736364 magnetization 

 Free energy of the ion-electron system (eV)
  ---------------------------------------------------
  alpha Z        PSCENC =         0.08964095
  Ewald energy   TEWEN  =       549.80537767
  -Hartree energ DENC   =     -1395.43605816
  -exchange      EXHF   =         0.00000000
  -V(xc)+E(xc)   XCENC  =        57.83084163
  PAW double counting   =     10194.83758715   -10193.88119438
  entropy T*S    EENTRO =        -0.00000000
  eigenvalues    EBANDS =      -259.05741928
  atomic energy  EATOM  =      1027.97048504
  ---------------------------------------------------
  free energy    TOTEN  =       -17.84073938 eV

  energy without entropy =      -17.84073938  energy(sigma->0) =      -17.84073938


--------------------------------------------------------------------------------------------------------




--------------------------------------- Iteration      1(  15)  ---------------------------------------


    POTLOK:  cpu time     32.4826: real time     32.4938
    SETDIJ:  cpu time      0.0679: real time      0.0679
    TRIAL :  cpu time      0.2190: real time      0.2190
    CORREC:  cpu time     32.6272: real time     32.6379
    CHARGE:  cpu time      0.1249: real time      0.1249
    --------------------------------------------
      LOOP:  cpu time     65.5509: real time     65.5729

 eigenvalue-minimisations  :     0
 total energy-change (2. order) :-0.9556593E-04  (-0.3038422E-04)
 number of electron      16.0000000 magnetization 
 augmentation part        0.0736051 magnetization 

 Free energy of the ion-electron system (eV)
  ---------------------------------------------------
  alpha Z        PSCENC =         0.08964095
  Ewald energy   TEWEN  =       549.80537767
  -Hartree energ DENC   =     -1395.43618392
  -exchange      EXHF   =         0.00000000
  -V(xc)+E(xc)   XCENC  =        57.83107864
  PAW double counting   =     10191.91385620   -10190.95651899
  entropy T*S    EENTRO =        -0.00000000
  eigenvalues    EBANDS =      -259.05857054
  atomic energy  EATOM  =      1027.97048504
  ---------------------------------------------------
  free energy    TOTEN  =       -17.84083495 eV

  energy without entropy =      -17.84083495  energy(sigma->0) =      -17.84083495


--------------------------------------------------------------------------------------------------------




--------------------------------------- Iteration      1(  16)  ---------------------------------------


    POTLOK:  cpu time     32.4351: real time     32.4472
    SETDIJ:  cpu time      0.0679: real time      0.0680
    TRIAL :  cpu time      0.2177: real time      0.2184
    CORREC:  cpu time     32.6698: real time     32.6809
    CHARGE:  cpu time      0.1253: real time      0.1253
    --------------------------------------------
      LOOP:  cpu time     65.5286: real time     65.5699

 eigenvalue-minimisations  :     0
 total energy-change (2. order) :-0.3024263E-04  (-0.1049831E-04)
 number of electron      16.0000000 magnetization 
 augmentation part        0.0735843 magnetization 

 Free energy of the ion-electron system (eV)
  ---------------------------------------------------
  alpha Z        PSCENC =         0.08964095
  Ewald energy   TEWEN  =       549.80537767
  -Hartree energ DENC   =     -1395.45119415
  -exchange      EXHF   =         0.00000000
  -V(xc)+E(xc)   XCENC  =        57.83171965
  PAW double counting   =     10189.57144068   -10188.61384272
  entropy T*S    EENTRO =        -0.00000000
  eigenvalues    EBANDS =      -259.04449231
  atomic energy  EATOM  =      1027.97048504
  ---------------------------------------------------
  free energy    TOTEN  =       -17.84086519 eV

  energy without entropy =      -17.84086519  energy(sigma->0) =      -17.84086519


--------------------------------------------------------------------------------------------------------




--------------------------------------- Iteration      1(  17)  ---------------------------------------


    POTLOK:  cpu time     32.3910: real time     32.4031
    SETDIJ:  cpu time      0.0681: real time      0.0681
    TRIAL :  cpu time      0.2179: real time      0.2179
    CORREC:  cpu time     32.6410: real time     32.6528
    CHARGE:  cpu time      0.1249: real time      0.1249
    --------------------------------------------
      LOOP:  cpu time     65.4565: real time     65.4970

 eigenvalue-minimisations  :     0
 total energy-change (2. order) :-0.1049285E-04  (-0.4501268E-05)
 number of electron      16.0000000 magnetization 
 augmentation part        0.0735597 magnetization 

 Free energy of the ion-electron system (eV)
  ---------------------------------------------------
  alpha Z        PSCENC =         0.08964095
  Ewald energy   TEWEN  =       549.80537767
  -Hartree energ DENC   =     -1395.44639304
  -exchange      EXHF   =         0.00000000
  -V(xc)+E(xc)   XCENC  =        57.83160995
  PAW double counting   =     10185.13406562   -10184.17640003
  entropy T*S    EENTRO =        -0.00000000
  eigenvalues    EBANDS =      -259.04926186
  atomic energy  EATOM  =      1027.97048504
  ---------------------------------------------------
  free energy    TOTEN  =       -17.84087569 eV

  energy without entropy =      -17.84087569  energy(sigma->0) =      -17.84087569


--------------------------------------------------------------------------------------------------------




--------------------------------------- Iteration      1(  18)  ---------------------------------------


    POTLOK:  cpu time     32.4189: real time     32.4300
    SETDIJ:  cpu time      0.0680: real time      0.0680
    TRIAL :  cpu time      0.2179: real time      0.2184
    CORREC:  cpu time     32.6935: real time     32.7047
    CHARGE:  cpu time      0.1240: real time      0.1244
    --------------------------------------------
      LOOP:  cpu time     65.5509: real time     65.5742

 eigenvalue-minimisations  :     0
 total energy-change (2. order) :-0.4467522E-05  (-0.1873115E-05)
 number of electron      16.0000000 magnetization 
 augmentation part        0.0735324 magnetization 

 Free energy of the ion-electron system (eV)
  ---------------------------------------------------
  alpha Z        PSCENC =         0.08964095
  Ewald energy   TEWEN  =       549.80537767
  -Hartree energ DENC   =     -1395.45084345
  -exchange      EXHF   =         0.00000000
  -V(xc)+E(xc)   XCENC  =        57.83186215
  PAW double counting   =     10181.47774729   -10180.52013925
  entropy T*S    EENTRO =        -0.00000000
  eigenvalues    EBANDS =      -259.04501056
  atomic energy  EATOM  =      1027.97048504
  ---------------------------------------------------
  free energy    TOTEN  =       -17.84088015 eV

  energy without entropy =      -17.84088015  energy(sigma->0) =      -17.84088015


--------------------------------------------------------------------------------------------------------




--------------------------------------- Iteration      1(  19)  ---------------------------------------


    POTLOK:  cpu time     32.3665: real time     32.3769
    SETDIJ:  cpu time      0.0679: real time      0.0679
    TRIAL :  cpu time      0.2181: real time      0.2181
    CORREC:  cpu time     32.7220: real time     32.7329
    CHARGE:  cpu time      0.1245: real time      0.1245
    --------------------------------------------
      LOOP:  cpu time     65.5108: real time     65.5506

 eigenvalue-minimisations  :     0
 total energy-change (2. order) :-0.1820545E-05  (-0.7834111E-06)
 number of electron      16.0000000 magnetization 
 augmentation part        0.0735159 magnetization 

 Free energy of the ion-electron system (eV)
  ---------------------------------------------------
  alpha Z        PSCENC =         0.08964095
  Ewald energy   TEWEN  =       549.80537767
  -Hartree energ DENC   =     -1395.44826281
  -exchange      EXHF   =         0.00000000
  -V(xc)+E(xc)   XCENC  =        57.83163359
  PAW double counting   =     10181.18152850   -10180.22382683
  entropy T*S    EENTRO =        -0.00000000
  eigenvalues    EBANDS =      -259.04745808
  atomic energy  EATOM  =      1027.97048504
  ---------------------------------------------------
  free energy    TOTEN  =       -17.84088197 eV

  energy without entropy =      -17.84088197  energy(sigma->0) =      -17.84088197


--------------------------------------------------------------------------------------------------------




--------------------------------------- Iteration      1(  20)  ---------------------------------------


    POTLOK:  cpu time     32.4419: real time     32.4530
    SETDIJ:  cpu time      0.0684: real time      0.0684
    TRIAL :  cpu time      0.2187: real time      0.2187
    CORREC:  cpu time     32.7354: real time     32.7482
    CHARGE:  cpu time      0.1242: real time      0.1243
    --------------------------------------------
      LOOP:  cpu time     65.6006: real time     65.6432

 eigenvalue-minimisations  :     0
 total energy-change (2. order) :-0.7239141E-06  (-0.2832350E-06)
 number of electron      16.0000000 magnetization 
 augmentation part        0.0735061 magnetization 

 Free energy of the ion-electron system (eV)
  ---------------------------------------------------
  alpha Z        PSCENC =         0.08964095
  Ewald energy   TEWEN  =       549.80537767
  -Hartree energ DENC   =     -1395.45115518
  -exchange      EXHF   =         0.00000000
  -V(xc)+E(xc)   XCENC  =        57.83175713
  PAW double counting   =     10183.04331814   -10182.08556331
  entropy T*S    EENTRO =        -0.00000000
  eigenvalues    EBANDS =      -259.04474315
  atomic energy  EATOM  =      1027.97048504
  ---------------------------------------------------
  free energy    TOTEN  =       -17.84088270 eV

  energy without entropy =      -17.84088270  energy(sigma->0) =      -17.84088270


--------------------------------------------------------------------------------------------------------




--------------------------------------- Iteration      1(  21)  ---------------------------------------


    POTLOK:  cpu time     32.3754: real time     32.3877
    SETDIJ:  cpu time      0.0680: real time      0.0680
    TRIAL :  cpu time      0.2178: real time      0.2178
    CORREC:  cpu time     32.6383: real time     32.6500
    CHARGE:  cpu time      0.1243: real time      0.1243
    --------------------------------------------
      LOOP:  cpu time     65.4357: real time     65.4785

 eigenvalue-minimisations  :     0
 total energy-change (2. order) :-0.2459892E-06  (-0.9374640E-07)
 number of electron      16.0000000 magnetization 
 augmentation part        0.0735036 magnetization 

 Free energy of the ion-electron system (eV)
  ---------------------------------------------------
  alpha Z        PSCENC =         0.08964095
  Ewald energy   TEWEN  =       549.80537767
  -Hartree energ DENC   =     -1395.45018343
  -exchange      EXHF   =         0.00000000
  -V(xc)+E(xc)   XCENC  =        57.83171981
  PAW double counting   =     10184.86124041   -10183.90340921
  entropy T*S    EENTRO =        -0.00000000
  eigenvalues    EBANDS =      -259.04575419
  atomic energy  EATOM  =      1027.97048504
  ---------------------------------------------------
  free energy    TOTEN  =       -17.84088294 eV

  energy without entropy =      -17.84088294  energy(sigma->0) =      -17.84088294


--------------------------------------------------------------------------------------------------------




--------------------------------------- Iteration      1(  22)  ---------------------------------------


    POTLOK:  cpu time     32.3786: real time     32.3911
    SETDIJ:  cpu time      0.0676: real time      0.0676
    TRIAL :  cpu time      0.2184: real time      0.2184
    CORREC:  cpu time     32.6673: real time     32.6790
    EDDIAG:  cpu time      0.0964: real time      0.0968
    CHARGE:  cpu time      0.1227: real time      0.1227
    --------------------------------------------
      LOOP:  cpu time     65.5658: real time     65.6085

 eigenvalue-minimisations  :     0
 total energy-change (2. order) :-0.8338611E-07  (-0.2033637E-07)
 number of electron      16.0000000 magnetization 
 augmentation part        0.0735045 magnetization 

 Free energy of the ion-electron system (eV)
  ---------------------------------------------------
  alpha Z        PSCENC =         0.08964095
  Ewald energy   TEWEN  =       549.80537767
  -Hartree energ DENC   =     -1395.45082024
  -exchange      EXHF   =         0.00000000
  -V(xc)+E(xc)   XCENC  =        57.83175312
  PAW double counting   =     10185.57338680   -10184.61553295
  entropy T*S    EENTRO =        -0.00000000
  eigenvalues    EBANDS =      -259.04517343
  atomic energy  EATOM  =      1027.97048504
  ---------------------------------------------------
  free energy    TOTEN  =       -17.84088303 eV

  energy without entropy =      -17.84088303  energy(sigma->0) =      -17.84088303


--------------------------------------------------------------------------------------------------------


  average scaling for gradient   0.9060


 average (electrostatic) potential at core
  the test charge radii are     0.5770  0.5955
  (the norm of the test charge is              1.0000)
       1 -92.4218       2-122.1832       3-122.2218



 E-fermi :  -9.3219     XC(G=0):  -0.1441     alpha+bet : -0.0337

 Fermi energy:        -9.3218602633

 k-point     1 :       0.0000    0.0000    0.0000
  band No.  band energies     occupation 
      1     -29.3299      2.00000
      2     -28.3768      2.00000
      3     -14.1445      2.00000
      4     -13.0521      2.00000
      5     -12.9168      2.00000
      6     -12.9168      2.00000
      7      -9.3928      2.00000
      8      -9.3928      2.00000
      9      -1.4950      0.00000
     10      -0.9319      0.00000
     11      -0.9316      0.00000
     12       0.0281      0.00000


--------------------------------------------------------------------------------------------------------


 soft charge-density along one line, spin component           1
         0         1         2         3         4         5         6         7         8         9
 total charge-density along one line

 pseudopotential strength for first ion, spin component:           1
 12.835  21.605   0.000   0.000  -0.000   0.001   0.001  -0.001
 21.605  36.368   0.001   0.001  -0.001   0.001   0.001  -0.001
  0.000   0.001  -3.420   0.019  -0.019  -6.135   0.033  -0.034
  0.000   0.001   0.019  -3.421  -0.019   0.033  -6.137  -0.033
 -0.000  -0.001  -0.019  -0.019  -3.420  -0.034  -0.033  -6.135
  0.001   0.001  -6.135   0.033  -0.034 -10.985   0.058  -0.060
  0.001   0.001   0.033  -6.137  -0.033   0.058 -10.988  -0.058
 -0.001  -0.001  -0.034  -0.033  -6.135  -0.060  -0.058 -10.984
 total augmentation occupancy for first ion, spin component:           1
  8.439  -3.249   0.065   0.063  -0.034  -0.029  -0.028   0.016
 -3.249   1.429  -0.029  -0.028   0.015   0.012   0.012  -0.007
  0.065  -0.029   6.178   3.665  -3.769  -2.128  -1.571   1.616
  0.063  -0.028   3.665   6.013  -3.684  -1.571  -2.057   1.580
 -0.034   0.015  -3.769  -3.684   6.219   1.616   1.580  -2.145
 -0.029   0.012  -2.128  -1.571   1.616   0.791   0.665  -0.683
 -0.028   0.012  -1.571  -2.057   1.580   0.665   0.761  -0.668
  0.016  -0.007   1.616   1.580  -2.145  -0.683  -0.668   0.799


------------------------ aborting loop because EDIFF is reached ----------------------------------------


    FORLOC:  cpu time      0.0246: real time      0.0246
    FORNL :  cpu time      0.0113: real time      0.0114
    STRESS:  cpu time      0.1616: real time      0.1616
    FORCOR:  cpu time     32.3274: real time     32.3388
    OFIELD:  cpu time      0.0079: real time      0.0088

  FORCE on cell =-STRESS in cart. coord.  units (eV):
  Direction    XX          YY          ZZ          XY          YZ          ZX
  --------------------------------------------------------------------------------------
  Alpha Z     0.08964     0.08964     0.08964
  Ewald     189.27502   186.31330   174.21697  -273.59964   266.06143  -267.49215
  Hartree   468.05208   466.61931   460.77936  -131.05035   127.43801  -128.12529
  E(xc)     -79.80869   -79.82616   -79.89759    -1.62668     1.58187    -1.59036
  Local    -982.56033  -978.40926  -961.46623   382.03425  -371.50651   373.50663
  n-local   -24.83214   -24.85736   -24.95767    -2.28381     2.22067    -2.23279
  augment     1.12425     1.12645     1.13505     0.19394    -0.18856     0.18959
  Kinetic   428.47045   428.75824   429.92267    26.51396   -25.78274    25.92196
  Fock        0.00000     0.00000     0.00000     0.00000     0.00000     0.00000
  -------------------------------------------------------------------------------------
  Total      -0.18970    -0.18585    -0.17782     0.18167    -0.17583     0.17759
  in kB      -0.03799    -0.03722    -0.03561     0.03638    -0.03521     0.03557
  external pressure =       -0.04 kB  Pullay stress =        0.00 kB


 VOLUME and BASIS-vectors are now :
 -----------------------------------------------------------------------------
  energy-cutoff  :     1000.00
  volume of cell :     8000.00
      direct lattice vectors                 reciprocal lattice vectors
    20.000000000  0.000000000  0.000000000     0.050000000  0.000000000  0.000000000
     0.000000000 20.000000000  0.000000000     0.000000000  0.050000000  0.000000000
     0.000000000  0.000000000 20.000000000     0.000000000  0.000000000  0.050000000

  length of vectors
    20.000000000 20.000000000 20.000000000     0.050000000  0.050000000  0.050000000


 FORCES acting on ions:
    Electron-Ion                     Ewald-Force                    Non-Local-Force
 -----------------------------------------------------------------------------------------------
   0.121E+00 0.163E+01 0.160E+01   0.394E-01 -.174E+01 -.170E+01   0.104E+00 -.101E+00 -.986E-01
   -.165E+03 0.164E+03 0.160E+03   0.201E+03 -.199E+03 -.195E+03   -.365E+02 0.360E+02 0.352E+02
   0.165E+03 -.165E+03 -.161E+03   -.201E+03 0.201E+03 0.196E+03   0.361E+02 -.362E+02 -.354E+02
 -----------------------------------------------------------------------------------------------
   0.248E+00 0.302E+00 0.295E+00   0.000E+00 -.284E-13 0.000E+00   -.248E+00 -.302E+00 -.295E+00


 POSITION                                       TOTAL-FORCE (eV/Angst)
 -----------------------------------------------------------------------------------
      4.81159      4.81252      5.62291         0.260556     -0.206832     -0.202153
      5.50022      4.13156      4.95716        -0.263794      0.235582      0.230347
      4.13096      5.49347      6.28866         0.003238     -0.028750     -0.028194
 -----------------------------------------------------------------------------------
    total drift:                               -0.000053      0.000121     -0.000127


--------------------------------------------------------------------------------------------------------



  FREE ENERGIE OF THE ION-ELECTRON SYSTEM (eV)
  ---------------------------------------------------
  free  energy   TOTEN  =       -17.84088303 eV

  energy  without entropy=      -17.84088303  energy(sigma->0) =      -17.84088303



--------------------------------------------------------------------------------------------------------


    POTLOK:  cpu time     32.5354: real time     32.5475


--------------------------------------------------------------------------------------------------------


 stress matrix after NEB project (eV)
     -0.18970      0.18167      0.17759
      0.18167     -0.18585     -0.17583
      0.17759     -0.17583     -0.17782
  FORCES: max atom, RMS     0.422074    0.332321
  FORCE total and by dimension    0.575598    0.263794
  Stress total and by dimension    0.541349    0.189705
     LOOP+:  cpu time   1217.1936: real time   1217.9840
    4ORBIT:  cpu time      0.0000: real time      0.0000

 total amount of memory used by VASP MPI-rank0   114032. kBytes
=======================================================================

   base      :      30000. kBytes
   nonl-proj :       1580. kBytes
   fftplans  :      29139. kBytes
   grid      :      52019. kBytes
   one-center:          1. kBytes
   wavefun   :       1293. kBytes

  
  
 General timing and accounting informations for this job:
 ========================================================
  
                  Total CPU time used (sec):     1229.296
                            User time (sec):     1216.573
                          System time (sec):       12.724
                         Elapsed time (sec):     1230.256
  
                   Maximum memory used (kb):      699560.
                   Average memory used (kb):          N/A
  
                          Minor page faults:       336271
                          Major page faults:         1165
                 Voluntary context switches:         2939
