 vasp.6.4.1 05Apr23 (build Jun  6 2023 14:46:38) gamma-only                      
 executed on        HPECrayEX_GCC date 2024.07.22  10:58:27
 running  512 mpi-ranks, with    1 threads/rank, on    4 nodes
 distrk:  each k-point on  512 cores,    1 groups
 distr:  one band on NCORE=   1 cores,  512 groups


--------------------------------------------------------------------------------------------------------


 INCAR:
   ISMEAR = 0
   SIGMA = 0.01
   PREC = Accurate
   EDIFF = 1E-8
   ENCUT = 1000
   ISIF = 2
   IBRION = 6
   POTIM = 0.008
   NFREE = 2
   EDIFF = 10-7
   GGA = ML
   LUSE_VDW = .TRUE.
   ZAB_VDW = -1.8867
   AGGAC = 0.0000
   LASPH = .TRUE.
   SYMPREC = 1E-7
   ALGO = Conjugate
   LWAVE = .FALSE.
   LCHARG = .FALSE.

 POTCAR:    PAW_PBE C_h 06Feb2004                 
 POTCAR:    PAW_PBE H_h 06Feb2004                 
 POTCAR:    PAW_PBE N_h 06Feb2004                 
 POTCAR:    PAW_PBE O_h 06Feb2004                 
 -----------------------------------------------------------------------------
|                                                                             |
|               ----> ADVICE to this user running VASP <----                  |
|                                                                             |
|     You have switched on vdW-DFT.                                           |
|     This routine was written and supplied by Jiri Klimes. We recommend      |
|     that you carefully read and cite the following publications:            |
|       J. Klimes, D.R. Bowler, A. Michelides                                 |
|          J. Phys.: Cond Matt. 22 022201 (2010)                              |
|       J. Klimes, D.R. Bowler, A. Michelides                                 |
|          Phys. Rev. B. 83, 195131 (2011)                                    |
|     and references therein.                                                 |
|                                                                             |
 -----------------------------------------------------------------------------

 POTCAR:    PAW_PBE C_h 06Feb2004                 
   VRHFIN =C: s2p2                                                                                  
   LEXCH  = PE                                                                                      
   EATOM  =   147.1560 eV,   10.8157 Ry                                                             
                                                                                                    
   TITEL  = PAW_PBE C_h 06Feb2004                                                                   
   LULTRA =        F    use ultrasoft PP ?                                                          
   IUNSCR =        1    unscreen: 0-lin 1-nonlin 2-no                                               
   RPACOR =    0.800    partial core radius                                                         
   POMASS =   12.011; ZVAL   =    4.000    mass and valenz                                          
   RCORE  =    1.100    outmost cutoff radius                                                       
   RWIGS  =    1.630; RWIGS  =    0.863    wigner-seitz radius (au A)                               
   ENMAX  =  700.000; ENMIN  =  500.000 eV                                                          
   ICORE  =        2    local potential                                                             
   LCOR   =        T    correct aug charges                                                         
   LPAW   =        T    paw PP                                                                      
   EAUG   =  946.768                                                                                
   DEXC   =    0.000                                                                                
   RMAX   =    1.128    core radius for proj-oper                                                   
   RAUG   =    1.300    factor for augmentation sphere                                              
   RDEP   =    1.162    radius for radial grids                                                     
   RDEPT  =    1.088    core radius for aug-charge                                                  
                                                                                                    
   Atomic configuration                                                                             
    4 entries                                                                                       
     n  l   j            E        occ.                                                              
     1  0  0.50      -273.3789   2.0000                                                             
     2  0  0.50       -13.7508   2.0000                                                             
     2  1  0.50        -5.2854   2.0000                                                             
     3  2  1.50        -5.4423   0.0000                                                             
   Description                                                                                      
     l       E           TYP  RCUT    TYP  RCUT                                                     
     0    -13.7508458     23  1.100                                                                 
     0     -8.2022199     23  1.100                                                                 
     1     -5.2854383     23  1.100                                                                 
     1      1.1560700     23  1.100                                                                 
     2     -5.4423304      7  1.100                                                                 
  local pseudopotential read in
  partial core-charges read in
  partial kinetic energy density read in
  atomic valenz-charges read in
  non local Contribution for L=           0  read in
    real space projection operators read in
  non local Contribution for L=           0  read in
    real space projection operators read in
  non local Contribution for L=           1  read in
    real space projection operators read in
  non local Contribution for L=           1  read in
    real space projection operators read in
    PAW grid and wavefunctions read in

   number of l-projection  operators is LMAX  =           4
   number of lm-projection operators is LMMAX =           8

 POTCAR:    PAW_PBE H_h 06Feb2004                 
   VRHFIN =H: ultrasoft test                                                                        
   LEXCH  = PE                                                                                      
   EATOM  =    12.4884 eV,    0.9179 Ry                                                             
                                                                                                    
   TITEL  = PAW_PBE H_h 06Feb2004                                                                   
   LULTRA =        F    use ultrasoft PP ?                                                          
   IUNSCR =        0    unscreen: 0-lin 1-nonlin 2-no                                               
   RPACOR =    0.000    partial core radius                                                         
   POMASS =    1.000; ZVAL   =    1.000    mass and valenz                                          
   RCORE  =    0.800    outmost cutoff radius                                                       
   RWIGS  =    0.700; RWIGS  =    0.370    wigner-seitz radius (au A)                               
   ENMAX  =  700.000; ENMIN  =  350.000 eV                                                          
   RCLOC  =    0.701    cutoff for local pot                                                        
   LCOR   =        T    correct aug charges                                                         
   LPAW   =        T    paw PP                                                                      
   EAUG   = 1000.000                                                                                
   RMAX   =    0.819    core radius for proj-oper                                                   
   RAUG   =    1.000    factor for augmentation sphere                                              
   RDEP   =    0.817    radius for radial grids                                                     
   RDEPT  =    0.817    core radius for aug-charge                                                  
                                                                                                    
   Atomic configuration                                                                             
    2 entries                                                                                       
     n  l   j            E        occ.                                                              
     1  0  0.50        -6.4927   1.0000                                                             
     2  1  0.50        -3.4015   0.0000                                                             
   Description                                                                                      
     l       E           TYP  RCUT    TYP  RCUT                                                     
     0     -6.4927493     23  0.800                                                                 
     0      6.8029130     23  0.800                                                                 
     1     -6.8029130     23  0.800                                                                 
  local pseudopotential read in
  atomic valenz-charges read in
  non local Contribution for L=           0  read in
    real space projection operators read in
  non local Contribution for L=           0  read in
    real space projection operators read in
  non local Contribution for L=           1  read in
    real space projection operators read in
    PAW grid and wavefunctions read in

   number of l-projection  operators is LMAX  =           3
   number of lm-projection operators is LMMAX =           5

 POTCAR:    PAW_PBE N_h 06Feb2004                 
   VRHFIN =N: s2p3                                                                                  
   LEXCH  = PE                                                                                      
   EATOM  =   264.5486 eV,   19.4438 Ry                                                             
                                                                                                    
   TITEL  = PAW_PBE N_h 06Feb2004                                                                   
   LULTRA =        F    use ultrasoft PP ?                                                          
   IUNSCR =        1    unscreen: 0-lin 1-nonlin 2-no                                               
   RPACOR =    0.800    partial core radius                                                         
   POMASS =   14.001; ZVAL   =    5.000    mass and valenz                                          
   RCORE  =    1.100    outmost cutoff radius                                                       
   RWIGS  =    1.480; RWIGS  =    0.783    wigner-seitz radius (au A)                               
   ENMAX  =  700.000; ENMIN  =  500.000 eV                                                          
   ICORE  =        2    local potential                                                             
   LCOR   =        T    correct aug charges                                                         
   LPAW   =        T    paw PP                                                                      
   EAUG   =  904.640                                                                                
   DEXC   =    0.000                                                                                
   RMAX   =    1.127    core radius for proj-oper                                                   
   RAUG   =    1.300    factor for augmentation sphere                                              
   RDEP   =    1.115    radius for radial grids                                                     
   RDEPT  =    1.106    core radius for aug-charge                                                  
                                                                                                    
   Atomic configuration                                                                             
    4 entries                                                                                       
     n  l   j            E        occ.                                                              
     1  0  0.50      -384.7179   2.0000                                                             
     2  0  0.50       -18.5828   2.0000                                                             
     2  1  0.50        -7.0898   3.0000                                                             
     3  2  1.50        -6.8029   0.0000                                                             
   Description                                                                                      
     l       E           TYP  RCUT    TYP  RCUT                                                     
     0    -18.5828117     23  1.100                                                                 
     0    -15.0750597     23  1.100                                                                 
     1     -7.0897851     23  1.100                                                                 
     1     -1.9663412     23  1.100                                                                 
     2     -6.8029130      7  1.100                                                                 
  local pseudopotential read in
  partial core-charges read in
  partial kinetic energy density read in
  kinetic energy density of atom read in
  atomic valenz-charges read in
  non local Contribution for L=           0  read in
    real space projection operators read in
  non local Contribution for L=           0  read in
    real space projection operators read in
  non local Contribution for L=           1  read in
    real space projection operators read in
  non local Contribution for L=           1  read in
    real space projection operators read in
    PAW grid and wavefunctions read in

   number of l-projection  operators is LMAX  =           4
   number of lm-projection operators is LMMAX =           8

 POTCAR:    PAW_PBE O_h 06Feb2004                 
   VRHFIN =O: s2p4                                                                                  
   LEXCH  = PE                                                                                      
   EATOM  =   432.3788 eV,   31.7789 Ry                                                             
                                                                                                    
   TITEL  = PAW_PBE O_h 06Feb2004                                                                   
   LULTRA =        F    use ultrasoft PP ?                                                          
   IUNSCR =        1    unscreen: 0-lin 1-nonlin 2-no                                               
   RPACOR =    0.800    partial core radius                                                         
   POMASS =   16.000; ZVAL   =    6.000    mass and valenz                                          
   RCORE  =    1.100    outmost cutoff radius                                                       
   RWIGS  =    1.400; RWIGS  =    0.741    wigner-seitz radius (au A)                               
   ENMAX  =  700.000; ENMIN  =  500.000 eV                                                          
   ICORE  =        2    local potential                                                             
   LCOR   =        T    correct aug charges                                                         
   LPAW   =        T    paw PP                                                                      
   EAUG   =  888.804                                                                                
   DEXC   =    0.000                                                                                
   RMAX   =    1.128    core radius for proj-oper                                                   
   RAUG   =    1.300    factor for augmentation sphere                                              
   RDEP   =    1.125    radius for radial grids                                                     
   RDEPT  =    1.088    core radius for aug-charge                                                  
                                                                                                    
   Atomic configuration                                                                             
    4 entries                                                                                       
     n  l   j            E        occ.                                                              
     1  0  0.50      -514.6923   2.0000                                                             
     2  0  0.50       -23.9615   2.0000                                                             
     2  1  0.50        -9.0305   4.0000                                                             
     3  2  1.50        -9.5241   0.0000                                                             
   Description                                                                                      
     l       E           TYP  RCUT    TYP  RCUT                                                     
     0    -23.9615319     23  1.100                                                                 
     0    -25.3221145     23  1.100                                                                 
     1     -9.0304911     23  1.100                                                                 
     1     -5.4802209     23  1.100                                                                 
     2     -9.5240782      7  1.100                                                                 
  local pseudopotential read in
  partial core-charges read in
  partial kinetic energy density read in
  atomic valenz-charges read in
  non local Contribution for L=           0  read in
    real space projection operators read in
  non local Contribution for L=           0  read in
    real space projection operators read in
  non local Contribution for L=           1  read in
    real space projection operators read in
  non local Contribution for L=           1  read in
    real space projection operators read in
    PAW grid and wavefunctions read in

   number of l-projection  operators is LMAX  =           4
   number of lm-projection operators is LMMAX =           8

 -----------------------------------------------------------------------------
|                                                                             |
|               ----> ADVICE to this user running VASP <----                  |
|                                                                             |
|     You enforced a specific xc type in the INCAR file but a different       |
|     type was found in the POTCAR file.                                      |
|     I HOPE YOU KNOW WHAT YOU ARE DOING!                                     |
|                                                                             |
 -----------------------------------------------------------------------------

  PAW_PBE C_h 06Feb2004                 :
 energy of atom  1       EATOM= -147.1560
 kinetic energy error for atom=    0.0031 (will be added to EATOM!!)
  PAW_PBE H_h 06Feb2004                 :
 energy of atom  2       EATOM=  -12.4884
 kinetic energy error for atom=    0.0006 (will be added to EATOM!!)
  PAW_PBE N_h 06Feb2004                 :
 energy of atom  3       EATOM= -264.5486
 kinetic energy error for atom=    0.0081 (will be added to EATOM!!)
  PAW_PBE O_h 06Feb2004                 :
 energy of atom  4       EATOM= -432.3788
 kinetic energy error for atom=    0.0171 (will be added to EATOM!!)


 POSCAR:  C  H  N  O
  positions in direct lattice
  velocities in cartesian coordinates
 exchange correlation table for  LEXCH =       44
   RHO(1)=    0.500       N(1)  =     2000
   RHO(2)=  100.500       N(2)  =     4000

 VTST: version 4.1, (05/19/21)

 CHAIN: initializing optimizer
 
 OPT: Using VASP Dynamics algorithm
 CHAIN: Read ICHAIN            0

 POSCAR:  C  H  N  O
  positions in direct lattice
  velocities in cartesian coordinates



--------------------------------------------------------------------------------------------------------


 ion  position               nearest neighbor table
   1  0.211  0.289  0.255-  13 1.23  11 1.38  10 1.45
   2  0.288  0.250  0.214-  11 1.33  12 1.37   3 1.44
   3  0.310  0.300  0.194-   8 1.08   4 1.36   2 1.44
   4  0.280  0.344  0.205-   9 1.08  10 1.36   3 1.36
   5  0.209  0.372  0.244-  10 1.01
   6  0.303  0.170  0.222-  12 1.01
   7  0.355  0.205  0.190-  12 1.01
   8  0.347  0.303  0.170-   3 1.08
   9  0.292  0.384  0.192-   4 1.08
  10  0.232  0.340  0.235-   5 1.01   4 1.36   1 1.45
  11  0.242  0.245  0.243-   2 1.33   1 1.38
  12  0.316  0.204  0.203-   7 1.01   6 1.01   2 1.37
  13  0.167  0.288  0.281-   1 1.23

  LATTYP: Found a simple tetragonal cell.
 ALAT       =    25.0000000000
 C/A-ratio  =     0.8800000000
  
  Lattice vectors:
  
 A1 = (  25.0000000000,   0.0000000000,   0.0000000000)
 A2 = (   0.0000000000,  25.0000000000,   0.0000000000)
 A3 = (   0.0000000000,   0.0000000000,  22.0000000000)


Analysis of symmetry for initial positions (statically):
=====================================================================
 Subroutine PRICEL returns:
 Original cell was already a primitive cell.
 

 Routine SETGRP: Setting up the symmetry group for a 
 simple tetragonal supercell.


 Subroutine GETGRP returns: Found  1 space group operations
 (whereof  1 operations were pure point group operations)
 out of a pool of 16 trial point group operations.


The static configuration has the point symmetry C_1 .


Analysis of symmetry for dynamics (positions and initial velocities):
=====================================================================
 Subroutine PRICEL returns:
 Original cell was already a primitive cell.
 

 Routine SETGRP: Setting up the symmetry group for a 
 simple tetragonal supercell.


 Subroutine GETGRP returns: Found  1 space group operations
 (whereof  1 operations were pure point group operations)
 out of a pool of 16 trial point group operations.


The dynamic configuration has the point symmetry C_1 .


 Subroutine INISYM returns: Found  1 space group operations
 (whereof  1 operations are pure point group operations),
 and found     1 'primitive' translations


----------------------------------------------------------------------------------------

                                     Primitive cell                                     

  volume of cell :   13750.0000

  direct lattice vectors                    reciprocal lattice vectors
    25.000000000  0.000000000  0.000000000     0.040000000  0.000000000  0.000000000
     0.000000000 25.000000000  0.000000000     0.000000000  0.040000000  0.000000000
     0.000000000  0.000000000 22.000000000     0.000000000  0.000000000  0.045454545

  length of vectors
    25.000000000 25.000000000 22.000000000     0.040000000  0.040000000  0.045454545

  position of ions in fractional coordinates (direct lattice)
     0.210722569  0.288777623  0.255086177
     0.288247926  0.249804494  0.214322646
     0.309670105  0.300180932  0.193879912
     0.279587919  0.344459217  0.205386330
     0.208859916  0.371779175  0.243765821
     0.302997939  0.169843857  0.222485579
     0.354768442  0.205360936  0.189662985
     0.347453301  0.302952673  0.170343031
     0.291575168  0.384366862  0.192215780
     0.231921871  0.339507629  0.234722454
     0.241948935  0.244585419  0.243195574
     0.316159692  0.203735051  0.202533654
     0.167432218  0.288471330  0.281195966

  ion indices of the primitive-cell ions
   primitive index   ion index
                 1           1
                 2           2
                 3           3
                 4           4
                 5           5
                 6           6
                 7           7
                 8           8
                 9           9
                10          10
                11          11
                12          12
                13          13

----------------------------------------------------------------------------------------



 KPOINTS: auto                                    

Automatic generation of k-mesh.
 Grid dimensions read from file:
 generate k-points for:    1    1    1

 Generating k-lattice:

  Cartesian coordinates                     Fractional coordinates (reciprocal lattice)
     0.040000000  0.000000000  0.000000000     1.000000000  0.000000000  0.000000000
     0.000000000  0.040000000  0.000000000     0.000000000  1.000000000  0.000000000
     0.000000000  0.000000000  0.045454545     0.000000000  0.000000000  1.000000000

  Length of vectors
     0.040000000  0.040000000  0.045454545

  Shift w.r.t. Gamma in fractional coordinates (k-lattice)
     0.000000000  0.000000000  0.000000000

 
 Subroutine IBZKPT returns following result:
 ===========================================
 
 Found      1 irreducible k-points:
 
 Following reciprocal coordinates:
            Coordinates               Weight
  0.000000  0.000000  0.000000      1.000000
 
 Following cartesian coordinates:
            Coordinates               Weight
  0.000000  0.000000  0.000000      1.000000
 
 
 Subroutine IBZKPT_HF returns following result:
 ==============================================
 
 Found      1 k-points in 1st BZ
 the following      1 k-points will be used (e.g. in the exchange kernel)
 Following reciprocal coordinates:   # in IRBZ
  0.000000  0.000000  0.000000    1.00000000   1 t-inv F


--------------------------------------------------------------------------------------------------------




 Dimension of arrays:
   k-points           NKPTS =      1   k-points in BZ     NKDIM =      1   number of bands    NBANDS=    512
   number of dos      NEDOS =    301   number of ions     NIONS =     13
   non local maximal  LDIM  =      4   non local SUM 2l+1 LMDIM =      8
   total plane-waves  NPLWV = ******
   max r-space proj   IRMAX =      1   max aug-charges    IRDMAX=   9478
   dimension x,y,z NGX =   270 NGY =  270 NGZ =  240
   dimension x,y,z NGXF=   540 NGYF=  540 NGZF=  480
   support grid    NGXF=   540 NGYF=  540 NGZF=  480
   ions per type =               4   5   3   1
   NGX,Y,Z   is equivalent  to a cutoff of  17.95, 17.95, 18.14 a.u.
   NGXF,Y,Z  is equivalent  to a cutoff of  35.91, 35.91, 36.27 a.u.

 SYSTEM =  unknown system                          
 POSCAR =   C  H  N  O                             

 Startparameter for this run:
   NWRITE =      2    write-flag & timer
   PREC   = accura    normal or accurate (medium, high low for compatibility)
   ISTART =      0    job   : 0-new  1-cont  2-samecut
   ICHARG =      2    charge: 1-file 2-atom 10-const
   ISPIN  =      1    spin polarized calculation?
   LNONCOLLINEAR =      F non collinear calculations
   LSORBIT =      F    spin-orbit coupling
   INIWAV =      1    electr: 0-lowe 1-rand  2-diag
   LASPH  =      T    aspherical Exc in radial PAW
 Electronic Relaxation 1
   ENCUT  = 1000.0 eV  73.50 Ry    8.57 a.u.  64.46 64.46 56.73*2*pi/ulx,y,z
   ENINI  = 1000.0     initial cutoff
   ENAUG  = 1000.0 eV  augmentation charge cutoff
   NELM   =     60;   NELMIN=  2; NELMDL= -5     # of ELM steps 
   EDIFF  = 0.1E-07   stopping-criterion for ELM
   LREAL  =      F    real-space projection
   NLSPLINE    = F    spline interpolate recip. space projectors
   LCOMPAT=      F    compatible to vasp.4.4
   GGA_COMPAT  = T    GGA compatible to vasp.4.4-vasp.4.6
   LMAXPAW     = -100 max onsite density
   LMAXMIX     =    2 max onsite mixed and CHGCAR
   VOSKOWN=      0    Vosko Wilk Nusair interpolation
   ROPT   =    0.00000   0.00000   0.00000   0.00000
 Ionic relaxation
   EDIFFG = 0.1E-06   stopping-criterion for IOM
   NSW    =    193    number of steps for IOM
   NBLOCK =      1;   KBLOCK =    193    inner block; outer block 
   IBRION =      6    ionic relax: 0-MD 1-quasi-New 2-CG
   NFREE  =      2    steps in history (QN), initial steepest desc. (CG)
   ISIF   =      2    stress and relaxation
   IWAVPR =     11    prediction:  0-non 1-charg 2-wave 3-comb
   ISYM   =      2    0-nonsym 1-usesym 2-fastsym
   LCORR  =      T    Harris-Foulkes like correction to forces

   POTIM  = 0.0080    time-step for ionic-motion
   TEIN   =    0.0    initial temperature
   TEBEG  =    0.0;   TEEND  =   0.0 temperature during run
   SMASS  =  -3.00    Nose mass-parameter (am)
   estimated Nose-frequenzy (Omega)   =  0.10E-29 period in steps = 0.79E+48 mass=  -0.143E-25a.u.
   SCALEE = 1.0000    scale energy and forces
   NPACO  =    256;   APACO  = 10.0  distance and # of slots for P.C.
   PSTRESS=    0.0 pullay stress

  Mass of Ions in am
   POMASS =  12.01  1.00 14.00 16.00
  Ionic Valenz
   ZVAL   =   4.00  1.00  5.00  6.00
  Atomic Wigner-Seitz radii
   RWIGS  =  -1.00 -1.00 -1.00 -1.00
  virtual crystal weights 
   VCA    =   1.00  1.00  1.00  1.00
   NELECT =      42.0000    total number of electrons
   NUPDOWN=      -1.0000    fix difference up-down

 DOS related values:
   EMIN   =  10.00;   EMAX   =-10.00  energy-range for DOS
   EFERMI =   0.00;   METHOD = LEGACY      
   ISMEAR =     0;   SIGMA  =   0.01  broadening in eV -4-tet -1-fermi 0-gaus

 Electronic relaxation 2 (details)
   IALGO  =     58    algorithm
   LDIAG  =      T    sub-space diagonalisation (order eigenvalues)
   LSUBROT=      F    optimize rotation matrix (better conditioning)
   TURBO    =      0    0=normal 1=particle mesh
   IRESTART =      0    0=no restart 2=restart with 2 vectors
   NREBOOT  =      0    no. of reboots
   NMIN     =      0    reboot dimension
   EREF     =   0.00    reference energy to select bands
   IMIX   =      4    mixing-type and parameters
     AMIX     =   0.40;   BMIX     =  1.00
     AMIX_MAG =   1.60;   BMIX_MAG =  1.00
     AMIN     =   0.10
     WC   =   100.;   INIMIX=   1;  MIXPRE=   1;  MAXMIX= -45

 Intra band minimization:
   WEIMIN = 0.0010     energy-eigenvalue tresh-hold
   EBREAK =  0.49E-11  absolut break condition
   DEPER  =   0.30     relativ break condition  

   TIME   =   0.40     timestep for ELM

  volume/ion in A,a.u.               =    1057.69      7137.66
  Fermi-wavevector in a.u.,A,eV,Ry     =   0.237533  0.448872  0.767666  0.056422
  Thomas-Fermi vector in A             =   1.039240

 Write flags
   LWAVE        =      F    write WAVECAR
   LDOWNSAMPLE  =      F    k-point downsampling of WAVECAR
   LCHARG       =      F    write CHGCAR
   LVTOT        =      F    write LOCPOT, total local potential
   LVHAR        =      F    write LOCPOT, Hartree potential only
   LELF         =      F    write electronic localiz. function (ELF)
   LORBIT       =      0    0 simple, 1 ext, 2 COOP (PROOUT), +10 PAW based schemes


 Dipole corrections
   LMONO  =      F    monopole corrections only (constant potential shift)
   LDIPOL =      F    correct potential (dipole corrections)
   IDIPOL =      0    1-x, 2-y, 3-z, 4-all directions 
   EPSILON=  1.0000000 bulk dielectric constant

 Exchange correlation treatment:
   GGA     =    ML    GGA type
   LEXCH   =    44    internal setting for exchange type
   LIBXC   =     F    Libxc                    
   VOSKOWN =     0    Vosko Wilk Nusair interpolation
   LHFCALC =     F    Hartree Fock is set to
   LHFONE  =     F    Hartree Fock one center treatment
   AEXX    =    0.0000 exact exchange contribution

 vdW DFT:
   LUSE_VDW   =     T    switch on vdW DFT
   IVDW_NL    =     1    kernel type
   LSPIN_VDW  =     F    use spin-polarized vdW DFT
   Zab_VDW    =******    correlation parameter
   PARAM1     =0.1234
   PARAM2     =1.0000
   PARAM3     =0.0000
   -- rVV10 --
   BPARAM     = 6.3000
   CPARAM     = 0.0093

 Linear response parameters
   LEPSILON=     F    determine dielectric tensor
   LRPA    =     F    only Hartree local field effects (RPA)
   LNABLA  =     F    use nabla operator in PAW spheres
   LVEL    =     F    velocity operator in full k-point grid
   CSHIFT  =0.1000    complex shift for real part using Kramers Kronig
   OMEGAMAX=  -1.0    maximum frequency
   DEG_THRESHOLD= 0.2000000E-02 threshold for treating states as degnerate
   RTIME   =   -0.100 relaxation time in fs
  (WPLASMAI=    0.000 imaginary part of plasma frequency in eV, 0.658/RTIME)
   DFIELD  = 0.0000000 0.0000000 0.0000000 field for delta impulse in time

  Optional k-point grid parameters
   LKPOINTS_OPT  =     F    use optional k-point grid
   KPOINTS_OPT_MODE=     1    mode for optional k-point grid

 Orbital magnetization related:
   ORBITALMAG=     F  switch on orbital magnetization
   LCHIMAG   =     F  perturbation theory with respect to B field
   DQ        =  0.001000  dq finite difference perturbation B field
   LLRAUG    =     F  two centre corrections for induced B field
   LBONE     =     F  B-component reconstruction in AE one-centre
   LVGVCALC  =     T  calculate vGv susceptibility
   LVGVAPPL  =     F  apply vGv susceptibility instead of pGv for G=0

 Random number generation:
   RANDOM_GENERATOR = DEFAULT
   PCG_SEED         = not used


--------------------------------------------------------------------------------------------------------


 finite differences with symmetry
 charge density and potential will be updated during run
 non-spin polarized calculation
 Conjugate gradient for all bands (Freysoldt, et al. PRB 79, 241103 (2009))
 preconditioned conjugated gradient                                        
 perform sub-space diagonalisation
    before iterative eigenvector-optimisation
 modified Broyden-mixing scheme, WC =      100.0
 initial mixing is a Kerker type mixing with AMIX =  0.4000 and BMIX =      1.0000
 Hartree-type preconditioning will be used
 using additional bands          491
 reciprocal scheme for non local part
 use partial core corrections
 no Harris-corrections to forces 
 use gradient corrections 
 use of overlap-Matrix (Vanderbilt PP)
 Gauss-broadening in eV      SIGMA  =   0.01


--------------------------------------------------------------------------------------------------------


  energy-cutoff  :     1000.00
  volume of cell :    13750.00
      direct lattice vectors                 reciprocal lattice vectors
    25.000000000  0.000000000  0.000000000     0.040000000  0.000000000  0.000000000
     0.000000000 25.000000000  0.000000000     0.000000000  0.040000000  0.000000000
     0.000000000  0.000000000 22.000000000     0.000000000  0.000000000  0.045454545

  length of vectors
    25.000000000 25.000000000 22.000000000     0.040000000  0.040000000  0.045454545



 k-points in units of 2pi/SCALE and weight: auto                                    
   0.00000000  0.00000000  0.00000000       1.000

 k-points in reciprocal lattice and weights: auto                                    
   0.00000000  0.00000000  0.00000000       1.000

 position of ions in fractional coordinates (direct lattice) 
   0.21072257  0.28877762  0.25508618
   0.28824793  0.24980449  0.21432265
   0.30967010  0.30018093  0.19387991
   0.27958792  0.34445922  0.20538633
   0.20885992  0.37177918  0.24376582
   0.30299794  0.16984386  0.22248558
   0.35476844  0.20536094  0.18966298
   0.34745330  0.30295267  0.17034303
   0.29157517  0.38436686  0.19221578
   0.23192187  0.33950763  0.23472245
   0.24194893  0.24458542  0.24319557
   0.31615969  0.20373505  0.20253365
   0.16743222  0.28847133  0.28119597

 position of ions in cartesian coordinates  (Angst):
   5.26806424  7.21944057  5.61189590
   7.20619815  6.24511236  4.71509822
   7.74175262  7.50452331  4.26535806
   6.98969798  8.61148043  4.51849927
   5.22149790  9.29447938  5.36284806
   7.57494847  4.24609644  4.89468274
   8.86921104  5.13402340  4.17258567
   8.68633252  7.57381683  3.74754669
   7.28937920  9.60917155  4.22874716
   5.79804677  8.48769073  5.16389398
   6.04872337  6.11463547  5.35030263
   7.90399229  5.09337627  4.45574038
   4.18580544  7.21178326  6.18631126



--------------------------------------------------------------------------------------------------------


 use serial FFT for orbitals x direction half grid
 k-point   1 :   0.0000 0.0000 0.0000  plane waves:  493619

 maximum and minimum number of plane-waves per node :    493619   493619

 maximum number of plane-waves:    493619
 maximum index in each direction: 
   IXMAX=   64   IYMAX=   64   IZMAX=   56
   IXMIN=    0   IYMIN=  -64   IZMIN=  -56


 serial   3D FFT for wavefunctions
 parallel 3D FFT for charge:
    minimum data exchange during FFTs selected (reduces bandwidth)


 total amount of memory used by VASP MPI-rank0  1107514. kBytes
=======================================================================

   base      :      30000. kBytes
   nonl-proj :     229253. kBytes
   fftplans  :      86063. kBytes
   grid      :     738452. kBytes
   one-center:         19. kBytes
   wavefun   :      23727. kBytes

     INWAV:  cpu time      0.0002: real time      0.0003
 Broyden mixing: mesh for mixing (old mesh)
   NGX =129   NGY =129   NGZ =113
  (NGX  =540   NGY  =540   NGZ  =480)
  gives a total of ****** points

 initial charge density was supplied:
 charge density of overlapping atoms calculated
 number of electron      42.0000000 magnetization 
 keeping initial charge density in first step


--------------------------------------------------------------------------------------------------------


 Maximum index for augmentation-charges            0 (set IRDMAX)


--------------------------------------------------------------------------------------------------------


 First call to EWALD:  gamma=   0.074
 Maximum number of real-space cells 3x 3x 3
 Maximum number of reciprocal cells 3x 3x 3

    FEWALD:  cpu time      0.0057: real time      0.0057


--------------------------------------- Ionic step        1  -------------------------------------------




--------------------------------------- Iteration      1(   1)  ---------------------------------------


vdW kernel read from vdw_kernel.bindat
  0.0000  0.2424  0.5071  0.7962  1.1119  1.4567  1.8333  2.2446  2.6937  3.1842
  3.7199  4.3049  4.9438  5.6415  6.4036  7.2358  8.1446  9.1372 10.2212 11.4050
 12.6979 14.1099 15.6519 17.3360 19.1751 21.1837 23.3773 25.7729 28.3892 31.2465
 34.3669 37.7748 41.4965 45.5611 50.0000

    POTLOK:  cpu time     18.3013: real time     18.3094
    SETDIJ:  cpu time      0.0774: real time      0.0776
    TRIAL :  cpu time     20.0388: real time     20.0521
    CORREC:  cpu time      0.0028: real time      0.0028
    --------------------------------------------
      LOOP:  cpu time     38.4392: real time     38.4610

 eigenvalue-minimisations  :  1024
 total energy-change (2. order) : 0.4398015E+03  (-0.2077065E+04)
 number of electron      42.0000000 magnetization 
 augmentation part       42.0000000 magnetization 

 Free energy of the ion-electron system (eV)
  ---------------------------------------------------
  alpha Z        PSCENC =         0.38812818
  Ewald energy   TEWEN  =      3514.15447071
  -Hartree energ DENC   =     -4875.30551621
  -exchange      EXHF   =         0.00000000
  -V(xc)+E(xc)   XCENC  =       107.57269870
  PAW double counting   =      1438.89153922    -1414.05723844
  entropy T*S    EENTRO =        -0.00595661
  eigenvalues    EBANDS =      -245.13828137
  atomic energy  EATOM  =      1913.30169869
  ---------------------------------------------------
  free energy    TOTEN  =       439.80154288 eV

  energy without entropy =      439.80749949  energy(sigma->0) =      439.80452118


--------------------------------------------------------------------------------------------------------




--------------------------------------- Iteration      1(   2)  ---------------------------------------


    TRIAL :  cpu time     88.6687: real time     88.7226
    CORREC:  cpu time      0.0003: real time      0.0003
    --------------------------------------------
      LOOP:  cpu time     88.6992: real time     88.7534

 eigenvalue-minimisations  :  2048
 total energy-change (2. order) :-0.5195008E+03  (-0.5183868E+03)
 number of electron      42.0000000 magnetization 
 augmentation part       42.0000000 magnetization 

 Free energy of the ion-electron system (eV)
  ---------------------------------------------------
  alpha Z        PSCENC =         0.38812818
  Ewald energy   TEWEN  =      3514.15447071
  -Hartree energ DENC   =     -4875.30551621
  -exchange      EXHF   =         0.00000000
  -V(xc)+E(xc)   XCENC  =       107.57269870
  PAW double counting   =      1438.89153922    -1414.05723844
  entropy T*S    EENTRO =        -0.00000000
  eigenvalues    EBANDS =      -764.64502871
  atomic energy  EATOM  =      1913.30169869
  ---------------------------------------------------
  free energy    TOTEN  =       -79.69924785 eV

  energy without entropy =      -79.69924785  energy(sigma->0) =      -79.69924785


--------------------------------------------------------------------------------------------------------




--------------------------------------- Iteration      1(   3)  ---------------------------------------


    TRIAL :  cpu time     21.5790: real time     21.5923
    CORREC:  cpu time      0.0002: real time      0.0002
    --------------------------------------------
      LOOP:  cpu time     21.5951: real time     21.6246

 eigenvalue-minimisations  :  1024
 total energy-change (2. order) :-0.3691455E+01  (-0.3691455E+01)
 number of electron      42.0000000 magnetization 
 augmentation part       42.0000000 magnetization 

 Free energy of the ion-electron system (eV)
  ---------------------------------------------------
  alpha Z        PSCENC =         0.38812818
  Ewald energy   TEWEN  =      3514.15447071
  -Hartree energ DENC   =     -4875.30551621
  -exchange      EXHF   =         0.00000000
  -V(xc)+E(xc)   XCENC  =       107.57269870
  PAW double counting   =      1438.89153922    -1414.05723844
  entropy T*S    EENTRO =        -0.00000000
  eigenvalues    EBANDS =      -768.33648353
  atomic energy  EATOM  =      1913.30169869
  ---------------------------------------------------
  free energy    TOTEN  =       -83.39070267 eV

  energy without entropy =      -83.39070267  energy(sigma->0) =      -83.39070267


--------------------------------------------------------------------------------------------------------




--------------------------------------- Iteration      1(   4)  ---------------------------------------


    TRIAL :  cpu time     86.9286: real time     86.9806
    CORREC:  cpu time      0.0003: real time      0.0003
    --------------------------------------------
      LOOP:  cpu time     86.9587: real time     87.0110

 eigenvalue-minimisations  :  2048
 total energy-change (2. order) :-0.1922197E-01  (-0.1922196E-01)
 number of electron      42.0000000 magnetization 
 augmentation part       42.0000000 magnetization 

 Free energy of the ion-electron system (eV)
  ---------------------------------------------------
  alpha Z        PSCENC =         0.38812818
  Ewald energy   TEWEN  =      3514.15447071
  -Hartree energ DENC   =     -4875.30551621
  -exchange      EXHF   =         0.00000000
  -V(xc)+E(xc)   XCENC  =       107.57269870
  PAW double counting   =      1438.89153922    -1414.05723844
  entropy T*S    EENTRO =        -0.00000000
  eigenvalues    EBANDS =      -768.35570550
  atomic energy  EATOM  =      1913.30169869
  ---------------------------------------------------
  free energy    TOTEN  =       -83.40992464 eV

  energy without entropy =      -83.40992464  energy(sigma->0) =      -83.40992464


--------------------------------------------------------------------------------------------------------




--------------------------------------- Iteration      1(   5)  ---------------------------------------


    TRIAL :  cpu time     21.3144: real time     21.3271
    CORREC:  cpu time      0.0002: real time      0.0002
    CHARGE:  cpu time      3.1477: real time      3.1506
    --------------------------------------------
      LOOP:  cpu time     24.4778: real time     24.5094

 eigenvalue-minimisations  :  1024
 total energy-change (2. order) :-0.5743259E-06  (-0.6127842E-06)
 number of electron      42.0000000 magnetization 
 augmentation part        0.0928804 magnetization 

 Free energy of the ion-electron system (eV)
  ---------------------------------------------------
  alpha Z        PSCENC =         0.38812818
  Ewald energy   TEWEN  =      3514.15447071
  -Hartree energ DENC   =     -4875.30551621
  -exchange      EXHF   =         0.00000000
  -V(xc)+E(xc)   XCENC  =       107.57269870
  PAW double counting   =      1438.89153922    -1414.05723844
  entropy T*S    EENTRO =        -0.00000000
  eigenvalues    EBANDS =      -768.35570607
  atomic energy  EATOM  =      1913.30169869
  ---------------------------------------------------
  free energy    TOTEN  =       -83.40992522 eV

  energy without entropy =      -83.40992522  energy(sigma->0) =      -83.40992522


--------------------------------------------------------------------------------------------------------




--------------------------------------- Iteration      1(   6)  ---------------------------------------


    POTLOK:  cpu time     16.7065: real time     16.7127
    SETDIJ:  cpu time      0.0700: real time      0.0700
    TRIAL :  cpu time      6.5778: real time      6.5853
    CORREC:  cpu time     21.4282: real time     21.4379
    CHARGE:  cpu time      3.0833: real time      3.0847
    --------------------------------------------
      LOOP:  cpu time     47.8825: real time     47.9221

 eigenvalue-minimisations  :     0
 total energy-change (2. order) : 0.2172123E+02  (-0.9285829E+01)
 number of electron      42.0000000 magnetization 
 augmentation part        0.0115525 magnetization 

 Free energy of the ion-electron system (eV)
  ---------------------------------------------------
  alpha Z        PSCENC =         0.38812818
  Ewald energy   TEWEN  =      3514.15447071
  -Hartree energ DENC   =     -5250.03893430
  -exchange      EXHF   =         0.00000000
  -V(xc)+E(xc)   XCENC  =       124.09603007
  PAW double counting   =     10171.37443582   -10151.16124084
  entropy T*S    EENTRO =        -0.00000000
  eigenvalues    EBANDS =      -383.80328547
  atomic energy  EATOM  =      1913.30169869
  ---------------------------------------------------
  free energy    TOTEN  =       -61.68869713 eV

  energy without entropy =      -61.68869713  energy(sigma->0) =      -61.68869713


--------------------------------------------------------------------------------------------------------




--------------------------------------- Iteration      1(   7)  ---------------------------------------


    POTLOK:  cpu time     16.8097: real time     16.8163
    SETDIJ:  cpu time      0.0700: real time      0.0700
    TRIAL :  cpu time      6.4366: real time      6.4400
    CORREC:  cpu time     21.4776: real time     21.4869
    CHARGE:  cpu time      3.0722: real time      3.0735
    --------------------------------------------
      LOOP:  cpu time     47.9103: real time     47.9311

 eigenvalue-minimisations  :     0
 total energy-change (2. order) :-0.9305565E+01  (-0.1490620E+01)
 number of electron      42.0000000 magnetization 
 augmentation part       -0.0188187 magnetization 

 Free energy of the ion-electron system (eV)
  ---------------------------------------------------
  alpha Z        PSCENC =         0.38812818
  Ewald energy   TEWEN  =      3514.15447071
  -Hartree energ DENC   =     -5095.70502233
  -exchange      EXHF   =         0.00000000
  -V(xc)+E(xc)   XCENC  =       117.14207338
  PAW double counting   =     15000.17887487   -14977.99312615
  entropy T*S    EENTRO =        -0.00000000
  eigenvalues    EBANDS =      -542.46135968
  atomic energy  EATOM  =      1913.30169869
  ---------------------------------------------------
  free energy    TOTEN  =       -70.99426232 eV

  energy without entropy =      -70.99426232  energy(sigma->0) =      -70.99426232


--------------------------------------------------------------------------------------------------------




--------------------------------------- Iteration      1(   8)  ---------------------------------------


    POTLOK:  cpu time     16.7066: real time     16.7136
    SETDIJ:  cpu time      0.0700: real time      0.0701
    TRIAL :  cpu time      6.4288: real time      6.4322
    CORREC:  cpu time     21.4127: real time     21.4209
    CHARGE:  cpu time      3.0712: real time      3.0725
    --------------------------------------------
      LOOP:  cpu time     47.7033: real time     47.7407

 eigenvalue-minimisations  :     0
 total energy-change (2. order) :-0.1504051E+01  (-0.7760341E+00)
 number of electron      42.0000000 magnetization 
 augmentation part       -0.0209240 magnetization 

 Free energy of the ion-electron system (eV)
  ---------------------------------------------------
  alpha Z        PSCENC =         0.38812818
  Ewald energy   TEWEN  =      3514.15447071
  -Hartree energ DENC   =     -5084.90337270
  -exchange      EXHF   =         0.00000000
  -V(xc)+E(xc)   XCENC  =       116.71903321
  PAW double counting   =     16214.94829431   -16192.43107016
  entropy T*S    EENTRO =        -0.00000000
  eigenvalues    EBANDS =      -554.67549553
  atomic energy  EATOM  =      1913.30169869
  ---------------------------------------------------
  free energy    TOTEN  =       -72.49831327 eV

  energy without entropy =      -72.49831327  energy(sigma->0) =      -72.49831327


--------------------------------------------------------------------------------------------------------




--------------------------------------- Iteration      1(   9)  ---------------------------------------


    POTLOK:  cpu time     16.7983: real time     16.8045
    SETDIJ:  cpu time      0.0696: real time      0.0699
    TRIAL :  cpu time      6.4133: real time      6.4168
    CORREC:  cpu time     21.5681: real time     21.5761
    CHARGE:  cpu time      3.0721: real time      3.0736
    --------------------------------------------
      LOOP:  cpu time     47.9386: real time     47.9732

 eigenvalue-minimisations  :     0
 total energy-change (2. order) :-0.7632346E+00  (-0.2638481E+00)
 number of electron      42.0000000 magnetization 
 augmentation part       -0.0174781 magnetization 

 Free energy of the ion-electron system (eV)
  ---------------------------------------------------
  alpha Z        PSCENC =         0.38812818
  Ewald energy   TEWEN  =      3514.15447071
  -Hartree energ DENC   =     -5069.34762548
  -exchange      EXHF   =         0.00000000
  -V(xc)+E(xc)   XCENC  =       116.10141230
  PAW double counting   =     16941.31242182   -16918.65420821
  entropy T*S    EENTRO =        -0.00000000
  eigenvalues    EBANDS =      -570.51784590
  atomic energy  EATOM  =      1913.30169869
  ---------------------------------------------------
  free energy    TOTEN  =       -73.26154790 eV

  energy without entropy =      -73.26154790  energy(sigma->0) =      -73.26154790


--------------------------------------------------------------------------------------------------------




--------------------------------------- Iteration      1(  10)  ---------------------------------------


    POTLOK:  cpu time     16.8107: real time     16.8176
    SETDIJ:  cpu time      0.0696: real time      0.0699
    TRIAL :  cpu time      6.4187: real time      6.4227
    CORREC:  cpu time     21.4304: real time     21.4385
    CHARGE:  cpu time      3.0684: real time      3.0699
    --------------------------------------------
      LOOP:  cpu time     47.8146: real time     47.8507

 eigenvalue-minimisations  :     0
 total energy-change (2. order) :-0.2622744E+00  (-0.7133192E-01)
 number of electron      42.0000000 magnetization 
 augmentation part       -0.0135628 magnetization 

 Free energy of the ion-electron system (eV)
  ---------------------------------------------------
  alpha Z        PSCENC =         0.38812818
  Ewald energy   TEWEN  =      3514.15447071
  -Hartree energ DENC   =     -5058.56869008
  -exchange      EXHF   =         0.00000000
  -V(xc)+E(xc)   XCENC  =       115.80326595
  PAW double counting   =     16262.48963435   -16239.85465270
  entropy T*S    EENTRO =        -0.00000000
  eigenvalues    EBANDS =      -581.23767744
  atomic energy  EATOM  =      1913.30169869
  ---------------------------------------------------
  free energy    TOTEN  =       -73.52382233 eV

  energy without entropy =      -73.52382233  energy(sigma->0) =      -73.52382233


--------------------------------------------------------------------------------------------------------




--------------------------------------- Iteration      1(  11)  ---------------------------------------


    POTLOK:  cpu time     16.8473: real time     16.8528
    SETDIJ:  cpu time      0.0700: real time      0.0700
    TRIAL :  cpu time      6.3954: real time      6.3991
    CORREC:  cpu time     21.4343: real time     21.4422
    CHARGE:  cpu time      3.0719: real time      3.0735
    --------------------------------------------
      LOOP:  cpu time     47.8337: real time     47.8694

 eigenvalue-minimisations  :     0
 total energy-change (2. order) :-0.7130095E-01  (-0.1961087E-01)
 number of electron      42.0000000 magnetization 
 augmentation part       -0.0126219 magnetization 

 Free energy of the ion-electron system (eV)
  ---------------------------------------------------
  alpha Z        PSCENC =         0.38812818
  Ewald energy   TEWEN  =      3514.15447071
  -Hartree energ DENC   =     -5054.80071356
  -exchange      EXHF   =         0.00000000
  -V(xc)+E(xc)   XCENC  =       115.73097345
  PAW double counting   =     15623.90315008   -15601.33085289
  entropy T*S    EENTRO =        -0.00000000
  eigenvalues    EBANDS =      -584.94197795
  atomic energy  EATOM  =      1913.30169869
  ---------------------------------------------------
  free energy    TOTEN  =       -73.59512328 eV

  energy without entropy =      -73.59512328  energy(sigma->0) =      -73.59512328


--------------------------------------------------------------------------------------------------------




--------------------------------------- Iteration      1(  12)  ---------------------------------------


    POTLOK:  cpu time     16.8275: real time     16.8343
    SETDIJ:  cpu time      0.0699: real time      0.0699
    TRIAL :  cpu time      6.4290: real time      6.4332
    CORREC:  cpu time     21.3901: real time     21.3993
    CHARGE:  cpu time      3.0699: real time      3.0710
    --------------------------------------------
      LOOP:  cpu time     47.8179: real time     47.8395

 eigenvalue-minimisations  :     0
 total energy-change (2. order) :-0.1961089E-01  (-0.6027373E-02)
 number of electron      42.0000000 magnetization 
 augmentation part       -0.0131397 magnetization 

 Free energy of the ion-electron system (eV)
  ---------------------------------------------------
  alpha Z        PSCENC =         0.38812818
  Ewald energy   TEWEN  =      3514.15447071
  -Hartree energ DENC   =     -5054.01991943
  -exchange      EXHF   =         0.00000000
  -V(xc)+E(xc)   XCENC  =       115.68501943
  PAW double counting   =     15339.67458280   -15317.12903205
  entropy T*S    EENTRO =        -0.00000000
  eigenvalues    EBANDS =      -585.66968251
  atomic energy  EATOM  =      1913.30169869
  ---------------------------------------------------
  free energy    TOTEN  =       -73.61473417 eV

  energy without entropy =      -73.61473417  energy(sigma->0) =      -73.61473417


--------------------------------------------------------------------------------------------------------




--------------------------------------- Iteration      1(  13)  ---------------------------------------


    POTLOK:  cpu time     16.6981: real time     16.7043
    SETDIJ:  cpu time      0.0700: real time      0.0700
    TRIAL :  cpu time      6.3961: real time      6.3996
    CORREC:  cpu time     21.4832: real time     21.4921
    CHARGE:  cpu time      3.0690: real time      3.0705
    --------------------------------------------
      LOOP:  cpu time     47.7299: real time     47.7682

 eigenvalue-minimisations  :     0
 total energy-change (2. order) :-0.6027886E-02  (-0.2015395E-02)
 number of electron      42.0000000 magnetization 
 augmentation part       -0.0138800 magnetization 

 Free energy of the ion-electron system (eV)
  ---------------------------------------------------
  alpha Z        PSCENC =         0.38812818
  Ewald energy   TEWEN  =      3514.15447071
  -Hartree energ DENC   =     -5054.60348757
  -exchange      EXHF   =         0.00000000
  -V(xc)+E(xc)   XCENC  =       115.69167394
  PAW double counting   =     15247.41106466   -15224.87543218
  entropy T*S    EENTRO =        -0.00000000
  eigenvalues    EBANDS =      -585.08887849
  atomic energy  EATOM  =      1913.30169869
  ---------------------------------------------------
  free energy    TOTEN  =       -73.62076206 eV

  energy without entropy =      -73.62076206  energy(sigma->0) =      -73.62076206


--------------------------------------------------------------------------------------------------------




--------------------------------------- Iteration      1(  14)  ---------------------------------------


    POTLOK:  cpu time     16.7472: real time     16.7533
    SETDIJ:  cpu time      0.0700: real time      0.0700
    TRIAL :  cpu time      6.4016: real time      6.4051
    CORREC:  cpu time     21.4426: real time     21.4517
    CHARGE:  cpu time      3.0737: real time      3.0752
    --------------------------------------------
      LOOP:  cpu time     47.7514: real time     47.7870

 eigenvalue-minimisations  :     0
 total energy-change (2. order) :-0.2012428E-02  (-0.6446083E-03)
 number of electron      42.0000000 magnetization 
 augmentation part       -0.0142866 magnetization 

 Free energy of the ion-electron system (eV)
  ---------------------------------------------------
  alpha Z        PSCENC =         0.38812818
  Ewald energy   TEWEN  =      3514.15447071
  -Hartree energ DENC   =     -5054.95800319
  -exchange      EXHF   =         0.00000000
  -V(xc)+E(xc)   XCENC  =       115.69377208
  PAW double counting   =     15255.44839510   -15232.91062841
  entropy T*S    EENTRO =        -0.00000000
  eigenvalues    EBANDS =      -584.74060764
  atomic energy  EATOM  =      1913.30169869
  ---------------------------------------------------
  free energy    TOTEN  =       -73.62277448 eV

  energy without entropy =      -73.62277448  energy(sigma->0) =      -73.62277448


--------------------------------------------------------------------------------------------------------




--------------------------------------- Iteration      1(  15)  ---------------------------------------


    POTLOK:  cpu time     16.6275: real time     16.6344
    SETDIJ:  cpu time      0.0698: real time      0.0698
    TRIAL :  cpu time      6.3909: real time      6.3952
    CORREC:  cpu time     21.2866: real time     21.2952
    CHARGE:  cpu time      3.0685: real time      3.0700
    --------------------------------------------
      LOOP:  cpu time     47.4748: real time     47.4964

 eigenvalue-minimisations  :     0
 total energy-change (2. order) :-0.6432962E-03  (-0.1867030E-03)
 number of electron      42.0000000 magnetization 
 augmentation part       -0.0143396 magnetization 

 Free energy of the ion-electron system (eV)
  ---------------------------------------------------
  alpha Z        PSCENC =         0.38812818
  Ewald energy   TEWEN  =      3514.15447071
  -Hartree energ DENC   =     -5055.35798514
  -exchange      EXHF   =         0.00000000
  -V(xc)+E(xc)   XCENC  =       115.70341601
  PAW double counting   =     15272.48391869   -15249.94417548
  entropy T*S    EENTRO =        -0.00000000
  eigenvalues    EBANDS =      -584.35288943
  atomic energy  EATOM  =      1913.30169869
  ---------------------------------------------------
  free energy    TOTEN  =       -73.62341778 eV

  energy without entropy =      -73.62341778  energy(sigma->0) =      -73.62341778


--------------------------------------------------------------------------------------------------------




--------------------------------------- Iteration      1(  16)  ---------------------------------------


    POTLOK:  cpu time     16.8659: real time     16.8722
    SETDIJ:  cpu time      0.0699: real time      0.0699
    TRIAL :  cpu time      6.3993: real time      6.4030
    CORREC:  cpu time     21.2563: real time     21.2655
    CHARGE:  cpu time      3.0680: real time      3.0693
    --------------------------------------------
      LOOP:  cpu time     47.6749: real time     47.7194

 eigenvalue-minimisations  :     0
 total energy-change (2. order) :-0.1867314E-03  (-0.5041988E-04)
 number of electron      42.0000000 magnetization 
 augmentation part       -0.0143148 magnetization 

 Free energy of the ion-electron system (eV)
  ---------------------------------------------------
  alpha Z        PSCENC =         0.38812818
  Ewald energy   TEWEN  =      3514.15447071
  -Hartree energ DENC   =     -5055.55666865
  -exchange      EXHF   =         0.00000000
  -V(xc)+E(xc)   XCENC  =       115.71093113
  PAW double counting   =     15277.45909197   -15254.91894236
  entropy T*S    EENTRO =        -0.00000000
  eigenvalues    EBANDS =      -584.16231419
  atomic energy  EATOM  =      1913.30169869
  ---------------------------------------------------
  free energy    TOTEN  =       -73.62360451 eV

  energy without entropy =      -73.62360451  energy(sigma->0) =      -73.62360451


--------------------------------------------------------------------------------------------------------




--------------------------------------- Iteration      1(  17)  ---------------------------------------


    POTLOK:  cpu time     16.5541: real time     16.5609
    SETDIJ:  cpu time      0.0699: real time      0.0699
    TRIAL :  cpu time      6.4375: real time      6.4408
    CORREC:  cpu time     21.2162: real time     21.2245
    CHARGE:  cpu time      3.0719: real time      3.0733
    --------------------------------------------
      LOOP:  cpu time     47.3808: real time     47.4009

 eigenvalue-minimisations  :     0
 total energy-change (2. order) :-0.5066123E-04  (-0.1451220E-04)
 number of electron      42.0000000 magnetization 
 augmentation part       -0.0142528 magnetization 

 Free energy of the ion-electron system (eV)
  ---------------------------------------------------
  alpha Z        PSCENC =         0.38812818
  Ewald energy   TEWEN  =      3514.15447071
  -Hartree energ DENC   =     -5055.55475473
  -exchange      EXHF   =         0.00000000
  -V(xc)+E(xc)   XCENC  =       115.71120900
  PAW double counting   =     15277.95041835   -15255.40957947
  entropy T*S    EENTRO =        -0.00000000
  eigenvalues    EBANDS =      -584.16524590
  atomic energy  EATOM  =      1913.30169869
  ---------------------------------------------------
  free energy    TOTEN  =       -73.62365517 eV

  energy without entropy =      -73.62365517  energy(sigma->0) =      -73.62365517


--------------------------------------------------------------------------------------------------------




--------------------------------------- Iteration      1(  18)  ---------------------------------------


    POTLOK:  cpu time     16.6638: real time     16.6713
    SETDIJ:  cpu time      0.0699: real time      0.0699
    TRIAL :  cpu time      6.4838: real time      6.4879
    CORREC:  cpu time     21.4218: real time     21.4303
    CHARGE:  cpu time      3.0714: real time      3.0727
    --------------------------------------------
      LOOP:  cpu time     47.7695: real time     47.7911

 eigenvalue-minimisations  :     0
 total energy-change (2. order) :-0.1466285E-04  (-0.4601212E-05)
 number of electron      42.0000000 magnetization 
 augmentation part       -0.0142382 magnetization 

 Free energy of the ion-electron system (eV)
  ---------------------------------------------------
  alpha Z        PSCENC =         0.38812818
  Ewald energy   TEWEN  =      3514.15447071
  -Hartree energ DENC   =     -5055.56375336
  -exchange      EXHF   =         0.00000000
  -V(xc)+E(xc)   XCENC  =       115.71237468
  PAW double counting   =     15278.16314468   -15255.62239962
  entropy T*S    EENTRO =        -0.00000000
  eigenvalues    EBANDS =      -584.15733380
  atomic energy  EATOM  =      1913.30169869
  ---------------------------------------------------
  free energy    TOTEN  =       -73.62366984 eV

  energy without entropy =      -73.62366984  energy(sigma->0) =      -73.62366984


--------------------------------------------------------------------------------------------------------




--------------------------------------- Iteration      1(  19)  ---------------------------------------


    POTLOK:  cpu time     16.6690: real time     16.6754
    SETDIJ:  cpu time      0.0700: real time      0.0700
    TRIAL :  cpu time      6.4095: real time      6.4127
    CORREC:  cpu time     21.3300: real time     21.3394
    CHARGE:  cpu time      3.0708: real time      3.0721
    --------------------------------------------
      LOOP:  cpu time     47.5638: real time     47.6016

 eigenvalue-minimisations  :     0
 total energy-change (2. order) :-0.4636571E-05  (-0.1501978E-05)
 number of electron      42.0000000 magnetization 
 augmentation part       -0.0142237 magnetization 

 Free energy of the ion-electron system (eV)
  ---------------------------------------------------
  alpha Z        PSCENC =         0.38812818
  Ewald energy   TEWEN  =      3514.15447071
  -Hartree energ DENC   =     -5055.53902685
  -exchange      EXHF   =         0.00000000
  -V(xc)+E(xc)   XCENC  =       115.71173693
  PAW double counting   =     15279.84799526   -15257.30703221
  entropy T*S    EENTRO =        -0.00000000
  eigenvalues    EBANDS =      -584.18164519
  atomic energy  EATOM  =      1913.30169869
  ---------------------------------------------------
  free energy    TOTEN  =       -73.62367447 eV

  energy without entropy =      -73.62367447  energy(sigma->0) =      -73.62367447


--------------------------------------------------------------------------------------------------------




--------------------------------------- Iteration      1(  20)  ---------------------------------------


    POTLOK:  cpu time     16.7240: real time     16.7315
    SETDIJ:  cpu time      0.0699: real time      0.0699
    TRIAL :  cpu time      6.4084: real time      6.4123
    CORREC:  cpu time     21.3171: real time     21.3264
    CHARGE:  cpu time      3.0645: real time      3.0660
    --------------------------------------------
      LOOP:  cpu time     47.6010: real time     47.6377

 eigenvalue-minimisations  :     0
 total energy-change (2. order) :-0.1512070E-05  (-0.4900778E-06)
 number of electron      42.0000000 magnetization 
 augmentation part       -0.0142216 magnetization 

 Free energy of the ion-electron system (eV)
  ---------------------------------------------------
  alpha Z        PSCENC =         0.38812818
  Ewald energy   TEWEN  =      3514.15447071
  -Hartree energ DENC   =     -5055.53067672
  -exchange      EXHF   =         0.00000000
  -V(xc)+E(xc)   XCENC  =       115.71170756
  PAW double counting   =     15281.78932937   -15259.24838414
  entropy T*S    EENTRO =        -0.00000000
  eigenvalues    EBANDS =      -584.18994964
  atomic energy  EATOM  =      1913.30169869
  ---------------------------------------------------
  free energy    TOTEN  =       -73.62367598 eV

  energy without entropy =      -73.62367598  energy(sigma->0) =      -73.62367598


--------------------------------------------------------------------------------------------------------




--------------------------------------- Iteration      1(  21)  ---------------------------------------


    POTLOK:  cpu time     16.7670: real time     16.7734
    SETDIJ:  cpu time      0.0700: real time      0.0700
    TRIAL :  cpu time      6.3970: real time      6.4013
    CORREC:  cpu time     21.3948: real time     21.4043
    CHARGE:  cpu time      3.0737: real time      3.0749
    --------------------------------------------
      LOOP:  cpu time     47.7250: real time     47.7554

 eigenvalue-minimisations  :     0
 total energy-change (2. order) :-0.4847770E-06  (-0.1345949E-06)
 number of electron      42.0000000 magnetization 
 augmentation part       -0.0142184 magnetization 

 Free energy of the ion-electron system (eV)
  ---------------------------------------------------
  alpha Z        PSCENC =         0.38812818
  Ewald energy   TEWEN  =      3514.15447071
  -Hartree energ DENC   =     -5055.52606820
  -exchange      EXHF   =         0.00000000
  -V(xc)+E(xc)   XCENC  =       115.71152803
  PAW double counting   =     15283.02771942   -15260.48677107
  entropy T*S    EENTRO =        -0.00000000
  eigenvalues    EBANDS =      -584.19438225
  atomic energy  EATOM  =      1913.30169869
  ---------------------------------------------------
  free energy    TOTEN  =       -73.62367647 eV

  energy without entropy =      -73.62367647  energy(sigma->0) =      -73.62367647


--------------------------------------------------------------------------------------------------------




--------------------------------------- Iteration      1(  22)  ---------------------------------------


    POTLOK:  cpu time     16.6427: real time     16.6486
    SETDIJ:  cpu time      0.0700: real time      0.0700
    TRIAL :  cpu time      6.4405: real time      6.4435
    CORREC:  cpu time     21.2504: real time     21.2585
    CHARGE:  cpu time      3.0706: real time      3.0719
    --------------------------------------------
      LOOP:  cpu time     47.4885: real time     47.5242

 eigenvalue-minimisations  :     0
 total energy-change (2. order) :-0.1409189E-06  (-0.4333981E-07)
 number of electron      42.0000000 magnetization 
 augmentation part       -0.0142178 magnetization 

 Free energy of the ion-electron system (eV)
  ---------------------------------------------------
  alpha Z        PSCENC =         0.38812818
  Ewald energy   TEWEN  =      3514.15447071
  -Hartree energ DENC   =     -5055.52597181
  -exchange      EXHF   =         0.00000000
  -V(xc)+E(xc)   XCENC  =       115.71153572
  PAW double counting   =     15283.36848825   -15260.82758013
  entropy T*S    EENTRO =        -0.00000000
  eigenvalues    EBANDS =      -584.19444622
  atomic energy  EATOM  =      1913.30169869
  ---------------------------------------------------
  free energy    TOTEN  =       -73.62367661 eV

  energy without entropy =      -73.62367661  energy(sigma->0) =      -73.62367661


--------------------------------------------------------------------------------------------------------




--------------------------------------- Iteration      1(  23)  ---------------------------------------


    POTLOK:  cpu time     16.6900: real time     16.6976
    SETDIJ:  cpu time      0.0698: real time      0.0698
    TRIAL :  cpu time      6.3965: real time      6.4014
    CORREC:  cpu time     21.3219: real time     21.3317
    CHARGE:  cpu time      3.0691: real time      3.0705
    --------------------------------------------
      LOOP:  cpu time     47.5797: real time     47.6035

 eigenvalue-minimisations  :     0
 total energy-change (2. order) :-0.4779031E-07  (-0.1452033E-07)
 number of electron      42.0000000 magnetization 
 augmentation part       -0.0142176 magnetization 

 Free energy of the ion-electron system (eV)
  ---------------------------------------------------
  alpha Z        PSCENC =         0.38812818
  Ewald energy   TEWEN  =      3514.15447071
  -Hartree energ DENC   =     -5055.52661015
  -exchange      EXHF   =         0.00000000
  -V(xc)+E(xc)   XCENC  =       115.71152650
  PAW double counting   =     15283.33479968   -15260.79390634
  entropy T*S    EENTRO =        -0.00000000
  eigenvalues    EBANDS =      -584.19378394
  atomic energy  EATOM  =      1913.30169869
  ---------------------------------------------------
  free energy    TOTEN  =       -73.62367666 eV

  energy without entropy =      -73.62367666  energy(sigma->0) =      -73.62367666


--------------------------------------------------------------------------------------------------------




--------------------------------------- Iteration      1(  24)  ---------------------------------------


    POTLOK:  cpu time     16.5814: real time     16.5880
    SETDIJ:  cpu time      0.0698: real time      0.0698
    TRIAL :  cpu time      6.4454: real time      6.4490
    CORREC:  cpu time     21.2344: real time     21.2442
    CHARGE:  cpu time      3.0712: real time      3.0729
    --------------------------------------------
      LOOP:  cpu time     47.4184: real time     47.4557

 eigenvalue-minimisations  :     0
 total energy-change (2. order) :-0.1683293E-07  (-0.5120770E-08)
 number of electron      42.0000000 magnetization 
 augmentation part       -0.0142177 magnetization 

 Free energy of the ion-electron system (eV)
  ---------------------------------------------------
  alpha Z        PSCENC =         0.38812818
  Ewald energy   TEWEN  =      3514.15447071
  -Hartree energ DENC   =     -5055.52735616
  -exchange      EXHF   =         0.00000000
  -V(xc)+E(xc)   XCENC  =       115.71153755
  PAW double counting   =     15283.23697895   -15260.69609310
  entropy T*S    EENTRO =        -0.00000000
  eigenvalues    EBANDS =      -584.19304150
  atomic energy  EATOM  =      1913.30169869
  ---------------------------------------------------
  free energy    TOTEN  =       -73.62367667 eV

  energy without entropy =      -73.62367667  energy(sigma->0) =      -73.62367667


--------------------------------------------------------------------------------------------------------




--------------------------------------- Iteration      1(  25)  ---------------------------------------


    POTLOK:  cpu time     16.6469: real time     16.6530
    SETDIJ:  cpu time      0.0700: real time      0.0700
    TRIAL :  cpu time      6.4481: real time      6.4522
    CORREC:  cpu time     21.2693: real time     21.2777
    EDDIAG:  cpu time      2.3302: real time      2.3318
    CHARGE:  cpu time      3.0728: real time      3.0740
    --------------------------------------------
      LOOP:  cpu time     49.8529: real time     49.8907

 eigenvalue-minimisations  :     0
 total energy-change (2. order) :-0.6435585E-08  (-0.1464488E-08)
 number of electron      42.0000000 magnetization 
 augmentation part       -0.0142179 magnetization 

 Free energy of the ion-electron system (eV)
  ---------------------------------------------------
  alpha Z        PSCENC =         0.38812818
  Ewald energy   TEWEN  =      3514.15447071
  -Hartree energ DENC   =     -5055.52780176
  -exchange      EXHF   =         0.00000000
  -V(xc)+E(xc)   XCENC  =       115.71155006
  PAW double counting   =     15283.16937067   -15260.62848753
  entropy T*S    EENTRO =        -0.00000000
  eigenvalues    EBANDS =      -584.19260570
  atomic energy  EATOM  =      1913.30169869
  ---------------------------------------------------
  free energy    TOTEN  =       -73.62367668 eV

  energy without entropy =      -73.62367668  energy(sigma->0) =      -73.62367668


--------------------------------------------------------------------------------------------------------


  average scaling for gradient   2.2417


 average (electrostatic) potential at core
  the test charge radii are     0.5770  0.4325  0.5902  0.5955
  (the norm of the test charge is              1.0000)
       1 -90.2624       2 -89.8731       3 -87.8928       4 -89.3476       5 -49.9715
       6 -49.6282       7 -49.9446       8 -48.3594       9 -48.8671      10-105.6101
      11-103.5804      12-105.0441      13-118.6548



 E-fermi :  -5.9399     XC(G=0):  -0.2098     alpha+bet : -0.0667

 Fermi energy:        -5.9398693359

 k-point     1 :       0.0000    0.0000    0.0000
  band No.  band energies     occupation 
      1     -26.1020      2.00000
      2     -24.4704      2.00000
      3     -23.8489      2.00000
      4     -22.0165      2.00000
      5     -19.7633      2.00000
      6     -16.8482      2.00000
      7     -16.4277      2.00000
      8     -14.4064      2.00000
      9     -14.3006      2.00000
     10     -13.4142      2.00000
     11     -12.6744      2.00000
     12     -11.4239      2.00000
     13     -11.3339      2.00000
     14     -11.0749      2.00000
     15     -10.0755      2.00000
     16      -9.5940      2.00000
     17      -8.8195      2.00000
     18      -6.7069      2.00000
     19      -6.5993      2.00000
     20      -6.1654      2.00000
     21      -6.0302      2.00000
     22      -2.4106      0.00000
     23      -1.4233      0.00000
     24      -1.1745      0.00000
     25      -1.0490      0.00000
     26      -0.5199      0.00000
     27      -0.1812      0.00000
     28      -0.0898      0.00000
     29      -0.0570      0.00000
     30       0.0371      0.00000
     31       0.2333      0.00000
     32       0.2556      0.00000
     33       0.2782      0.00000
     34       0.3041      0.00000
     35       0.3237      0.00000
     36       0.3434      0.00000
     37       0.3755      0.00000
     38       0.4129      0.00000
     39       0.4655      0.00000
     40       0.5029      0.00000
     41       0.5097      0.00000
     42       0.5341      0.00000
     43       0.5397      0.00000
     44       0.5621      0.00000
     45       0.5871      0.00000
     46       0.6053      0.00000
     47       0.6647      0.00000
     48       0.6804      0.00000
     49       0.6887      0.00000
     50       0.6995      0.00000
     51       0.7507      0.00000
     52       0.7696      0.00000
     53       0.7784      0.00000
     54       0.7913      0.00000
     55       0.8318      0.00000
     56       0.8726      0.00000
     57       0.8793      0.00000
     58       0.9462      0.00000
     59       0.9651      0.00000
     60       0.9961      0.00000
     61       1.0102      0.00000
     62       1.0541      0.00000
     63       1.0662      0.00000
     64       1.0890      0.00000
     65       1.1073      0.00000
     66       1.1460      0.00000
     67       1.1641      0.00000
     68       1.1825      0.00000
     69       1.1964      0.00000
     70       1.2163      0.00000
     71       1.2216      0.00000
     72       1.2316      0.00000
     73       1.2539      0.00000
     74       1.2827      0.00000
     75       1.3040      0.00000
     76       1.3067      0.00000
     77       1.3241      0.00000
     78       1.3290      0.00000
     79       1.3410      0.00000
     80       1.3576      0.00000
     81       1.3688      0.00000
     82       1.4013      0.00000
     83       1.4220      0.00000
     84       1.4302      0.00000
     85       1.4339      0.00000
     86       1.4400      0.00000
     87       1.4474      0.00000
     88       1.4569      0.00000
     89       1.4683      0.00000
     90       1.4717      0.00000
     91       1.4855      0.00000
     92       1.5004      0.00000
     93       1.5052      0.00000
[...]
      7.206198  6.245112  4.715098    -0.055173    0.273989   -0.051155  
      7.741753  7.504523  4.265358     0.217763    0.190065   -0.079370  
      6.989698  8.611480  4.518499     0.066569    0.054211   -0.080684  
      5.221498  9.294479  5.362848    -0.020450   -0.167164   -0.048140  
      7.574948  4.246096  4.894683    -0.003655    0.184253    0.314639  
      8.869211  5.134023  4.172586    -0.108221    0.010776   -0.070361  
      8.686333  7.573817  3.747547     0.091806    0.016991    0.028409  
      7.289379  9.609172  4.228747    -0.080198    0.058420    0.019154  
      5.798047  8.487691  5.163894     0.210671   -0.460356    0.000188  
      6.048723  6.114635  5.350303    -0.042077   -0.211207    0.006814  
      7.903992  5.093376  4.455740    -0.315355    0.242795    0.077236  
      4.185805  7.211783  6.186311    -0.048428    0.201101   -0.014350  

  27 f  =   15.546542 THz    97.681805 2PiTHz  518.576827 cm-1    64.295303 meV
             X         Y         Z           dx          dy          dz
      5.268064  7.219441  5.611896     0.139737    0.031140   -0.014858  
      7.206198  6.245112  4.715098     0.159879   -0.143404   -0.113276  
      7.741753  7.504523  4.265358    -0.093127    0.102602    0.141911  
      6.989698  8.611480  4.518499    -0.298371    0.051942    0.082529  
      5.221498  9.294479  5.362848    -0.153235   -0.044155   -0.035778  
      7.574948  4.246096  4.894683     0.234772    0.031954    0.423895  
      8.869211  5.134023  4.172586    -0.063066   -0.124751   -0.273255  
      8.686333  7.573817  3.747547     0.009177    0.144226    0.120132  
      7.289379  9.609172  4.228747    -0.094916    0.015659    0.018297  
      5.798047  8.487691  5.163894    -0.173558    0.043924    0.169592  
      6.048723  6.114635  5.350303     0.126795   -0.038173   -0.151560  
      7.903992  5.093376  4.455740     0.038971   -0.388518   -0.043681  
      4.185805  7.211783  6.186311     0.103344    0.315579   -0.121823  

  28 f  =   15.342911 THz    96.402355 2PiTHz  511.784435 cm-1    63.453154 meV
             X         Y         Z           dx          dy          dz
      5.268064  7.219441  5.611896     0.057539   -0.133703   -0.082375  
      7.206198  6.245112  4.715098     0.165674    0.004535   -0.038803  
      7.741753  7.504523  4.265358    -0.083426    0.136379   -0.103938  
      6.989698  8.611480  4.518499    -0.161535    0.059055    0.156513  
      5.221498  9.294479  5.362848    -0.028433   -0.090677    0.159910  
      7.574948  4.246096  4.894683    -0.389200   -0.095359   -0.417695  
      8.869211  5.134023  4.172586     0.097295   -0.182094    0.290340  
      8.686333  7.573817  3.747547    -0.075143    0.090072   -0.115375  
      7.289379  9.609172  4.228747    -0.087585    0.039950    0.082517  
      5.798047  8.487691  5.163894    -0.134322   -0.212276    0.007280  
      6.048723  6.114635  5.350303     0.159696   -0.141875    0.034576  
      7.903992  5.093376  4.455740     0.054638   -0.092014    0.087302  
      4.185805  7.211783  6.186311     0.063830    0.419534   -0.061347  

  29 f  =   11.655580 THz    73.234169 2PiTHz  388.788302 cm-1    48.203584 meV
             X         Y         Z           dx          dy          dz
      5.268064  7.219441  5.611896     0.043066    0.011960    0.084716  
      7.206198  6.245112  4.715098     0.120734    0.027113    0.233003  
      7.741753  7.504523  4.265358     0.158453    0.037419    0.304394  
      6.989698  8.611480  4.518499    -0.223732   -0.057879   -0.421391  
      5.221498  9.294479  5.362848    -0.082377   -0.021378   -0.155017  
      7.574948  4.246096  4.894683    -0.113143   -0.042974   -0.192162  
      8.869211  5.134023  4.172586     0.032055   -0.017656    0.101033  
      8.686333  7.573817  3.747547    -0.020603   -0.007845   -0.035376  
      7.289379  9.609172  4.228747    -0.211962   -0.053233   -0.399938  
      5.798047  8.487691  5.163894     0.192599    0.044659    0.366569  
      6.048723  6.114635  5.350303    -0.138469   -0.041688   -0.251115  
      7.903992  5.093376  4.455740    -0.020328    0.009861   -0.087474  
      4.185805  7.211783  6.186311    -0.020941    0.006048   -0.034214  

  30 f  =   10.588155 THz    66.527339 2PiTHz  353.182828 cm-1    43.789070 meV
             X         Y         Z           dx          dy          dz
      5.268064  7.219441  5.611896    -0.061245   -0.020243    0.038782  
      7.206198  6.245112  4.715098    -0.129712   -0.133722    0.085550  
      7.741753  7.504523  4.265358    -0.112329   -0.167670    0.086602  
      6.989698  8.611480  4.518499     0.012731   -0.118104    0.014514  
      5.221498  9.294479  5.362848     0.005412   -0.036928   -0.001963  
      7.574948  4.246096  4.894683     0.315193   -0.029225   -0.105488  
      8.869211  5.134023  4.172586     0.100633    0.285266   -0.071416  
      8.686333  7.573817  3.747547    -0.029189   -0.085383    0.026193  
      7.289379  9.609172  4.228747     0.016995   -0.039682    0.000017  
      5.798047  8.487691  5.163894     0.036452   -0.123669   -0.009316  
      6.048723  6.114635  5.350303    -0.158973   -0.255380    0.129615  
      7.903992  5.093376  4.455740     0.403810    0.248311   -0.279917  
      4.185805  7.211783  6.186311    -0.111335    0.479779   -0.008806  

  31 f  =    8.169211 THz    51.328664 2PiTHz  272.495534 cm-1    33.785125 meV
             X         Y         Z           dx          dy          dz
      5.268064  7.219441  5.611896     0.015928   -0.022411    0.016640  
      7.206198  6.245112  4.715098    -0.001839   -0.017134   -0.011758  
      7.741753  7.504523  4.265358     0.014212   -0.001050   -0.001977  
      6.989698  8.611480  4.518499    -0.001002   -0.014614   -0.022590  
      5.221498  9.294479  5.362848    -0.003658   -0.006207   -0.011357  
      7.574948  4.246096  4.894683    -0.112555   -0.135205   -0.365211  
      8.869211  5.134023  4.172586    -0.236412   -0.115616   -0.776608  
      8.686333  7.573817  3.747547     0.022623    0.006842    0.033484  
      7.289379  9.609172  4.228747    -0.000182   -0.004837   -0.009018  
      5.798047  8.487691  5.163894     0.010910   -0.012943   -0.003094  
      6.048723  6.114635  5.350303    -0.037086   -0.021354   -0.017829  
      7.903992  5.093376  4.455740     0.098286    0.135951    0.356797  
      4.185805  7.211783  6.186311    -0.014496    0.013211   -0.025547  

  32 f  =    5.862131 THz    36.832853 2PiTHz  195.539631 cm-1    24.243813 meV
             X         Y         Z           dx          dy          dz
      5.268064  7.219441  5.611896     0.053198    0.013811    0.099729  
      7.206198  6.245112  4.715098     0.096317    0.026424    0.180017  
      7.741753  7.504523  4.265358     0.089187    0.023538    0.166818  
      6.989698  8.611480  4.518499    -0.018427   -0.003302   -0.034057  
      5.221498  9.294479  5.362848    -0.072618   -0.018095   -0.136863  
      7.574948  4.246096  4.894683    -0.059805   -0.019361   -0.117994  
      8.869211  5.134023  4.172586    -0.073933   -0.039671   -0.153965  
      8.686333  7.573817  3.747547     0.023295    0.006470    0.043651  
      7.289379  9.609172  4.228747    -0.027517   -0.006173   -0.050722  
      5.798047  8.487691  5.163894    -0.080731   -0.020480   -0.150890  
      6.048723  6.114635  5.350303     0.318996    0.081512    0.593353  
      7.903992  5.093376  4.455740    -0.242076   -0.053699   -0.427938  
      4.185805  7.211783  6.186311    -0.140576   -0.040778   -0.267918  

  33 f  =    3.754010 THz    23.587138 2PiTHz  125.220280 cm-1    15.525329 meV
             X         Y         Z           dx          dy          dz
      5.268064  7.219441  5.611896     0.027477    0.007422    0.052513  
      7.206198  6.245112  4.715098    -0.021672   -0.005225   -0.039312  
      7.741753  7.504523  4.265358    -0.221276   -0.055332   -0.416848  
      6.989698  8.611480  4.518499    -0.020167   -0.005091   -0.039035  
      5.221498  9.294479  5.362848     0.077561    0.019587    0.146378  
      7.574948  4.246096  4.894683     0.059456    0.021260    0.103713  
      8.869211  5.134023  4.172586     0.003198    0.012076   -0.008166  
      8.686333  7.573817  3.747547    -0.126088   -0.031744   -0.235889  
      7.289379  9.609172  4.228747    -0.016548   -0.004186   -0.031696  
      5.798047  8.487691  5.163894     0.271485    0.068276    0.513958  
      6.048723  6.114635  5.350303     0.114647    0.029675    0.215084  
      7.903992  5.093376  4.455740     0.058717    0.006107    0.123237  
      4.185805  7.211783  6.186311    -0.222289   -0.056499   -0.419437  

  34 f  =    0.575356 THz     3.615068 2PiTHz   19.191806 cm-1     2.379480 meV
             X         Y         Z           dx          dy          dz
      5.268064  7.219441  5.611896     0.090290    0.207139   -0.013550  
      7.206198  6.245112  4.715098    -0.054599   -0.160542    0.072564  
      7.741753  7.504523  4.265358     0.117200   -0.283634   -0.067772  
      6.989698  8.611480  4.518499     0.274111   -0.151502   -0.179762  
      5.221498  9.294479  5.362848     0.109242    0.053870   -0.067896  
      7.574948  4.246096  4.894683    -0.095252   -0.055664    0.081798  
      8.869211  5.134023  4.172586    -0.061763   -0.129556    0.050816  
      8.686333  7.573817  3.747547     0.035237   -0.135813   -0.024176  
      7.289379  9.609172  4.228747     0.118507   -0.064701   -0.083330  
      5.798047  8.487691  5.163894     0.283788    0.091083   -0.167960  
      6.048723  6.114635  5.350303    -0.072377    0.075130    0.104856  
      7.903992  5.093376  4.455740    -0.234261   -0.308167    0.204952  
      4.185805  7.211783  6.186311     0.110056    0.485528   -0.001272  

  35 f  =    0.039161 THz     0.246054 2PiTHz    1.306258 cm-1     0.161955 meV
             X         Y         Z           dx          dy          dz
      5.268064  7.219441  5.611896     0.056150    0.300863   -0.091768  
      7.206198  6.245112  4.715098     0.044016    0.305645   -0.122772  
      7.741753  7.504523  4.265358     0.021274    0.303933   -0.154768  
      6.989698  8.611480  4.518499     0.016807    0.300687   -0.153546  
      5.221498  9.294479  5.362848     0.008797    0.085583   -0.035030  
      7.574948  4.246096  4.894683     0.019490    0.090034   -0.028940  
      8.869211  5.134023  4.172586     0.012072    0.090367   -0.041750  
      8.686333  7.573817  3.747547     0.002413    0.087997   -0.051398  
      7.289379  9.609172  4.228747     0.000138    0.086324   -0.050660  
      5.798047  8.487691  5.163894     0.036057    0.322976   -0.132967  
      6.048723  6.114635  5.350303     0.065249    0.328606   -0.100769  
      7.903992  5.093376  4.455740     0.052583    0.332718   -0.131623  
      4.185805  7.211783  6.186311     0.080511    0.345263   -0.076430  

  36 f/i=    0.049775 THz     0.312745 2PiTHz    1.660313 cm-1     0.205853 meV
             X         Y         Z           dx          dy          dz
      5.268064  7.219441  5.611896    -0.010344   -0.120381   -0.312237  
      7.206198  6.245112  4.715098    -0.003312   -0.112186   -0.305818  
      7.741753  7.504523  4.265358    -0.005348   -0.109400   -0.300415  
      6.989698  8.611480  4.518499    -0.010848   -0.112555   -0.302732  
      5.221498  9.294479  5.362848    -0.004816   -0.034681   -0.089107  
      7.574948  4.246096  4.894683     0.001351   -0.031442   -0.086783  
      8.869211  5.134023  4.172586     0.001693   -0.030100   -0.083577  
      8.686333  7.573817  3.747547    -0.000478   -0.030201   -0.084540  
      7.289379  9.609172  4.228747    -0.003440   -0.031922   -0.085772  
      5.798047  8.487691  5.163894    -0.015854   -0.127673   -0.335756  
      6.048723  6.114635  5.350303    -0.005761   -0.126616   -0.335544  
      7.903992  5.093376  4.455740     0.001257   -0.118792   -0.330205  
      4.185805  7.211783  6.186311    -0.012764   -0.144094   -0.362034  

  37 f/i=    0.112378 THz     0.706092 2PiTHz    3.748526 cm-1     0.464758 meV
             X         Y         Z           dx          dy          dz
      5.268064  7.219441  5.611896     0.320994   -0.085707    0.025793  
      7.206198  6.245112  4.715098     0.339332   -0.016112   -0.010191  
      7.741753  7.504523  4.265358     0.296773    0.006002    0.000828  
      6.989698  8.611480  4.518499     0.267601   -0.019531    0.026173  
      5.221498  9.294479  5.362848     0.074128   -0.024102    0.016130  
      7.574948  4.246096  4.894683     0.114407   -0.002612   -0.013517  
      8.869211  5.134023  4.172586     0.104610    0.010879   -0.014881  
      8.686333  7.573817  3.747547     0.082911    0.011786   -0.003355  
      7.289379  9.609172  4.228747     0.067542   -0.001947    0.010254  
      5.798047  8.487691  5.163894     0.301972   -0.068466    0.043384  
      6.048723  6.114635  5.350303     0.378817   -0.063514    0.002152  
      7.903992  5.093376  4.455740     0.398218    0.008354   -0.037740  
      4.185805  7.211783  6.186311     0.376592   -0.145687    0.040569  

  38 f/i=    0.353244 THz     2.219498 2PiTHz   11.782957 cm-1     1.460900 meV
             X         Y         Z           dx          dy          dz
      5.268064  7.219441  5.611896     0.099456   -0.028029    0.245758  
      7.206198  6.245112  4.715098    -0.057222   -0.023192   -0.098012  
      7.741753  7.504523  4.265358    -0.229753   -0.044200   -0.362231  
      6.989698  8.611480  4.518499    -0.230291   -0.056501   -0.309877  
      5.221498  9.294479  5.362848    -0.019974   -0.016715    0.008268  
      7.574948  4.246096  4.894683     0.027640    0.005373    0.013035  
      8.869211  5.134023  4.172586    -0.034669    0.002339   -0.101581  
      8.686333  7.573817  3.747547    -0.101606   -0.014526   -0.169168  
      7.289379  9.609172  4.228747    -0.101029   -0.020779   -0.140622  
      5.798047  8.487691  5.163894    -0.079815   -0.053296   -0.021418  
      6.048723  6.114635  5.350303     0.105202   -0.016439    0.200050  
      7.903992  5.093376  4.455740    -0.059180   -0.015731   -0.142620  
      4.185805  7.211783  6.186311     0.271453   -0.025653    0.578828  

  39 f/i=    0.785712 THz     4.936776 2PiTHz   26.208542 cm-1     3.249444 meV
             X         Y         Z           dx          dy          dz
      5.268064  7.219441  5.611896     0.048570    0.027446    0.082393  
      7.206198  6.245112  4.715098    -0.119358   -0.031958   -0.215742  
      7.741753  7.504523  4.265358     0.025134   -0.004634    0.032769  
      6.989698  8.611480  4.518499     0.181358    0.038952    0.306020  
      5.221498  9.294479  5.362848     0.089097    0.025306    0.153800  
      7.574948  4.246096  4.894683    -0.108881   -0.035081   -0.194695  
      8.869211  5.134023  4.172586    -0.084376   -0.038595   -0.155819  
      8.686333  7.573817  3.747547     0.002881   -0.004638    0.001046  
      7.289379  9.609172  4.228747     0.086015    0.017893    0.146067  
      5.798047  8.487691  5.163894     0.210481    0.059831    0.360838  
      6.048723  6.114635  5.350303    -0.115628   -0.019236   -0.205551  
      7.903992  5.093376  4.455740    -0.305545   -0.072339   -0.538253  
      4.185805  7.211783  6.186311     0.083129    0.051152    0.146264  


 ELASTIC MODULI CONTR FROM IONIC RELAXATION (kBar)
 Direction    XX          YY          ZZ          XY          YZ          ZX
 --------------------------------------------------------------------------------
 XX         -37.2972     -6.3951     -9.3673      3.5461     -1.0356     18.4026
 YY          -6.3951    -38.1627     -2.1553      4.5499      2.9667      2.9795
 ZZ          -9.3673     -2.1553     -2.8606     -0.9416      0.8798      5.0892
 XY           3.5461      4.5499     -0.9416    -13.8258      6.8062     -0.0461
 YZ          -1.0356      2.9667      0.8798      6.8062     -4.2204     -0.4044
 ZX          18.4026      2.9795      5.0892     -0.0461     -0.4044     -9.5542
 --------------------------------------------------------------------------------



--------------------------------------------------------------------------------------------------------


  LATTYP: Found a simple tetragonal cell.
 ALAT       =    25.0000000000
 C/A-ratio  =     0.8800000000
  
  Lattice vectors:
  
 A1 = (  25.0000000000,   0.0000000000,   0.0000000000)
 A2 = (   0.0000000000,  25.0000000000,   0.0000000000)
 A3 = (   0.0000000000,   0.0000000000,  22.0000000000)


Analysis of symmetry for initial positions (statically):
=====================================================================
 Subroutine PRICEL returns:
 Original cell was already a primitive cell.
 

 Routine SETGRP: Setting up the symmetry group for a 
 simple tetragonal supercell.


 Subroutine GETGRP returns: Found  1 space group operations
 (whereof  1 operations were pure point group operations)
 out of a pool of 16 trial point group operations.


The static configuration has the point symmetry C_1 .


Analysis of symmetry for dynamics (positions and initial velocities):
=====================================================================
 Subroutine PRICEL returns:
 Original cell was already a primitive cell.
 

 Routine SETGRP: Setting up the symmetry group for a 
 simple tetragonal supercell.


 Subroutine GETGRP returns: Found  1 space group operations
 (whereof  1 operations were pure point group operations)
 out of a pool of 16 trial point group operations.


The dynamic configuration has the point symmetry C_1 .


 Subroutine INISYM returns: Found  1 space group operations
 (whereof  1 operations are pure point group operations),
 and found     1 'primitive' translations


 KPOINTS: auto                                    

Automatic generation of k-mesh.
 Grid dimensions read from file:
 generate k-points for:    1    1    1

 Generating k-lattice:

  Cartesian coordinates                     Fractional coordinates (reciprocal lattice)
     0.040000000  0.000000000  0.000000000     1.000000000  0.000000000  0.000000000
     0.000000000  0.040000000  0.000000000     0.000000000  1.000000000  0.000000000
     0.000000000  0.000000000  0.045454545     0.000000000  0.000000000  1.000000000

  Length of vectors
     0.040000000  0.040000000  0.045454545

  Shift w.r.t. Gamma in fractional coordinates (k-lattice)
     0.000000000  0.000000000  0.000000000

 
 Subroutine IBZKPT returns following result:
 ===========================================
 
 Found      1 irreducible k-points:
 
 Following reciprocal coordinates:
            Coordinates               Weight
  0.000000  0.000000  0.000000      1.000000
 
 Following cartesian coordinates:
            Coordinates               Weight
  0.000000  0.000000  0.000000      1.000000
 
     LOOP+:  cpu time    859.1372: real time    859.7994
    4ORBIT:  cpu time      0.0000: real time      0.0000

 total amount of memory used by VASP MPI-rank0  1107514. kBytes
=======================================================================

   base      :      30000. kBytes
   nonl-proj :     229253. kBytes
   fftplans  :      86063. kBytes
   grid      :     738452. kBytes
   one-center:         19. kBytes
   wavefun   :      23727. kBytes

  
  
 General timing and accounting informations for this job:
 ========================================================
  
                  Total CPU time used (sec):    60741.117
                            User time (sec):    56005.476
                          System time (sec):     4735.641
                         Elapsed time (sec):    60808.662
  
                   Maximum memory used (kb):     2019608.
                   Average memory used (kb):          N/A
  
                          Minor page faults:    189466070
                          Major page faults:          695
                 Voluntary context switches:       113841
