 vasp.6.4.1 05Apr23 (build Jun  6 2023 14:46:38) gamma-only                      
 executed on        HPECrayEX_GCC date 2024.08.21  21:38:10
 running  512 mpi-ranks, with    1 threads/rank, on    4 nodes
 distrk:  each k-point on  512 cores,    1 groups
 distr:  one band on NCORE= 128 cores,    4 groups


--------------------------------------------------------------------------------------------------------


 INCAR:
   ALGO = Conjugate
   NPAR = 4
   ISMEAR = 0
   SIGMA = 0.01
   PREC = Accurate
   EDIFF = 1E-7
   ENCUT = 1000
   ISIF = 0
   GGA = RE
   LWAVE = .FALSE.
   SYMPREC = 1E-7
   LCHARG = .FALSE.
   LWAVE = .FALSE.
   LCHARG = .FALSE.

 POTCAR:    PAW_PBE C_h 06Feb2004                 
 POTCAR:    PAW_PBE H_h 06Feb2004                 
 POTCAR:    PAW_PBE C_h 06Feb2004                 
   VRHFIN =C: s2p2                                                                                  
   LEXCH  = PE                                                                                      
   EATOM  =   147.1560 eV,   10.8157 Ry                                                             
                                                                                                    
   TITEL  = PAW_PBE C_h 06Feb2004                                                                   
   LULTRA =        F    use ultrasoft PP ?                                                          
   IUNSCR =        1    unscreen: 0-lin 1-nonlin 2-no                                               
   RPACOR =    0.800    partial core radius                                                         
   POMASS =   12.011; ZVAL   =    4.000    mass and valenz                                          
   RCORE  =    1.100    outmost cutoff radius                                                       
   RWIGS  =    1.630; RWIGS  =    0.863    wigner-seitz radius (au A)                               
   ENMAX  =  700.000; ENMIN  =  500.000 eV                                                          
   ICORE  =        2    local potential                                                             
   LCOR   =        T    correct aug charges                                                         
   LPAW   =        T    paw PP                                                                      
   EAUG   =  946.768                                                                                
   DEXC   =    0.000                                                                                
   RMAX   =    1.128    core radius for proj-oper                                                   
   RAUG   =    1.300    factor for augmentation sphere                                              
   RDEP   =    1.162    radius for radial grids                                                     
   RDEPT  =    1.088    core radius for aug-charge                                                  
                                                                                                    
   Atomic configuration                                                                             
    4 entries                                                                                       
     n  l   j            E        occ.                                                              
     1  0  0.50      -273.3789   2.0000                                                             
     2  0  0.50       -13.7508   2.0000                                                             
     2  1  0.50        -5.2854   2.0000                                                             
     3  2  1.50        -5.4423   0.0000                                                             
   Description                                                                                      
     l       E           TYP  RCUT    TYP  RCUT                                                     
     0    -13.7508458     23  1.100                                                                 
     0     -8.2022199     23  1.100                                                                 
     1     -5.2854383     23  1.100                                                                 
     1      1.1560700     23  1.100                                                                 
     2     -5.4423304      7  1.100                                                                 
  local pseudopotential read in
  partial core-charges read in
  partial kinetic energy density read in
  atomic valenz-charges read in
  non local Contribution for L=           0  read in
    real space projection operators read in
  non local Contribution for L=           0  read in
    real space projection operators read in
  non local Contribution for L=           1  read in
    real space projection operators read in
  non local Contribution for L=           1  read in
    real space projection operators read in
    PAW grid and wavefunctions read in

   number of l-projection  operators is LMAX  =           4
   number of lm-projection operators is LMMAX =           8

 POTCAR:    PAW_PBE H_h 06Feb2004                 
   VRHFIN =H: ultrasoft test                                                                        
   LEXCH  = PE                                                                                      
   EATOM  =    12.4884 eV,    0.9179 Ry                                                             
                                                                                                    
   TITEL  = PAW_PBE H_h 06Feb2004                                                                   
   LULTRA =        F    use ultrasoft PP ?                                                          
   IUNSCR =        0    unscreen: 0-lin 1-nonlin 2-no                                               
   RPACOR =    0.000    partial core radius                                                         
   POMASS =    1.000; ZVAL   =    1.000    mass and valenz                                          
   RCORE  =    0.800    outmost cutoff radius                                                       
   RWIGS  =    0.700; RWIGS  =    0.370    wigner-seitz radius (au A)                               
   ENMAX  =  700.000; ENMIN  =  350.000 eV                                                          
   RCLOC  =    0.701    cutoff for local pot                                                        
   LCOR   =        T    correct aug charges                                                         
   LPAW   =        T    paw PP                                                                      
   EAUG   = 1000.000                                                                                
   RMAX   =    0.819    core radius for proj-oper                                                   
   RAUG   =    1.000    factor for augmentation sphere                                              
   RDEP   =    0.817    radius for radial grids                                                     
   RDEPT  =    0.817    core radius for aug-charge                                                  
                                                                                                    
   Atomic configuration                                                                             
    2 entries                                                                                       
     n  l   j            E        occ.                                                              
     1  0  0.50        -6.4927   1.0000                                                             
     2  1  0.50        -3.4015   0.0000                                                             
   Description                                                                                      
     l       E           TYP  RCUT    TYP  RCUT                                                     
     0     -6.4927493     23  0.800                                                                 
     0      6.8029130     23  0.800                                                                 
     1     -6.8029130     23  0.800                                                                 
  local pseudopotential read in
  atomic valenz-charges read in
  non local Contribution for L=           0  read in
    real space projection operators read in
  non local Contribution for L=           0  read in
    real space projection operators read in
  non local Contribution for L=           1  read in
    real space projection operators read in
    PAW grid and wavefunctions read in

   number of l-projection  operators is LMAX  =           3
   number of lm-projection operators is LMMAX =           5

 -----------------------------------------------------------------------------
|                                                                             |
|               ----> ADVICE to this user running VASP <----                  |
|                                                                             |
|     You have a (more or less) 'large supercell' and for larger cells it     |
|     might be more efficient to use real-space projection operators.         |
|     Therefore, try LREAL= Auto in the INCAR file.                           |
|     Mind: For very accurate calculation, you might also keep the            |
|     reciprocal projection scheme (i.e. LREAL=.FALSE.).                      |
|                                                                             |
 -----------------------------------------------------------------------------

 -----------------------------------------------------------------------------
|                                                                             |
|               ----> ADVICE to this user running VASP <----                  |
|                                                                             |
|     You enforced a specific xc type in the INCAR file but a different       |
|     type was found in the POTCAR file.                                      |
|     I HOPE YOU KNOW WHAT YOU ARE DOING!                                     |
|                                                                             |
 -----------------------------------------------------------------------------

  PAW_PBE C_h 06Feb2004                 :
 energy of atom  1       EATOM= -147.1560
 kinetic energy error for atom=    0.0031 (will be added to EATOM!!)
  PAW_PBE H_h 06Feb2004                 :
 energy of atom  2       EATOM=  -12.4884
 kinetic energy error for atom=    0.0006 (will be added to EATOM!!)


 POSCAR:  C  H
  positions in cartesian coordinates
  No initial velocities read in
 exchange correlation table for  LEXCH =       40
   RHO(1)=    0.500       N(1)  =     2000
   RHO(2)=  100.500       N(2)  =     4000

 VTST: version 4.1, (05/19/21)

 CHAIN: initializing optimizer
 
 OPT: Using VASP Dynamics algorithm
 CHAIN: Read ICHAIN            0

 POSCAR:  C  H
  positions in cartesian coordinates
  No initial velocities read in



--------------------------------------------------------------------------------------------------------


 ion  position               nearest neighbor table
   1  0.430  0.426  0.500-  12 1.09   2 1.38   6 1.41
   2  0.485  0.427  0.500-  13 1.09   1 1.38   3 1.42
   3  0.514  0.475  0.500-   2 1.42   7 1.42   4 1.43
   4  0.485  0.525  0.500-   5 1.42   8 1.42   3 1.43
   5  0.429  0.523  0.500-  14 1.09   6 1.38   4 1.42
   6  0.402  0.475  0.500-  15 1.09   5 1.38   1 1.41
   7  0.571  0.477  0.500-  11 1.09  10 1.38   3 1.42
   8  0.515  0.573  0.500-  16 1.09   9 1.38   4 1.42
   9  0.570  0.574  0.500-  17 1.09   8 1.38  10 1.41
  10  0.598  0.525  0.500-  18 1.09   7 1.38   9 1.41
  11  0.593  0.439  0.500-   7 1.09
  12  0.409  0.389  0.500-   1 1.09
  13  0.508  0.389  0.500-   2 1.09
  14  0.407  0.561  0.500-   5 1.09
  15  0.358  0.475  0.500-   6 1.09
  16  0.492  0.611  0.500-   8 1.09
  17  0.591  0.611  0.500-   9 1.09
  18  0.642  0.525  0.500-  10 1.09

  LATTYP: Found a simple tetragonal cell.
 ALAT       =    25.0000000000
 C/A-ratio  =     0.8000000000
  
  Lattice vectors:
  
 A1 = (  25.0000000000,   0.0000000000,   0.0000000000)
 A2 = (   0.0000000000,  25.0000000000,   0.0000000000)
 A3 = (   0.0000000000,   0.0000000000,  20.0000000000)


Analysis of symmetry for initial positions (statically):
=====================================================================
 Subroutine PRICEL returns:
 Original cell was already a primitive cell.
 

 Routine SETGRP: Setting up the symmetry group for a 
 simple tetragonal supercell.


 Subroutine GETGRP returns: Found  1 space group operations
 (whereof  1 operations were pure point group operations)
 out of a pool of 16 trial point group operations.


The static configuration has the point symmetry C_1 .


Analysis of symmetry for dynamics (positions and initial velocities):
=====================================================================
 Subroutine PRICEL returns:
 Original cell was already a primitive cell.
 

 Routine SETGRP: Setting up the symmetry group for a 
 simple tetragonal supercell.


 Subroutine GETGRP returns: Found  1 space group operations
 (whereof  1 operations were pure point group operations)
 out of a pool of 16 trial point group operations.


The dynamic configuration has the point symmetry C_1 .


 Subroutine INISYM returns: Found  1 space group operations
 (whereof  1 operations are pure point group operations),
 and found     1 'primitive' translations


----------------------------------------------------------------------------------------

                                     Primitive cell                                     

  volume of cell :   12500.0000

  direct lattice vectors                    reciprocal lattice vectors
    25.000000000  0.000000000  0.000000000     0.040000000  0.000000000  0.000000000
     0.000000000 25.000000000  0.000000000     0.000000000  0.040000000  0.000000000
     0.000000000  0.000000000 20.000000000     0.000000000  0.000000000  0.050000000

  length of vectors
    25.000000000 25.000000000 20.000000000     0.040000000  0.040000000  0.050000000

  position of ions in fractional coordinates (direct lattice)
     0.430377200  0.426470000  0.499993000
     0.485444400  0.426515600  0.499983500
     0.514494400  0.475246800  0.499987000
     0.485497600  0.524762800  0.500002500
     0.428789600  0.523275200  0.500019000
     0.401801600  0.475276000  0.500009000
     0.571208800  0.476728800  0.499977000
     0.514549200  0.573490800  0.500011000
     0.569620000  0.573536800  0.500005000
     0.598192800  0.524732800  0.499985500
     0.593170000  0.439096800  0.499972000
     0.408589600  0.388796400  0.499995500
     0.507534000  0.388958000  0.499972500
     0.406842000  0.560914000  0.500028000
     0.358289600  0.474713200  0.500024500
     0.492472400  0.611053600  0.500026500
     0.591420800  0.611203600  0.500007500
     0.641710400  0.525302000  0.499983500

  ion indices of the primitive-cell ions
   primitive index   ion index
                 1           1
                 2           2
                 3           3
                 4           4
                 5           5
                 6           6
                 7           7
                 8           8
                 9           9
                10          10
                11          11
                12          12
                13          13
                14          14
                15          15
                16          16
                17          17
                18          18

----------------------------------------------------------------------------------------



 KPOINTS: auto                                    

Automatic generation of k-mesh.
 Grid dimensions read from file:
 generate k-points for:    1    1    1

 Generating k-lattice:

  Cartesian coordinates                     Fractional coordinates (reciprocal lattice)
     0.040000000  0.000000000  0.000000000     1.000000000  0.000000000  0.000000000
     0.000000000  0.040000000  0.000000000     0.000000000  1.000000000  0.000000000
     0.000000000  0.000000000  0.050000000     0.000000000  0.000000000  1.000000000

  Length of vectors
     0.040000000  0.040000000  0.050000000

  Shift w.r.t. Gamma in fractional coordinates (k-lattice)
     0.000000000  0.000000000  0.000000000

 
 Subroutine IBZKPT returns following result:
 ===========================================
 
 Found      1 irreducible k-points:
 
 Following reciprocal coordinates:
            Coordinates               Weight
  0.000000  0.000000  0.000000      1.000000
 
 Following cartesian coordinates:
            Coordinates               Weight
  0.000000  0.000000  0.000000      1.000000
 


--------------------------------------------------------------------------------------------------------




 Dimension of arrays:
   k-points           NKPTS =      1   k-points in BZ     NKDIM =      1   number of bands    NBANDS=     36
   number of dos      NEDOS =    301   number of ions     NIONS =     18
   non local maximal  LDIM  =      4   non local SUM 2l+1 LMDIM =      8
   total plane-waves  NPLWV = ******
   max r-space proj   IRMAX =      1   max aug-charges    IRDMAX=   8323
   dimension x,y,z NGX =   270 NGY =  270 NGZ =  210
   dimension x,y,z NGXF=   540 NGYF=  540 NGZF=  420
   support grid    NGXF=   540 NGYF=  540 NGZF=  420
   ions per type =              10   8
   NGX,Y,Z   is equivalent  to a cutoff of  17.95, 17.95, 17.46 a.u.
   NGXF,Y,Z  is equivalent  to a cutoff of  35.91, 35.91, 34.91 a.u.

 SYSTEM =  unknown system                          
 POSCAR =   C  H                                   

 Startparameter for this run:
   NWRITE =      2    write-flag & timer
   PREC   = accura    normal or accurate (medium, high low for compatibility)
   ISTART =      0    job   : 0-new  1-cont  2-samecut
   ICHARG =      2    charge: 1-file 2-atom 10-const
   ISPIN  =      1    spin polarized calculation?
   LNONCOLLINEAR =      F non collinear calculations
   LSORBIT =      F    spin-orbit coupling
   INIWAV =      1    electr: 0-lowe 1-rand  2-diag
   LASPH  =      F    aspherical Exc in radial PAW
 Electronic Relaxation 1
   ENCUT  = 1000.0 eV  73.50 Ry    8.57 a.u.  64.46 64.46 51.57*2*pi/ulx,y,z
   ENINI  = 1000.0     initial cutoff
   ENAUG  = 1000.0 eV  augmentation charge cutoff
   NELM   =     60;   NELMIN=  2; NELMDL= -5     # of ELM steps 
   EDIFF  = 0.1E-06   stopping-criterion for ELM
   LREAL  =      F    real-space projection
   NLSPLINE    = F    spline interpolate recip. space projectors
   LCOMPAT=      F    compatible to vasp.4.4
   GGA_COMPAT  = T    GGA compatible to vasp.4.4-vasp.4.6
   LMAXPAW     = -100 max onsite density
   LMAXMIX     =    2 max onsite mixed and CHGCAR
   VOSKOWN=      0    Vosko Wilk Nusair interpolation
   ROPT   =    0.00000   0.00000
 Ionic relaxation
   EDIFFG = 0.1E-05   stopping-criterion for IOM
   NSW    =      0    number of steps for IOM
   NBLOCK =      1;   KBLOCK =      1    inner block; outer block 
   IBRION =     -1    ionic relax: 0-MD 1-quasi-New 2-CG
   NFREE  =      0    steps in history (QN), initial steepest desc. (CG)
   ISIF   =      0    stress and relaxation
   IWAVPR =     10    prediction:  0-non 1-charg 2-wave 3-comb
   ISYM   =      2    0-nonsym 1-usesym 2-fastsym
   LCORR  =      T    Harris-Foulkes like correction to forces

   POTIM  = 0.5000    time-step for ionic-motion
   TEIN   =    0.0    initial temperature
   TEBEG  =    0.0;   TEEND  =   0.0 temperature during run
   SMASS  =  -3.00    Nose mass-parameter (am)
   estimated Nose-frequenzy (Omega)   =  0.10E-29 period in steps = 0.13E+47 mass=  -0.143E-25a.u.
   SCALEE = 1.0000    scale energy and forces
   NPACO  =    256;   APACO  = 10.0  distance and # of slots for P.C.
   PSTRESS=    0.0 pullay stress

  Mass of Ions in am
   POMASS =  12.01  1.00
  Ionic Valenz
   ZVAL   =   4.00  1.00
  Atomic Wigner-Seitz radii
   RWIGS  =  -1.00 -1.00
  virtual crystal weights 
   VCA    =   1.00  1.00
   NELECT =      48.0000    total number of electrons
   NUPDOWN=      -1.0000    fix difference up-down

 DOS related values:
   EMIN   =  10.00;   EMAX   =-10.00  energy-range for DOS
   EFERMI =   0.00;   METHOD = LEGACY      
   ISMEAR =     0;   SIGMA  =   0.01  broadening in eV -4-tet -1-fermi 0-gaus

 Electronic relaxation 2 (details)
   IALGO  =     58    algorithm
   LDIAG  =      T    sub-space diagonalisation (order eigenvalues)
   LSUBROT=      F    optimize rotation matrix (better conditioning)
   TURBO    =      0    0=normal 1=particle mesh
   IRESTART =      0    0=no restart 2=restart with 2 vectors
   NREBOOT  =      0    no. of reboots
   NMIN     =      0    reboot dimension
   EREF     =   0.00    reference energy to select bands
   IMIX   =      4    mixing-type and parameters
     AMIX     =   0.40;   BMIX     =  1.00
     AMIX_MAG =   1.60;   BMIX_MAG =  1.00
     AMIN     =   0.10
     WC   =   100.;   INIMIX=   1;  MIXPRE=   1;  MAXMIX= -45

 Intra band minimization:
   WEIMIN = 0.0000     energy-eigenvalue tresh-hold
   EBREAK =  0.69E-09  absolut break condition
   DEPER  =   0.30     relativ break condition  

   TIME   =   0.40     timestep for ELM

  volume/ion in A,a.u.               =     694.44      4686.34
  Fermi-wavevector in a.u.,A,eV,Ry     =   0.256361  0.484452  0.894188  0.065721
  Thomas-Fermi vector in A             =   1.079642

 Write flags
   LWAVE        =      F    write WAVECAR
   LDOWNSAMPLE  =      F    k-point downsampling of WAVECAR
   LCHARG       =      F    write CHGCAR
   LVTOT        =      F    write LOCPOT, total local potential
   LVHAR        =      F    write LOCPOT, Hartree potential only
   LELF         =      F    write electronic localiz. function (ELF)
   LORBIT       =      0    0 simple, 1 ext, 2 COOP (PROOUT), +10 PAW based schemes


 Dipole corrections
   LMONO  =      F    monopole corrections only (constant potential shift)
   LDIPOL =      F    correct potential (dipole corrections)
   IDIPOL =      0    1-x, 2-y, 3-z, 4-all directions 
   EPSILON=  1.0000000 bulk dielectric constant

 Exchange correlation treatment:
   GGA     =    RE    GGA type
   LEXCH   =    40    internal setting for exchange type
   LIBXC   =     F    Libxc                    
   VOSKOWN =     0    Vosko Wilk Nusair interpolation
   LHFCALC =     F    Hartree Fock is set to
   LHFONE  =     F    Hartree Fock one center treatment
   AEXX    =    0.0000 exact exchange contribution

 Linear response parameters
   LEPSILON=     F    determine dielectric tensor
   LRPA    =     F    only Hartree local field effects (RPA)
   LNABLA  =     F    use nabla operator in PAW spheres
   LVEL    =     F    velocity operator in full k-point grid
   CSHIFT  =0.1000    complex shift for real part using Kramers Kronig
   OMEGAMAX=  -1.0    maximum frequency
   DEG_THRESHOLD= 0.2000000E-02 threshold for treating states as degnerate
   RTIME   =   -0.100 relaxation time in fs
  (WPLASMAI=    0.000 imaginary part of plasma frequency in eV, 0.658/RTIME)
   DFIELD  = 0.0000000 0.0000000 0.0000000 field for delta impulse in time

  Optional k-point grid parameters
   LKPOINTS_OPT  =     F    use optional k-point grid
   KPOINTS_OPT_MODE=     1    mode for optional k-point grid

 Orbital magnetization related:
   ORBITALMAG=     F  switch on orbital magnetization
   LCHIMAG   =     F  perturbation theory with respect to B field
   DQ        =  0.001000  dq finite difference perturbation B field
   LLRAUG    =     F  two centre corrections for induced B field
   LBONE     =     F  B-component reconstruction in AE one-centre
   LVGVCALC  =     T  calculate vGv susceptibility
   LVGVAPPL  =     F  apply vGv susceptibility instead of pGv for G=0

 Random number generation:
   RANDOM_GENERATOR = DEFAULT
   PCG_SEED         = not used


--------------------------------------------------------------------------------------------------------


 Static calculation
 charge density and potential will be updated during run
 non-spin polarized calculation
 Conjugate gradient for all bands (Freysoldt, et al. PRB 79, 241103 (2009))
 preconditioned conjugated gradient                                        
 perform sub-space diagonalisation
    before iterative eigenvector-optimisation
 modified Broyden-mixing scheme, WC =      100.0
 initial mixing is a Kerker type mixing with AMIX =  0.4000 and BMIX =      1.0000
 Hartree-type preconditioning will be used
 using additional bands           12
 reciprocal scheme for non local part
 use partial core corrections
 no Harris-corrections to forces 
 use gradient corrections 
 use of overlap-Matrix (Vanderbilt PP)
 Gauss-broadening in eV      SIGMA  =   0.01


--------------------------------------------------------------------------------------------------------


  energy-cutoff  :     1000.00
  volume of cell :    12500.00
      direct lattice vectors                 reciprocal lattice vectors
    25.000000000  0.000000000  0.000000000     0.040000000  0.000000000  0.000000000
     0.000000000 25.000000000  0.000000000     0.000000000  0.040000000  0.000000000
     0.000000000  0.000000000 20.000000000     0.000000000  0.000000000  0.050000000

  length of vectors
    25.000000000 25.000000000 20.000000000     0.040000000  0.040000000  0.050000000



 k-points in units of 2pi/SCALE and weight: auto                                    
   0.00000000  0.00000000  0.00000000       1.000

 k-points in reciprocal lattice and weights: auto                                    
   0.00000000  0.00000000  0.00000000       1.000

 position of ions in fractional coordinates (direct lattice) 
   0.43037720  0.42647000  0.49999300
   0.48544440  0.42651560  0.49998350
   0.51449440  0.47524680  0.49998700
   0.48549760  0.52476280  0.50000250
   0.42878960  0.52327520  0.50001900
   0.40180160  0.47527600  0.50000900
   0.57120880  0.47672880  0.49997700
   0.51454920  0.57349080  0.50001100
   0.56962000  0.57353680  0.50000500
   0.59819280  0.52473280  0.49998550
   0.59317000  0.43909680  0.49997200
   0.40858960  0.38879640  0.49999550
   0.50753400  0.38895800  0.49997250
   0.40684200  0.56091400  0.50002800
   0.35828960  0.47471320  0.50002450
   0.49247240  0.61105360  0.50002650
   0.59142080  0.61120360  0.50000750
   0.64171040  0.52530200  0.49998350

 position of ions in cartesian coordinates  (Angst):
  10.75943000 10.66175000  9.99986000
  12.13611000 10.66289000  9.99967000
  12.86236000 11.88117000  9.99974000
  12.13744000 13.11907000 10.00005000
  10.71974000 13.08188000 10.00038000
  10.04504000 11.88190000 10.00018000
  14.28022000 11.91822000  9.99954000
  12.86373000 14.33727000 10.00022000
  14.24050000 14.33842000 10.00010000
  14.95482000 13.11832000  9.99971000
  14.82925000 10.97742000  9.99944000
  10.21474000  9.71991000  9.99991000
  12.68835000  9.72395000  9.99945000
  10.17105000 14.02285000 10.00056000
   8.95724000 11.86783000 10.00049000
  12.31181000 15.27634000 10.00053000
  14.78552000 15.28009000 10.00015000
  16.04276000 13.13255000  9.99967000



--------------------------------------------------------------------------------------------------------


 use parallel FFT for orbitals z direction half grid
 k-point   1 :   0.0000 0.0000 0.0000  plane waves:  448902

 maximum and minimum number of plane-waves per node :      3521     3496

 maximum number of plane-waves:    448902
 maximum index in each direction: 
   IXMAX=   64   IYMAX=   64   IZMAX=   51
   IXMIN=  -64   IYMIN=  -64   IZMIN=    0


 parallel 3D FFT for wavefunctions:
    minimum data exchange during FFTs selected (reduces bandwidth)
 parallel 3D FFT for charge:
    minimum data exchange during FFTs selected (reduces bandwidth)


 total amount of memory used by VASP MPI-rank0    82386. kBytes
=======================================================================

   base      :      30000. kBytes
   nonl-proj :       1462. kBytes
   fftplans  :      17101. kBytes
   grid      :      32304. kBytes
   one-center:          1. kBytes
   wavefun   :       1518. kBytes

     INWAV:  cpu time      0.0001: real time      0.0003
 Broyden mixing: mesh for mixing (old mesh)
   NGX =129   NGY =129   NGZ =103
  (NGX  =540   NGY  =540   NGZ  =420)
  gives a total of ****** points

 initial charge density was supplied:
 charge density of overlapping atoms calculated
 number of electron      48.0000000 magnetization 
 keeping initial charge density in first step


--------------------------------------------------------------------------------------------------------


 Maximum index for augmentation-charges            0 (set IRDMAX)


--------------------------------------------------------------------------------------------------------


 First call to EWALD:  gamma=   0.076
 Maximum number of real-space cells 3x 3x 3
 Maximum number of reciprocal cells 3x 3x 2

    FEWALD:  cpu time      0.0034: real time      0.0034


--------------------------------------- Ionic step        1  -------------------------------------------




--------------------------------------- Iteration      1(   1)  ---------------------------------------


    POTLOK:  cpu time      0.5007: real time      0.5013
    SETDIJ:  cpu time      0.0087: real time      0.0091
    TRIAL :  cpu time      0.5574: real time      0.5602
    CORREC:  cpu time      0.0016: real time      0.0016
    --------------------------------------------
      LOOP:  cpu time      1.0772: real time      1.0810

 eigenvalue-minimisations  :    88
 total energy-change (2. order) : 0.4825533E+03  (-0.1180903E+04)
 number of electron      48.0000000 magnetization 
 augmentation part       48.0000000 magnetization 

 Free energy of the ion-electron system (eV)
  ---------------------------------------------------
  alpha Z        PSCENC =         0.60063671
  Ewald energy   TEWEN  =      4164.01188206
  -Hartree energ DENC   =     -5176.50034547
  -exchange      EXHF   =         0.00000000
  -V(xc)+E(xc)   XCENC  =        87.57269299
  PAW double counting   =      1151.52957175    -1096.41877420
  entropy T*S    EENTRO =        -0.00000000
  eigenvalues    EBANDS =      -218.91548191
  atomic energy  EATOM  =      1570.67314123
  ---------------------------------------------------
  free energy    TOTEN  =       482.55332316 eV

  energy without entropy =      482.55332316  energy(sigma->0) =      482.55332316


--------------------------------------------------------------------------------------------------------




--------------------------------------- Iteration      1(   2)  ---------------------------------------


    TRIAL :  cpu time      0.7146: real time      0.7146
    CORREC:  cpu time      0.0001: real time      0.0001
    --------------------------------------------
      LOOP:  cpu time      0.7310: real time      0.7450

 eigenvalue-minimisations  :   136
 total energy-change (2. order) :-0.2590421E+03  (-0.2431153E+03)
 number of electron      48.0000000 magnetization 
 augmentation part       48.0000000 magnetization 

 Free energy of the ion-electron system (eV)
  ---------------------------------------------------
  alpha Z        PSCENC =         0.60063671
  Ewald energy   TEWEN  =      4164.01188206
  -Hartree energ DENC   =     -5176.50034547
  -exchange      EXHF   =         0.00000000
  -V(xc)+E(xc)   XCENC  =        87.57269299
  PAW double counting   =      1151.52957175    -1096.41877420
  entropy T*S    EENTRO =        -0.00000000
  eigenvalues    EBANDS =      -477.95754402
  atomic energy  EATOM  =      1570.67314123
  ---------------------------------------------------
  free energy    TOTEN  =       223.51126106 eV

  energy without entropy =      223.51126106  energy(sigma->0) =      223.51126106


--------------------------------------------------------------------------------------------------------




--------------------------------------- Iteration      1(   3)  ---------------------------------------


    TRIAL :  cpu time      0.6512: real time      0.6516
    CORREC:  cpu time      0.0001: real time      0.0001
    --------------------------------------------
      LOOP:  cpu time      0.6648: real time      0.6815

 eigenvalue-minimisations  :   120
 total energy-change (2. order) :-0.2520267E+03  (-0.2406155E+03)
 number of electron      48.0000000 magnetization 
 augmentation part       48.0000000 magnetization 

 Free energy of the ion-electron system (eV)
  ---------------------------------------------------
  alpha Z        PSCENC =         0.60063671
  Ewald energy   TEWEN  =      4164.01188206
  -Hartree energ DENC   =     -5176.50034547
  -exchange      EXHF   =         0.00000000
  -V(xc)+E(xc)   XCENC  =        87.57269299
  PAW double counting   =      1151.52957175    -1096.41877420
  entropy T*S    EENTRO =        -0.00000000
  eigenvalues    EBANDS =      -729.98425964
  atomic energy  EATOM  =      1570.67314123
  ---------------------------------------------------
  free energy    TOTEN  =       -28.51545457 eV

  energy without entropy =      -28.51545457  energy(sigma->0) =      -28.51545457


--------------------------------------------------------------------------------------------------------




--------------------------------------- Iteration      1(   4)  ---------------------------------------


    TRIAL :  cpu time      0.5823: real time      0.5827
    CORREC:  cpu time      0.0001: real time      0.0001
    --------------------------------------------
      LOOP:  cpu time      0.6130: real time      0.6137

 eigenvalue-minimisations  :   104
 total energy-change (2. order) :-0.8843324E+02  (-0.8763058E+02)
 number of electron      48.0000000 magnetization 
 augmentation part       48.0000000 magnetization 

 Free energy of the ion-electron system (eV)
  ---------------------------------------------------
  alpha Z        PSCENC =         0.60063671
  Ewald energy   TEWEN  =      4164.01188206
  -Hartree energ DENC   =     -5176.50034547
  -exchange      EXHF   =         0.00000000
  -V(xc)+E(xc)   XCENC  =        87.57269299
  PAW double counting   =      1151.52957175    -1096.41877420
  entropy T*S    EENTRO =        -0.00000000
  eigenvalues    EBANDS =      -818.41749580
  atomic energy  EATOM  =      1570.67314123
  ---------------------------------------------------
  free energy    TOTEN  =      -116.94869073 eV

  energy without entropy =     -116.94869073  energy(sigma->0) =     -116.94869073


--------------------------------------------------------------------------------------------------------




--------------------------------------- Iteration      1(   5)  ---------------------------------------


    TRIAL :  cpu time      0.5181: real time      0.5182
    CORREC:  cpu time      0.0001: real time      0.0001
    CHARGE:  cpu time      0.0991: real time      0.0996
    --------------------------------------------
      LOOP:  cpu time      0.6348: real time      0.6503

 eigenvalue-minimisations  :    88
 total energy-change (2. order) :-0.1190541E+02  (-0.1187691E+02)
 number of electron      48.0000000 magnetization 
 augmentation part       -0.0423248 magnetization 

 Free energy of the ion-electron system (eV)
  ---------------------------------------------------
  alpha Z        PSCENC =         0.60063671
  Ewald energy   TEWEN  =      4164.01188206
  -Hartree energ DENC   =     -5176.50034547
  -exchange      EXHF   =         0.00000000
  -V(xc)+E(xc)   XCENC  =        87.57269299
  PAW double counting   =      1151.52957175    -1096.41877420
  entropy T*S    EENTRO =        -0.00000000
  eigenvalues    EBANDS =      -830.32290477
  atomic energy  EATOM  =      1570.67314123
  ---------------------------------------------------
  free energy    TOTEN  =      -128.85409970 eV

  energy without entropy =     -128.85409970  energy(sigma->0) =     -128.85409970


--------------------------------------------------------------------------------------------------------




--------------------------------------- Iteration      1(   6)  ---------------------------------------


    POTLOK:  cpu time      0.5135: real time      0.5139
    SETDIJ:  cpu time      0.0020: real time      0.0020
    TRIAL :  cpu time      0.2994: real time      0.3011
    CORREC:  cpu time      0.6547: real time      0.6553
    CHARGE:  cpu time      0.0724: real time      0.0724
    --------------------------------------------
      LOOP:  cpu time      1.5564: real time      1.5766

 eigenvalue-minimisations  :     0
 total energy-change (2. order) : 0.2023526E+02  (-0.7541506E+01)
 number of electron      48.0000000 magnetization 
 augmentation part       -0.0517820 magnetization 

 Free energy of the ion-electron system (eV)
  ---------------------------------------------------
  alpha Z        PSCENC =         0.60063671
  Ewald energy   TEWEN  =      4164.01188206
  -Hartree energ DENC   =     -5629.01941258
  -exchange      EXHF   =         0.00000000
  -V(xc)+E(xc)   XCENC  =       103.97893936
  PAW double counting   =     18304.90310261   -18250.97066201
  entropy T*S    EENTRO =        -0.00000000
  eigenvalues    EBANDS =      -372.79646914
  atomic energy  EATOM  =      1570.67314123
  ---------------------------------------------------
  free energy    TOTEN  =      -108.61884175 eV

  energy without entropy =     -108.61884175  energy(sigma->0) =     -108.61884175


--------------------------------------------------------------------------------------------------------




--------------------------------------- Iteration      1(   7)  ---------------------------------------


    POTLOK:  cpu time      0.5159: real time      0.5159
    SETDIJ:  cpu time      0.0019: real time      0.0019
    TRIAL :  cpu time      0.2803: real time      0.2807
    CORREC:  cpu time      0.6490: real time      0.6491
    CHARGE:  cpu time      0.0738: real time      0.0738
    --------------------------------------------
      LOOP:  cpu time      1.5517: real time      1.5524

 eigenvalue-minimisations  :     0
 total energy-change (2. order) :-0.7598217E+01  (-0.6952712E+00)
 number of electron      48.0000000 magnetization 
 augmentation part       -0.0622291 magnetization 

 Free energy of the ion-electron system (eV)
  ---------------------------------------------------
  alpha Z        PSCENC =         0.60063671
  Ewald energy   TEWEN  =      4164.01188206
  -Hartree energ DENC   =     -5436.89147816
  -exchange      EXHF   =         0.00000000
  -V(xc)+E(xc)   XCENC  =        97.85448517
  PAW double counting   =     21295.32808760   -21240.83738913
  entropy T*S    EENTRO =        -0.00000000
  eigenvalues    EBANDS =      -566.95642435
  atomic energy  EATOM  =      1570.67314123
  ---------------------------------------------------
  free energy    TOTEN  =      -116.21705887 eV

  energy without entropy =     -116.21705887  energy(sigma->0) =     -116.21705887


--------------------------------------------------------------------------------------------------------




--------------------------------------- Iteration      1(   8)  ---------------------------------------


    POTLOK:  cpu time      0.5169: real time      0.5170
    SETDIJ:  cpu time      0.0020: real time      0.0020
    TRIAL :  cpu time      0.2827: real time      0.2827
    CORREC:  cpu time      0.6467: real time      0.6471
    CHARGE:  cpu time      0.0733: real time      0.0733
    --------------------------------------------
      LOOP:  cpu time      1.5355: real time      1.5533

 eigenvalue-minimisations  :     0
 total energy-change (2. order) :-0.6967031E+00  (-0.2709763E+00)
 number of electron      48.0000000 magnetization 
 augmentation part       -0.0633852 magnetization 

 Free energy of the ion-electron system (eV)
  ---------------------------------------------------
  alpha Z        PSCENC =         0.60063671
  Ewald energy   TEWEN  =      4164.01188206
  -Hartree energ DENC   =     -5434.94550131
  -exchange      EXHF   =         0.00000000
  -V(xc)+E(xc)   XCENC  =        97.89009547
  PAW double counting   =     22204.07606271   -22149.52965195
  entropy T*S    EENTRO =        -0.00000000
  eigenvalues    EBANDS =      -569.69042691
  atomic energy  EATOM  =      1570.67314123
  ---------------------------------------------------
  free energy    TOTEN  =      -116.91376200 eV

  energy without entropy =     -116.91376200  energy(sigma->0) =     -116.91376200


--------------------------------------------------------------------------------------------------------




--------------------------------------- Iteration      1(   9)  ---------------------------------------


    POTLOK:  cpu time      0.5162: real time      0.5166
    SETDIJ:  cpu time      0.0031: real time      0.0031
    TRIAL :  cpu time      0.2821: real time      0.2821
    CORREC:  cpu time      0.6497: real time      0.6500
    CHARGE:  cpu time      0.0735: real time      0.0735
    --------------------------------------------
      LOOP:  cpu time      1.5427: real time      1.5580

 eigenvalue-minimisations  :     0
 total energy-change (2. order) :-0.2664554E+00  (-0.1137778E+00)
 number of electron      48.0000000 magnetization 
 augmentation part       -0.0640798 magnetization 

 Free energy of the ion-electron system (eV)
  ---------------------------------------------------
  alpha Z        PSCENC =         0.60063671
  Ewald energy   TEWEN  =      4164.01188206
  -Hartree energ DENC   =     -5428.71789862
  -exchange      EXHF   =         0.00000000
  -V(xc)+E(xc)   XCENC  =        97.71186315
  PAW double counting   =     22410.03294923   -22355.44509508
  entropy T*S    EENTRO =        -0.00000000
  eigenvalues    EBANDS =      -576.04769606
  atomic energy  EATOM  =      1570.67314123
  ---------------------------------------------------
  free energy    TOTEN  =      -117.18021738 eV

  energy without entropy =     -117.18021738  energy(sigma->0) =     -117.18021738


--------------------------------------------------------------------------------------------------------




--------------------------------------- Iteration      1(  10)  ---------------------------------------


    POTLOK:  cpu time      0.5145: real time      0.5146
    SETDIJ:  cpu time      0.0019: real time      0.0019
    TRIAL :  cpu time      0.2817: real time      0.2817
    CORREC:  cpu time      0.6438: real time      0.6442
    CHARGE:  cpu time      0.0745: real time      0.0745
    --------------------------------------------
      LOOP:  cpu time      1.5479: real time      1.5488

 eigenvalue-minimisations  :     0
 total energy-change (2. order) :-0.1112589E+00  (-0.3437580E-01)
 number of electron      48.0000000 magnetization 
 augmentation part       -0.0645312 magnetization 

 Free energy of the ion-electron system (eV)
  ---------------------------------------------------
  alpha Z        PSCENC =         0.60063671
  Ewald energy   TEWEN  =      4164.01188206
  -Hartree energ DENC   =     -5423.68526272
  -exchange      EXHF   =         0.00000000
  -V(xc)+E(xc)   XCENC  =        97.60175943
  PAW double counting   =     22105.33610660   -22050.74559590
  entropy T*S    EENTRO =        -0.00000000
  eigenvalues    EBANDS =      -581.08414373
  atomic energy  EATOM  =      1570.67314123
  ---------------------------------------------------
  free energy    TOTEN  =      -117.29147631 eV

  energy without entropy =     -117.29147631  energy(sigma->0) =     -117.29147631


--------------------------------------------------------------------------------------------------------




--------------------------------------- Iteration      1(  11)  ---------------------------------------


    POTLOK:  cpu time      0.5019: real time      0.5024
    SETDIJ:  cpu time      0.0021: real time      0.0021
    TRIAL :  cpu time      0.2817: real time      0.2817
    CORREC:  cpu time      0.6223: real time      0.6225
    CHARGE:  cpu time      0.0728: real time      0.0728
    --------------------------------------------
      LOOP:  cpu time      1.4946: real time      1.5121

 eigenvalue-minimisations  :     0
 total energy-change (2. order) :-0.3414473E-01  (-0.9360099E-02)
 number of electron      48.0000000 magnetization 
 augmentation part       -0.0646110 magnetization 

 Free energy of the ion-electron system (eV)
  ---------------------------------------------------
  alpha Z        PSCENC =         0.60063671
  Ewald energy   TEWEN  =      4164.01188206
  -Hartree energ DENC   =     -5423.67149080
  -exchange      EXHF   =         0.00000000
  -V(xc)+E(xc)   XCENC  =        97.62463958
  PAW double counting   =     21863.13972258   -21808.56387003
  entropy T*S    EENTRO =        -0.00000000
  eigenvalues    EBANDS =      -581.14028236
  atomic energy  EATOM  =      1570.67314123
  ---------------------------------------------------
  free energy    TOTEN  =      -117.32562104 eV

  energy without entropy =     -117.32562104  energy(sigma->0) =     -117.32562104


--------------------------------------------------------------------------------------------------------




--------------------------------------- Iteration      1(  12)  ---------------------------------------


    POTLOK:  cpu time      0.4952: real time      0.4952
    SETDIJ:  cpu time      0.0022: real time      0.0022
    TRIAL :  cpu time      0.2816: real time      0.2816
    CORREC:  cpu time      0.6184: real time      0.6190
    CHARGE:  cpu time      0.0722: real time      0.0722
    --------------------------------------------
      LOOP:  cpu time      1.4879: real time      1.5007

 eigenvalue-minimisations  :     0
 total energy-change (2. order) :-0.9345042E-02  (-0.2565004E-02)
 number of electron      48.0000000 magnetization 
 augmentation part       -0.0647030 magnetization 

 Free energy of the ion-electron system (eV)
  ---------------------------------------------------
  alpha Z        PSCENC =         0.60063671
  Ewald energy   TEWEN  =      4164.01188206
  -Hartree energ DENC   =     -5423.48442206
  -exchange      EXHF   =         0.00000000
  -V(xc)+E(xc)   XCENC  =        97.60683854
  PAW double counting   =     21817.84782966   -21763.27806351
  entropy T*S    EENTRO =        -0.00000000
  eigenvalues    EBANDS =      -581.31280871
  atomic energy  EATOM  =      1570.67314123
  ---------------------------------------------------
  free energy    TOTEN  =      -117.33496608 eV

  energy without entropy =     -117.33496608  energy(sigma->0) =     -117.33496608


--------------------------------------------------------------------------------------------------------




--------------------------------------- Iteration      1(  13)  ---------------------------------------


    POTLOK:  cpu time      0.4898: real time      0.4901
    SETDIJ:  cpu time      0.0022: real time      0.0022
    TRIAL :  cpu time      0.2816: real time      0.2817
    CORREC:  cpu time      0.6148: real time      0.6150
    CHARGE:  cpu time      0.0723: real time      0.0723
    --------------------------------------------
      LOOP:  cpu time      1.4743: real time      1.4922

 eigenvalue-minimisations  :     0
 total energy-change (2. order) :-0.2565440E-02  (-0.7627243E-03)
 number of electron      48.0000000 magnetization 
 augmentation part       -0.0646815 magnetization 

 Free energy of the ion-electron system (eV)
  ---------------------------------------------------
  alpha Z        PSCENC =         0.60063671
  Ewald energy   TEWEN  =      4164.01188206
  -Hartree energ DENC   =     -5423.38319443
  -exchange      EXHF   =         0.00000000
  -V(xc)+E(xc)   XCENC  =        97.59367843
  PAW double counting   =     21852.60026248   -21798.03202109
  entropy T*S    EENTRO =        -0.00000000
  eigenvalues    EBANDS =      -581.40191692
  atomic energy  EATOM  =      1570.67314123
  ---------------------------------------------------
  free energy    TOTEN  =      -117.33753152 eV

  energy without entropy =     -117.33753152  energy(sigma->0) =     -117.33753152


--------------------------------------------------------------------------------------------------------




--------------------------------------- Iteration      1(  14)  ---------------------------------------


    POTLOK:  cpu time      0.4827: real time      0.4827
    SETDIJ:  cpu time      0.0021: real time      0.0021
    TRIAL :  cpu time      0.2818: real time      0.2818
    CORREC:  cpu time      0.6124: real time      0.6130
    CHARGE:  cpu time      0.0727: real time      0.0727
    --------------------------------------------
      LOOP:  cpu time      1.4770: real time      1.4830

 eigenvalue-minimisations  :     0
 total energy-change (2. order) :-0.7629217E-03  (-0.2842746E-03)
 number of electron      48.0000000 magnetization 
 augmentation part       -0.0645831 magnetization 

 Free energy of the ion-electron system (eV)
  ---------------------------------------------------
  alpha Z        PSCENC =         0.60063671
  Ewald energy   TEWEN  =      4164.01188206
  -Hartree energ DENC   =     -5423.65915940
  -exchange      EXHF   =         0.00000000
  -V(xc)+E(xc)   XCENC  =        97.59937247
  PAW double counting   =     21885.24590570   -21830.67830894
  entropy T*S    EENTRO =        -0.00000000
  eigenvalues    EBANDS =      -581.13176428
  atomic energy  EATOM  =      1570.67314123
  ---------------------------------------------------
  free energy    TOTEN  =      -117.33829445 eV

  energy without entropy =     -117.33829445  energy(sigma->0) =     -117.33829445


--------------------------------------------------------------------------------------------------------




--------------------------------------- Iteration      1(  15)  ---------------------------------------


    POTLOK:  cpu time      0.4787: real time      0.4791
    SETDIJ:  cpu time      0.0021: real time      0.0021
    TRIAL :  cpu time      0.2811: real time      0.2811
    CORREC:  cpu time      0.6104: real time      0.6107
    CHARGE:  cpu time      0.0726: real time      0.0726
    --------------------------------------------
      LOOP:  cpu time      1.4756: real time      1.4766

 eigenvalue-minimisations  :     0
 total energy-change (2. order) :-0.2853510E-03  (-0.1115645E-03)
 number of electron      48.0000000 magnetization 
 augmentation part       -0.0644783 magnetization 

 Free energy of the ion-electron system (eV)
  ---------------------------------------------------
  alpha Z        PSCENC =         0.60063671
  Ewald energy   TEWEN  =      4164.01188206
  -Hartree energ DENC   =     -5423.78218108
  -exchange      EXHF   =         0.00000000
  -V(xc)+E(xc)   XCENC  =        97.60163526
  PAW double counting   =     21898.71100476   -21844.14323892
  entropy T*S    EENTRO =        -0.00000000
  eigenvalues    EBANDS =      -581.01145983
  atomic energy  EATOM  =      1570.67314123
  ---------------------------------------------------
  free energy    TOTEN  =      -117.33857980 eV

  energy without entropy =     -117.33857980  energy(sigma->0) =     -117.33857980


--------------------------------------------------------------------------------------------------------




--------------------------------------- Iteration      1(  16)  ---------------------------------------


    POTLOK:  cpu time      0.4792: real time      0.4792
    SETDIJ:  cpu time      0.0021: real time      0.0021
    TRIAL :  cpu time      0.2821: real time      0.2821
    CORREC:  cpu time      0.6088: real time      0.6091
    CHARGE:  cpu time      0.0725: real time      0.0725
    --------------------------------------------
      LOOP:  cpu time      1.4620: real time      1.4768

 eigenvalue-minimisations  :     0
 total energy-change (2. order) :-0.1125626E-03  (-0.4190715E-04)
 number of electron      48.0000000 magnetization 
 augmentation part       -0.0644147 magnetization 

 Free energy of the ion-electron system (eV)
  ---------------------------------------------------
  alpha Z        PSCENC =         0.60063671
  Ewald energy   TEWEN  =      4164.01188206
  -Hartree energ DENC   =     -5423.84142946
  -exchange      EXHF   =         0.00000000
  -V(xc)+E(xc)   XCENC  =        97.60300598
  PAW double counting   =     21898.19601891   -21843.62799066
  entropy T*S    EENTRO =        -0.00000000
  eigenvalues    EBANDS =      -580.95395713
  atomic energy  EATOM  =      1570.67314123
  ---------------------------------------------------
  free energy    TOTEN  =      -117.33869236 eV

  energy without entropy =     -117.33869236  energy(sigma->0) =     -117.33869236


--------------------------------------------------------------------------------------------------------




--------------------------------------- Iteration      1(  17)  ---------------------------------------


    POTLOK:  cpu time      0.4829: real time      0.4833
    SETDIJ:  cpu time      0.0021: real time      0.0021
    TRIAL :  cpu time      0.2802: real time      0.2802
    CORREC:  cpu time      0.6101: real time      0.6102
    CHARGE:  cpu time      0.0717: real time      0.0722
    --------------------------------------------
      LOOP:  cpu time      1.4606: real time      1.4787

 eigenvalue-minimisations  :     0
 total energy-change (2. order) :-0.4230241E-04  (-0.1552946E-04)
 number of electron      48.0000000 magnetization 
 augmentation part       -0.0644023 magnetization 

 Free energy of the ion-electron system (eV)
  ---------------------------------------------------
  alpha Z        PSCENC =         0.60063671
  Ewald energy   TEWEN  =      4164.01188206
  -Hartree energ DENC   =     -5423.89894716
  -exchange      EXHF   =         0.00000000
  -V(xc)+E(xc)   XCENC  =        97.60528832
  PAW double counting   =     21895.42579898   -21840.85768392
  entropy T*S    EENTRO =        -0.00000000
  eigenvalues    EBANDS =      -580.89885089
  atomic energy  EATOM  =      1570.67314123
  ---------------------------------------------------
  free energy    TOTEN  =      -117.33873466 eV

  energy without entropy =     -117.33873466  energy(sigma->0) =     -117.33873466


--------------------------------------------------------------------------------------------------------




--------------------------------------- Iteration      1(  18)  ---------------------------------------


    POTLOK:  cpu time      0.4757: real time      0.4758
    SETDIJ:  cpu time      0.0021: real time      0.0021
    TRIAL :  cpu time      0.2818: real time      0.2818
    CORREC:  cpu time      0.6078: real time      0.6083
    CHARGE:  cpu time      0.0728: real time      0.0728
    --------------------------------------------
      LOOP:  cpu time      1.4532: real time      1.4812

 eigenvalue-minimisations  :     0
 total energy-change (2. order) :-0.1564081E-04  (-0.6301698E-05)
 number of electron      48.0000000 magnetization 
 augmentation part       -0.0644115 magnetization 

 Free energy of the ion-electron system (eV)
  ---------------------------------------------------
  alpha Z        PSCENC =         0.60063671
  Ewald energy   TEWEN  =      4164.01188206
  -Hartree energ DENC   =     -5423.88583210
  -exchange      EXHF   =         0.00000000
  -V(xc)+E(xc)   XCENC  =        97.60528272
  PAW double counting   =     21894.66781717   -21840.09958883
  entropy T*S    EENTRO =        -0.00000000
  eigenvalues    EBANDS =      -580.91208927
  atomic energy  EATOM  =      1570.67314123
  ---------------------------------------------------
  free energy    TOTEN  =      -117.33875030 eV

  energy without entropy =     -117.33875030  energy(sigma->0) =     -117.33875030


--------------------------------------------------------------------------------------------------------




--------------------------------------- Iteration      1(  19)  ---------------------------------------


    POTLOK:  cpu time      0.4761: real time      0.4764
    SETDIJ:  cpu time      0.0022: real time      0.0022
    TRIAL :  cpu time      0.2811: real time      0.2811
    CORREC:  cpu time      0.6094: real time      0.6095
    CHARGE:  cpu time      0.0747: real time      0.0752
    --------------------------------------------
      LOOP:  cpu time      1.4571: real time      1.4766

 eigenvalue-minimisations  :     0
 total energy-change (2. order) :-0.6207723E-05  (-0.2619991E-05)
 number of electron      48.0000000 magnetization 
 augmentation part       -0.0644260 magnetization 

 Free energy of the ion-electron system (eV)
  ---------------------------------------------------
  alpha Z        PSCENC =         0.60063671
  Ewald energy   TEWEN  =      4164.01188206
  -Hartree energ DENC   =     -5423.88862914
  -exchange      EXHF   =         0.00000000
  -V(xc)+E(xc)   XCENC  =        97.60553755
  PAW double counting   =     21894.50965492   -21839.94141132
  entropy T*S    EENTRO =        -0.00000000
  eigenvalues    EBANDS =      -580.90956852
  atomic energy  EATOM  =      1570.67314123
  ---------------------------------------------------
  free energy    TOTEN  =      -117.33875651 eV

  energy without entropy =     -117.33875651  energy(sigma->0) =     -117.33875651


--------------------------------------------------------------------------------------------------------




--------------------------------------- Iteration      1(  20)  ---------------------------------------


    POTLOK:  cpu time      0.4759: real time      0.4759
    SETDIJ:  cpu time      0.0022: real time      0.0022
    TRIAL :  cpu time      0.2821: real time      0.2821
    CORREC:  cpu time      0.6100: real time      0.6104
    CHARGE:  cpu time      0.0731: real time      0.0731
    --------------------------------------------
      LOOP:  cpu time      1.4558: real time      1.4740

 eigenvalue-minimisations  :     0
 total energy-change (2. order) :-0.2509030E-05  (-0.1002201E-05)
 number of electron      48.0000000 magnetization 
 augmentation part       -0.0644339 magnetization 

 Free energy of the ion-electron system (eV)
  ---------------------------------------------------
  alpha Z        PSCENC =         0.60063671
  Ewald energy   TEWEN  =      4164.01188206
  -Hartree energ DENC   =     -5423.87858146
  -exchange      EXHF   =         0.00000000
  -V(xc)+E(xc)   XCENC  =        97.60526662
  PAW double counting   =     21893.69117445   -21839.12293829
  entropy T*S    EENTRO =        -0.00000000
  eigenvalues    EBANDS =      -580.91934034
  atomic energy  EATOM  =      1570.67314123
  ---------------------------------------------------
  free energy    TOTEN  =      -117.33875902 eV

  energy without entropy =     -117.33875902  energy(sigma->0) =     -117.33875902


--------------------------------------------------------------------------------------------------------




--------------------------------------- Iteration      1(  21)  ---------------------------------------


    POTLOK:  cpu time      0.4773: real time      0.4773
    SETDIJ:  cpu time      0.0024: real time      0.0026
    TRIAL :  cpu time      0.2820: real time      0.2820
    CORREC:  cpu time      0.6084: real time      0.6084
    CHARGE:  cpu time      0.0727: real time      0.0727
    --------------------------------------------
      LOOP:  cpu time      1.4730: real time      1.4740

 eigenvalue-minimisations  :     0
 total energy-change (2. order) :-0.9447613E-06  (-0.3322157E-06)
 number of electron      48.0000000 magnetization 
 augmentation part       -0.0644360 magnetization 

 Free energy of the ion-electron system (eV)
  ---------------------------------------------------
  alpha Z        PSCENC =         0.60063671
  Ewald energy   TEWEN  =      4164.01188206
  -Hartree energ DENC   =     -5423.87474940
  -exchange      EXHF   =         0.00000000
  -V(xc)+E(xc)   XCENC  =        97.60507317
  PAW double counting   =     21892.65726606   -21838.08905673
  entropy T*S    EENTRO =        -0.00000000
  eigenvalues    EBANDS =      -580.92295306
  atomic energy  EATOM  =      1570.67314123
  ---------------------------------------------------
  free energy    TOTEN  =      -117.33875996 eV

  energy without entropy =     -117.33875996  energy(sigma->0) =     -117.33875996


--------------------------------------------------------------------------------------------------------




--------------------------------------- Iteration      1(  22)  ---------------------------------------


    POTLOK:  cpu time      0.5060: real time      0.5060
    SETDIJ:  cpu time      0.0018: real time      0.0018
    TRIAL :  cpu time      0.2824: real time      0.2824
    CORREC:  cpu time      0.6112: real time      0.6117
    CHARGE:  cpu time      0.0727: real time      0.0727
    --------------------------------------------
      LOOP:  cpu time      1.4980: real time      1.5157

 eigenvalue-minimisations  :     0
 total energy-change (2. order) :-0.3197383E-06  (-0.1147112E-06)
 number of electron      48.0000000 magnetization 
 augmentation part       -0.0644358 magnetization 

 Free energy of the ion-electron system (eV)
  ---------------------------------------------------
  alpha Z        PSCENC =         0.60063671
  Ewald energy   TEWEN  =      4164.01188206
  -Hartree energ DENC   =     -5423.87324820
  -exchange      EXHF   =         0.00000000
  -V(xc)+E(xc)   XCENC  =        97.60495516
  PAW double counting   =     21892.20612052   -21837.63792845
  entropy T*S    EENTRO =        -0.00000000
  eigenvalues    EBANDS =      -580.92431931
  atomic energy  EATOM  =      1570.67314123
  ---------------------------------------------------
  free energy    TOTEN  =      -117.33876028 eV

  energy without entropy =     -117.33876028  energy(sigma->0) =     -117.33876028


--------------------------------------------------------------------------------------------------------




--------------------------------------- Iteration      1(  23)  ---------------------------------------


    POTLOK:  cpu time      0.4767: real time      0.4768
    SETDIJ:  cpu time      0.0019: real time      0.0019
    TRIAL :  cpu time      0.2798: real time      0.2802
    CORREC:  cpu time      0.6100: real time      0.6101
    CHARGE:  cpu time      0.0726: real time      0.0726
    --------------------------------------------
      LOOP:  cpu time      1.4570: real time      1.4745

 eigenvalue-minimisations  :     0
 total energy-change (2. order) :-0.1129774E-06  (-0.4330915E-07)
 number of electron      48.0000000 magnetization 
 augmentation part       -0.0644353 magnetization 

 Free energy of the ion-electron system (eV)
  ---------------------------------------------------
  alpha Z        PSCENC =         0.60063671
  Ewald energy   TEWEN  =      4164.01188206
  -Hartree energ DENC   =     -5423.87315467
  -exchange      EXHF   =         0.00000000
  -V(xc)+E(xc)   XCENC  =        97.60491014
  PAW double counting   =     21892.28263453   -21837.71444744
  entropy T*S    EENTRO =        -0.00000000
  eigenvalues    EBANDS =      -580.92436296
  atomic energy  EATOM  =      1570.67314123
  ---------------------------------------------------
  free energy    TOTEN  =      -117.33876040 eV

  energy without entropy =     -117.33876040  energy(sigma->0) =     -117.33876040


--------------------------------------------------------------------------------------------------------




--------------------------------------- Iteration      1(  24)  ---------------------------------------


    POTLOK:  cpu time      0.4816: real time      0.4818
    SETDIJ:  cpu time      0.0031: real time      0.0031
    TRIAL :  cpu time      0.2811: real time      0.2811
    CORREC:  cpu time      0.6067: real time      0.6069
    EDDIAG:  cpu time      0.1340: real time      0.1347
    CHARGE:  cpu time      0.0727: real time      0.0727
    --------------------------------------------
      LOOP:  cpu time      1.5936: real time      1.6114

 eigenvalue-minimisations  :     0
 total energy-change (2. order) :-0.4319008E-07  (-0.1873040E-07)
 number of electron      48.0000000 magnetization 
 augmentation part       -0.0644349 magnetization 

 Free energy of the ion-electron system (eV)
  ---------------------------------------------------
  alpha Z        PSCENC =         0.60063671
  Ewald energy   TEWEN  =      4164.01188206
  -Hartree energ DENC   =     -5423.87353544
  -exchange      EXHF   =         0.00000000
  -V(xc)+E(xc)   XCENC  =        97.60491235
  PAW double counting   =     21892.56286609   -21837.99467788
  entropy T*S    EENTRO =        -0.00000000
  eigenvalues    EBANDS =      -580.92398557
  atomic energy  EATOM  =      1570.67314123
  ---------------------------------------------------
  free energy    TOTEN  =      -117.33876044 eV

  energy without entropy =     -117.33876044  energy(sigma->0) =     -117.33876044


--------------------------------------------------------------------------------------------------------


  average scaling for gradient   0.9493


 average (electrostatic) potential at core
  the test charge radii are     0.5770  0.4325
  (the norm of the test charge is              1.0000)
       1 -86.2657       2 -86.2716       3 -86.4977       4 -86.4975       5 -86.2713
       6 -86.2655       7 -86.2717       8 -86.2717       9 -86.2657      10 -86.2655
      11 -45.1109      12 -45.0866      13 -45.1105      14 -45.1108      15 -45.0873
      16 -45.1108      17 -45.0866      18 -45.0860



 E-fermi :  -5.2757     XC(G=0):  -0.2077     alpha+bet : -0.1017

 Fermi energy:        -5.2756520945

 k-point     1 :       0.0000    0.0000    0.0000
  band No.  band energies     occupation 
      1     -21.6923      2.00000
      2     -20.3305      2.00000
      3     -19.0937      2.00000
      4     -18.2634      2.00000
      5     -17.6865      2.00000
      6     -15.3505      2.00000
      7     -14.9723      2.00000
      8     -14.5909      2.00000
      9     -12.5582      2.00000
     10     -12.3758      2.00000
     11     -12.0036      2.00000
     12     -10.7839      2.00000
     13     -10.6397      2.00000
     14     -10.0140      2.00000
     15      -9.9868      2.00000
     16      -9.5654      2.00000
     17      -9.5615      2.00000
     18      -8.7851      2.00000
     19      -8.0150      2.00000
     20      -7.9804      2.00000
     21      -7.7918      2.00000
     22      -7.0067      2.00000
     23      -6.0711      2.00000
     24      -5.3427      2.00000
     25      -1.9318      0.00000
     26      -1.1835      0.00000
     27      -0.4843      0.00000
     28      -0.4493      0.00000
     29      -0.2172      0.00000
     30      -0.1620      0.00000
     31       0.1216      0.00000
     32       0.2058      0.00000
     33       0.2758      0.00000
     34       0.2799      0.00000
     35       0.3724      0.00000
     36       0.4187      0.00000


--------------------------------------------------------------------------------------------------------


 soft charge-density along one line, spin component           1
         0         1         2         3         4         5         6         7         8         9
 total charge-density along one line

 pseudopotential strength for first ion, spin component:           1
 12.741  21.442   0.000  -0.000  -0.001   0.001  -0.000  -0.002
 21.442  36.083   0.001  -0.000  -0.002   0.001  -0.000  -0.003
  0.000   0.001  -3.107   0.000  -0.000  -5.569   0.000  -0.000
 -0.000  -0.000   0.000  -3.108  -0.000   0.000  -5.571  -0.000
 -0.001  -0.002  -0.000  -0.000  -3.107  -0.000  -0.000  -5.569
  0.001   0.001  -5.569   0.000  -0.000  -9.961   0.000  -0.000
 -0.000  -0.000   0.000  -5.571  -0.000   0.000  -9.964  -0.000
 -0.002  -0.003  -0.000  -0.000  -5.569  -0.000  -0.000  -9.961
 total augmentation occupancy for first ion, spin component:           1
  8.255  -2.910   0.558   0.000   0.574  -0.258  -0.000  -0.254
 -2.910   1.051  -0.273  -0.000  -0.263   0.124   0.000   0.114
  0.558  -0.273   7.191   0.000  -0.306  -2.437  -0.000   0.135
  0.000  -0.000   0.000   3.335  -0.001  -0.000  -0.914   0.000
  0.574  -0.263  -0.306  -0.001   7.902   0.135   0.000  -2.729
 -0.258   0.124  -2.437  -0.000   0.135   0.834   0.000  -0.058
 -0.000   0.000  -0.000  -0.914   0.000   0.000   0.254  -0.000
 -0.254   0.114   0.135   0.000  -2.729  -0.058  -0.000   0.953


------------------------ aborting loop because EDIFF is reached ----------------------------------------


    FORLOC:  cpu time      0.0272: real time      0.0272
    FORNL :  cpu time      0.0364: real time      0.0367
    FORCOR:  cpu time      0.4343: real time      0.4346
    OFIELD:  cpu time      0.0031: real time      0.0031

 VOLUME and BASIS-vectors are now :
 -----------------------------------------------------------------------------
  energy-cutoff  :     1000.00
  volume of cell :    12500.00
      direct lattice vectors                 reciprocal lattice vectors
    25.000000000  0.000000000  0.000000000     0.040000000  0.000000000  0.000000000
     0.000000000 25.000000000  0.000000000     0.000000000  0.040000000  0.000000000
     0.000000000  0.000000000 20.000000000     0.000000000  0.000000000  0.050000000

  length of vectors
    25.000000000 25.000000000 20.000000000     0.040000000  0.040000000  0.050000000


 FORCES acting on ions:
    Electron-Ion                     Ewald-Force                    Non-Local-Force
 -----------------------------------------------------------------------------------------------
   0.129E+03 0.179E+03 0.221E-01   -.129E+03 -.179E+03 -.219E-01   -.983E+00 -.811E-01 0.809E-04
   -.406E+02 0.202E+03 0.396E-01   0.398E+02 -.202E+03 -.393E-01   0.103E+01 0.761E-01 -.666E-03
   -.441E+02 0.753E+02 0.297E-01   0.443E+02 -.757E+02 -.294E-01   -.228E+00 0.391E+00 -.729E-03
   0.441E+02 -.753E+02 0.421E-02   -.443E+02 0.757E+02 -.411E-02   0.237E+00 -.394E+00 0.637E-03
   0.156E+03 -.134E+03 -.717E-01   -.157E+03 0.133E+03 0.723E-01   0.566E+00 0.857E+00 -.193E-02
   0.220E+03 0.253E+02 -.126E-01   -.219E+03 -.245E+02 0.125E-01   -.549E+00 -.819E+00 0.107E-02
   -.156E+03 0.134E+03 0.632E-01   0.157E+03 -.134E+03 -.627E-01   -.568E+00 -.853E+00 0.416E-04
   0.406E+02 -.202E+03 -.357E-01   -.397E+02 0.202E+03 0.357E-01   -.102E+01 -.744E-01 0.319E-03
   -.129E+03 -.179E+03 -.331E-01   0.129E+03 0.179E+03 0.334E-01   0.980E+00 0.823E-01 -.122E-02
   -.220E+03 -.252E+02 0.326E-01   0.219E+03 0.245E+02 -.325E-01   0.556E+00 0.816E+00 0.189E-03
   -.567E+02 0.683E+02 0.120E-01   0.597E+02 -.733E+02 -.128E-01   -.292E+01 0.494E+01 0.450E-03
   0.460E+02 0.746E+02 -.142E-02   -.489E+02 -.797E+02 0.147E-02   0.288E+01 0.500E+01 -.328E-03
   -.318E+02 0.829E+02 0.175E-01   0.347E+02 -.879E+02 -.186E-01   -.289E+01 0.496E+01 0.117E-02
   0.567E+02 -.683E+02 -.177E-01   -.597E+02 0.733E+02 0.189E-01   0.292E+01 -.495E+01 -.872E-03
   0.875E+02 0.361E+01 -.206E-01   -.934E+02 -.367E+01 0.221E-01   0.577E+01 0.615E-01 -.172E-02
   0.318E+02 -.829E+02 -.229E-01   -.347E+02 0.879E+02 0.244E-01   0.288E+01 -.496E+01 -.166E-02
   -.460E+02 -.746E+02 -.549E-02   0.489E+02 0.797E+02 0.599E-02   -.288E+01 -.500E+01 -.197E-03
   -.875E+02 -.361E+01 0.519E-02   0.934E+02 0.368E+01 -.554E-02   -.577E+01 -.625E-01 0.178E-03
 -----------------------------------------------------------------------------------------------
   -.145E-01 0.238E-02 0.517E-02   0.114E-12 -.311E-13 0.252E-16   0.145E-01 -.239E-02 -.518E-02


 POSITION                                       TOTAL-FORCE (eV/Angst)
 -----------------------------------------------------------------------------------
     10.75943     10.66175      9.99986        -0.120461     -0.138743      0.000382
     12.13611     10.66289      9.99967         0.095137     -0.141094     -0.000270
     12.86236     11.88117      9.99974         0.017422     -0.031197     -0.000315
     12.13744     13.11907     10.00005        -0.010454      0.027719      0.000755
     10.71974     13.08188     10.00038        -0.080330      0.151740     -0.001292
     10.04504     11.88190     10.00018        -0.177426     -0.038934      0.000902
     14.28022     11.91822      9.99954         0.076851     -0.147571      0.000528
     12.86373     14.33727     10.00022        -0.089008      0.143769      0.000263
     14.24050     14.33842     10.00010         0.117160      0.138615     -0.000857
     14.95482     13.11832      9.99971         0.182602      0.035338      0.000389
     14.82925     10.97742      9.99944         0.056938     -0.087548     -0.000352
     10.21474      9.71991      9.99991        -0.058088     -0.100744     -0.000285
     12.68835      9.72395      9.99945         0.045839     -0.093655      0.000017
     10.17105     14.02285     10.00056        -0.059394      0.087457      0.000359
      8.95724     11.86783     10.00049        -0.120065     -0.001395     -0.000282
     12.31181     15.27634     10.00053        -0.048082      0.094443     -0.000071
     14.78552     15.28009     10.00015         0.055843      0.101190      0.000303
     16.04276     13.13255      9.99967         0.115515      0.000610     -0.000174
 -----------------------------------------------------------------------------------
    total drift:                                0.000015     -0.000006     -0.000013


--------------------------------------------------------------------------------------------------------



  FREE ENERGIE OF THE ION-ELECTRON SYSTEM (eV)
  ---------------------------------------------------
  free  energy   TOTEN  =      -117.33876044 eV

  energy  without entropy=     -117.33876044  energy(sigma->0) =     -117.33876044



--------------------------------------------------------------------------------------------------------


    POTLOK:  cpu time      0.4859: real time      0.4862


--------------------------------------------------------------------------------------------------------


 stress matrix after NEB project (eV)
      0.00000      0.00000      0.00000
      0.00000      0.00000      0.00000
      0.00000      0.00000      0.00000
  FORCES: max atom, RMS     0.185990    0.139441
  FORCE total and by dimension    0.591600    0.182602
  Stress total and by dimension    0.000000    0.000000
     LOOP+:  cpu time     33.2054: real time     33.5250
    4ORBIT:  cpu time      0.0000: real time      0.0000

 total amount of memory used by VASP MPI-rank0    82386. kBytes
=======================================================================

   base      :      30000. kBytes
   nonl-proj :       1462. kBytes
   fftplans  :      17101. kBytes
   grid      :      32304. kBytes
   one-center:          1. kBytes
   wavefun   :       1518. kBytes

  
  
 General timing and accounting informations for this job:
 ========================================================
  
                  Total CPU time used (sec):       87.914
                            User time (sec):       83.509
                          System time (sec):        4.405
                         Elapsed time (sec):      101.176
  
                   Maximum memory used (kb):      310224.
                   Average memory used (kb):          N/A
  
                          Minor page faults:       153416
                          Major page faults:          329
                 Voluntary context switches:        11403
