 vasp.6.4.1 05Apr23 (build Jun  6 2023 14:46:38) gamma-only                      
 executed on        HPECrayEX_GCC date 2024.08.21  22:12:32
 running  512 mpi-ranks, with    1 threads/rank, on    4 nodes
 distrk:  each k-point on  256 cores,    2 groups
 distr:  one band on NCORE=  32 cores,    8 groups


--------------------------------------------------------------------------------------------------------


 INCAR:
   ALGO = Conjugate
   KPAR = 2
   NCORE = 32
   ISMEAR = 0
   SIGMA = 0.01
   PREC = Accurate
   EDIFF = 1E-7
   ENCUT = 1000
   ISIF = 0
   GGA = BO
   PARAM1 = 0.1833333333
   PARAM2 = 0.2200000000
   LUSE_VDW = .TRUE.
   AGGAC = 0.0000
   LASPH = .TRUE.
   SYMPREC = 1E-7
   LWAVE = .FALSE.
   LCHARG = .FALSE.

 POTCAR:    PAW_PBE C_h 06Feb2004                 
 POTCAR:    PAW_PBE H_h 06Feb2004                 
 -----------------------------------------------------------------------------
|                                                                             |
|               ----> ADVICE to this user running VASP <----                  |
|                                                                             |
|     You have switched on vdW-DFT.                                           |
|     This routine was written and supplied by Jiri Klimes. We recommend      |
|     that you carefully read and cite the following publications:            |
|       J. Klimes, D.R. Bowler, A. Michelides                                 |
|          J. Phys.: Cond Matt. 22 022201 (2010)                              |
|       J. Klimes, D.R. Bowler, A. Michelides                                 |
|          Phys. Rev. B. 83, 195131 (2011)                                    |
|     and references therein.                                                 |
|                                                                             |
 -----------------------------------------------------------------------------

 POTCAR:    PAW_PBE C_h 06Feb2004                 
   VRHFIN =C: s2p2                                                                                  
   LEXCH  = PE                                                                                      
   EATOM  =   147.1560 eV,   10.8157 Ry                                                             
                                                                                                    
   TITEL  = PAW_PBE C_h 06Feb2004                                                                   
   LULTRA =        F    use ultrasoft PP ?                                                          
   IUNSCR =        1    unscreen: 0-lin 1-nonlin 2-no                                               
   RPACOR =    0.800    partial core radius                                                         
   POMASS =   12.011; ZVAL   =    4.000    mass and valenz                                          
   RCORE  =    1.100    outmost cutoff radius                                                       
   RWIGS  =    1.630; RWIGS  =    0.863    wigner-seitz radius (au A)                               
   ENMAX  =  700.000; ENMIN  =  500.000 eV                                                          
   ICORE  =        2    local potential                                                             
   LCOR   =        T    correct aug charges                                                         
   LPAW   =        T    paw PP                                                                      
   EAUG   =  946.768                                                                                
   DEXC   =    0.000                                                                                
   RMAX   =    1.128    core radius for proj-oper                                                   
   RAUG   =    1.300    factor for augmentation sphere                                              
   RDEP   =    1.162    radius for radial grids                                                     
   RDEPT  =    1.088    core radius for aug-charge                                                  
                                                                                                    
   Atomic configuration                                                                             
    4 entries                                                                                       
     n  l   j            E        occ.                                                              
     1  0  0.50      -273.3789   2.0000                                                             
     2  0  0.50       -13.7508   2.0000                                                             
     2  1  0.50        -5.2854   2.0000                                                             
     3  2  1.50        -5.4423   0.0000                                                             
   Description                                                                                      
     l       E           TYP  RCUT    TYP  RCUT                                                     
     0    -13.7508458     23  1.100                                                                 
     0     -8.2022199     23  1.100                                                                 
     1     -5.2854383     23  1.100                                                                 
     1      1.1560700     23  1.100                                                                 
     2     -5.4423304      7  1.100                                                                 
  local pseudopotential read in
  partial core-charges read in
  partial kinetic energy density read in
  atomic valenz-charges read in
  non local Contribution for L=           0  read in
    real space projection operators read in
  non local Contribution for L=           0  read in
    real space projection operators read in
  non local Contribution for L=           1  read in
    real space projection operators read in
  non local Contribution for L=           1  read in
    real space projection operators read in
    PAW grid and wavefunctions read in

   number of l-projection  operators is LMAX  =           4
   number of lm-projection operators is LMMAX =           8

 POTCAR:    PAW_PBE H_h 06Feb2004                 
   VRHFIN =H: ultrasoft test                                                                        
   LEXCH  = PE                                                                                      
   EATOM  =    12.4884 eV,    0.9179 Ry                                                             
                                                                                                    
   TITEL  = PAW_PBE H_h 06Feb2004                                                                   
   LULTRA =        F    use ultrasoft PP ?                                                          
   IUNSCR =        0    unscreen: 0-lin 1-nonlin 2-no                                               
   RPACOR =    0.000    partial core radius                                                         
   POMASS =    1.000; ZVAL   =    1.000    mass and valenz                                          
   RCORE  =    0.800    outmost cutoff radius                                                       
   RWIGS  =    0.700; RWIGS  =    0.370    wigner-seitz radius (au A)                               
   ENMAX  =  700.000; ENMIN  =  350.000 eV                                                          
   RCLOC  =    0.701    cutoff for local pot                                                        
   LCOR   =        T    correct aug charges                                                         
   LPAW   =        T    paw PP                                                                      
   EAUG   = 1000.000                                                                                
   RMAX   =    0.819    core radius for proj-oper                                                   
   RAUG   =    1.000    factor for augmentation sphere                                              
   RDEP   =    0.817    radius for radial grids                                                     
   RDEPT  =    0.817    core radius for aug-charge                                                  
                                                                                                    
   Atomic configuration                                                                             
    2 entries                                                                                       
     n  l   j            E        occ.                                                              
     1  0  0.50        -6.4927   1.0000                                                             
     2  1  0.50        -3.4015   0.0000                                                             
   Description                                                                                      
     l       E           TYP  RCUT    TYP  RCUT                                                     
     0     -6.4927493     23  0.800                                                                 
     0      6.8029130     23  0.800                                                                 
     1     -6.8029130     23  0.800                                                                 
  local pseudopotential read in
  atomic valenz-charges read in
  non local Contribution for L=           0  read in
    real space projection operators read in
  non local Contribution for L=           0  read in
    real space projection operators read in
  non local Contribution for L=           1  read in
    real space projection operators read in
    PAW grid and wavefunctions read in

   number of l-projection  operators is LMAX  =           3
   number of lm-projection operators is LMMAX =           5

 -----------------------------------------------------------------------------
|                                                                             |
|               ----> ADVICE to this user running VASP <----                  |
|                                                                             |
|     You have a (more or less) 'large supercell' and for larger cells it     |
|     might be more efficient to use real-space projection operators.         |
|     Therefore, try LREAL= Auto in the INCAR file.                           |
|     Mind: For very accurate calculation, you might also keep the            |
|     reciprocal projection scheme (i.e. LREAL=.FALSE.).                      |
|                                                                             |
 -----------------------------------------------------------------------------

 -----------------------------------------------------------------------------
|                                                                             |
|               ----> ADVICE to this user running VASP <----                  |
|                                                                             |
|     You enforced a specific xc type in the INCAR file but a different       |
|     type was found in the POTCAR file.                                      |
|     I HOPE YOU KNOW WHAT YOU ARE DOING!                                     |
|                                                                             |
 -----------------------------------------------------------------------------

  PAW_PBE C_h 06Feb2004                 :
 energy of atom  1       EATOM= -147.1560
 kinetic energy error for atom=    0.0031 (will be added to EATOM!!)
  PAW_PBE H_h 06Feb2004                 :
 energy of atom  2       EATOM=  -12.4884
 kinetic energy error for atom=    0.0006 (will be added to EATOM!!)


 POSCAR:  C  H
  positions in cartesian coordinates
  No initial velocities read in
 exchange correlation table for  LEXCH =       42
   RHO(1)=    0.500       N(1)  =     2000
   RHO(2)=  100.500       N(2)  =     4000

 VTST: version 4.1, (05/19/21)

 CHAIN: initializing optimizer
 
 OPT: Using VASP Dynamics algorithm
 CHAIN: Read ICHAIN            0

 POSCAR:  C  H
  positions in cartesian coordinates
  No initial velocities read in



--------------------------------------------------------------------------------------------------------


 ion  position               nearest neighbor table
   1  0.430  0.426  0.500-  12 1.09   2 1.38   6 1.41
   2  0.485  0.427  0.500-  13 1.09   1 1.38   3 1.42
   3  0.514  0.475  0.500-   2 1.42   7 1.42   4 1.43
   4  0.485  0.525  0.500-   5 1.42   8 1.42   3 1.43
   5  0.429  0.523  0.500-  14 1.09   6 1.38   4 1.42
   6  0.402  0.475  0.500-  15 1.09   5 1.38   1 1.41
   7  0.571  0.477  0.500-  11 1.09  10 1.38   3 1.42
   8  0.515  0.573  0.500-  16 1.09   9 1.38   4 1.42
   9  0.570  0.574  0.500-  17 1.09   8 1.38  10 1.41
  10  0.598  0.525  0.500-  18 1.09   7 1.38   9 1.41
  11  0.593  0.439  0.500-   7 1.09
  12  0.409  0.389  0.500-   1 1.09
  13  0.508  0.389  0.500-   2 1.09
  14  0.407  0.561  0.500-   5 1.09
  15  0.358  0.475  0.500-   6 1.09
  16  0.492  0.611  0.500-   8 1.09
  17  0.591  0.611  0.500-   9 1.09
  18  0.642  0.525  0.500-  10 1.09

  LATTYP: Found a simple tetragonal cell.
 ALAT       =    25.0000000000
 C/A-ratio  =     0.8000000000
  
  Lattice vectors:
  
 A1 = (  25.0000000000,   0.0000000000,   0.0000000000)
 A2 = (   0.0000000000,  25.0000000000,   0.0000000000)
 A3 = (   0.0000000000,   0.0000000000,  20.0000000000)


Analysis of symmetry for initial positions (statically):
=====================================================================
 Subroutine PRICEL returns:
 Original cell was already a primitive cell.
 

 Routine SETGRP: Setting up the symmetry group for a 
 simple tetragonal supercell.


 Subroutine GETGRP returns: Found  1 space group operations
 (whereof  1 operations were pure point group operations)
 out of a pool of 16 trial point group operations.


The static configuration has the point symmetry C_1 .


Analysis of symmetry for dynamics (positions and initial velocities):
=====================================================================
 Subroutine PRICEL returns:
 Original cell was already a primitive cell.
 

 Routine SETGRP: Setting up the symmetry group for a 
 simple tetragonal supercell.


 Subroutine GETGRP returns: Found  1 space group operations
 (whereof  1 operations were pure point group operations)
 out of a pool of 16 trial point group operations.


The dynamic configuration has the point symmetry C_1 .


 Subroutine INISYM returns: Found  1 space group operations
 (whereof  1 operations are pure point group operations),
 and found     1 'primitive' translations


----------------------------------------------------------------------------------------

                                     Primitive cell                                     

  volume of cell :   12500.0000

  direct lattice vectors                    reciprocal lattice vectors
    25.000000000  0.000000000  0.000000000     0.040000000  0.000000000  0.000000000
     0.000000000 25.000000000  0.000000000     0.000000000  0.040000000  0.000000000
     0.000000000  0.000000000 20.000000000     0.000000000  0.000000000  0.050000000

  length of vectors
    25.000000000 25.000000000 20.000000000     0.040000000  0.040000000  0.050000000

  position of ions in fractional coordinates (direct lattice)
     0.430377200  0.426470000  0.499993000
     0.485444400  0.426515600  0.499983500
     0.514494400  0.475246800  0.499987000
     0.485497600  0.524762800  0.500002500
     0.428789600  0.523275200  0.500019000
     0.401801600  0.475276000  0.500009000
     0.571208800  0.476728800  0.499977000
     0.514549200  0.573490800  0.500011000
     0.569620000  0.573536800  0.500005000
     0.598192800  0.524732800  0.499985500
     0.593170000  0.439096800  0.499972000
     0.408589600  0.388796400  0.499995500
     0.507534000  0.388958000  0.499972500
     0.406842000  0.560914000  0.500028000
     0.358289600  0.474713200  0.500024500
     0.492472400  0.611053600  0.500026500
     0.591420800  0.611203600  0.500007500
     0.641710400  0.525302000  0.499983500

  ion indices of the primitive-cell ions
   primitive index   ion index
                 1           1
                 2           2
                 3           3
                 4           4
                 5           5
                 6           6
                 7           7
                 8           8
                 9           9
                10          10
                11          11
                12          12
                13          13
                14          14
                15          15
                16          16
                17          17
                18          18

----------------------------------------------------------------------------------------



 KPOINTS: auto                                    

Automatic generation of k-mesh.
 Grid dimensions read from file:
 generate k-points for:    1    1    1

 Generating k-lattice:

  Cartesian coordinates                     Fractional coordinates (reciprocal lattice)
     0.040000000  0.000000000  0.000000000     1.000000000  0.000000000  0.000000000
     0.000000000  0.040000000  0.000000000     0.000000000  1.000000000  0.000000000
     0.000000000  0.000000000  0.050000000     0.000000000  0.000000000  1.000000000

  Length of vectors
     0.040000000  0.040000000  0.050000000

  Shift w.r.t. Gamma in fractional coordinates (k-lattice)
     0.000000000  0.000000000  0.000000000

 
 Subroutine IBZKPT returns following result:
 ===========================================
 
 Found      1 irreducible k-points:
 
 Following reciprocal coordinates:
            Coordinates               Weight
  0.000000  0.000000  0.000000      1.000000
 
 Following cartesian coordinates:
            Coordinates               Weight
  0.000000  0.000000  0.000000      1.000000
 


--------------------------------------------------------------------------------------------------------




 Dimension of arrays:
   k-points           NKPTS =      1   k-points in BZ     NKDIM =      1   number of bands    NBANDS=     40
   number of dos      NEDOS =    301   number of ions     NIONS =     18
   non local maximal  LDIM  =      4   non local SUM 2l+1 LMDIM =      8
   total plane-waves  NPLWV = ******
   max r-space proj   IRMAX =      1   max aug-charges    IRDMAX=   8323
   dimension x,y,z NGX =   270 NGY =  270 NGZ =  210
   dimension x,y,z NGXF=   540 NGYF=  540 NGZF=  420
   support grid    NGXF=   540 NGYF=  540 NGZF=  420
   ions per type =              10   8
   NGX,Y,Z   is equivalent  to a cutoff of  17.95, 17.95, 17.46 a.u.
   NGXF,Y,Z  is equivalent  to a cutoff of  35.91, 35.91, 34.91 a.u.

 SYSTEM =  unknown system                          
 POSCAR =   C  H                                   

 Startparameter for this run:
   NWRITE =      2    write-flag & timer
   PREC   = accura    normal or accurate (medium, high low for compatibility)
   ISTART =      0    job   : 0-new  1-cont  2-samecut
   ICHARG =      2    charge: 1-file 2-atom 10-const
   ISPIN  =      1    spin polarized calculation?
   LNONCOLLINEAR =      F non collinear calculations
   LSORBIT =      F    spin-orbit coupling
   INIWAV =      1    electr: 0-lowe 1-rand  2-diag
   LASPH  =      T    aspherical Exc in radial PAW
 Electronic Relaxation 1
   ENCUT  = 1000.0 eV  73.50 Ry    8.57 a.u.  64.46 64.46 51.57*2*pi/ulx,y,z
   ENINI  = 1000.0     initial cutoff
   ENAUG  = 1000.0 eV  augmentation charge cutoff
   NELM   =     60;   NELMIN=  2; NELMDL= -5     # of ELM steps 
   EDIFF  = 0.1E-06   stopping-criterion for ELM
   LREAL  =      F    real-space projection
   NLSPLINE    = F    spline interpolate recip. space projectors
   LCOMPAT=      F    compatible to vasp.4.4
   GGA_COMPAT  = T    GGA compatible to vasp.4.4-vasp.4.6
   LMAXPAW     = -100 max onsite density
   LMAXMIX     =    2 max onsite mixed and CHGCAR
   VOSKOWN=      0    Vosko Wilk Nusair interpolation
   ROPT   =    0.00000   0.00000
 Ionic relaxation
   EDIFFG = 0.1E-05   stopping-criterion for IOM
   NSW    =      0    number of steps for IOM
   NBLOCK =      1;   KBLOCK =      1    inner block; outer block 
   IBRION =     -1    ionic relax: 0-MD 1-quasi-New 2-CG
   NFREE  =      0    steps in history (QN), initial steepest desc. (CG)
   ISIF   =      0    stress and relaxation
   IWAVPR =     10    prediction:  0-non 1-charg 2-wave 3-comb
   ISYM   =      2    0-nonsym 1-usesym 2-fastsym
   LCORR  =      T    Harris-Foulkes like correction to forces

   POTIM  = 0.5000    time-step for ionic-motion
   TEIN   =    0.0    initial temperature
   TEBEG  =    0.0;   TEEND  =   0.0 temperature during run
   SMASS  =  -3.00    Nose mass-parameter (am)
   estimated Nose-frequenzy (Omega)   =  0.10E-29 period in steps = 0.13E+47 mass=  -0.143E-25a.u.
   SCALEE = 1.0000    scale energy and forces
   NPACO  =    256;   APACO  = 10.0  distance and # of slots for P.C.
   PSTRESS=    0.0 pullay stress

  Mass of Ions in am
   POMASS =  12.01  1.00
  Ionic Valenz
   ZVAL   =   4.00  1.00
  Atomic Wigner-Seitz radii
   RWIGS  =  -1.00 -1.00
  virtual crystal weights 
   VCA    =   1.00  1.00
   NELECT =      48.0000    total number of electrons
   NUPDOWN=      -1.0000    fix difference up-down

 DOS related values:
   EMIN   =  10.00;   EMAX   =-10.00  energy-range for DOS
   EFERMI =   0.00;   METHOD = LEGACY      
   ISMEAR =     0;   SIGMA  =   0.01  broadening in eV -4-tet -1-fermi 0-gaus

 Electronic relaxation 2 (details)
   IALGO  =     58    algorithm
   LDIAG  =      T    sub-space diagonalisation (order eigenvalues)
   LSUBROT=      F    optimize rotation matrix (better conditioning)
   TURBO    =      0    0=normal 1=particle mesh
   IRESTART =      0    0=no restart 2=restart with 2 vectors
   NREBOOT  =      0    no. of reboots
   NMIN     =      0    reboot dimension
   EREF     =   0.00    reference energy to select bands
   IMIX   =      4    mixing-type and parameters
     AMIX     =   0.40;   BMIX     =  1.00
     AMIX_MAG =   1.60;   BMIX_MAG =  1.00
     AMIN     =   0.10
     WC   =   100.;   INIMIX=   1;  MIXPRE=   1;  MAXMIX= -45

 Intra band minimization:
   WEIMIN = 0.0000     energy-eigenvalue tresh-hold
   EBREAK =  0.63E-09  absolut break condition
   DEPER  =   0.30     relativ break condition  

   TIME   =   0.40     timestep for ELM

  volume/ion in A,a.u.               =     694.44      4686.34
  Fermi-wavevector in a.u.,A,eV,Ry     =   0.256361  0.484452  0.894188  0.065721
  Thomas-Fermi vector in A             =   1.079642

 Write flags
   LWAVE        =      F    write WAVECAR
   LDOWNSAMPLE  =      F    k-point downsampling of WAVECAR
   LCHARG       =      F    write CHGCAR
   LVTOT        =      F    write LOCPOT, total local potential
   LVHAR        =      F    write LOCPOT, Hartree potential only
   LELF         =      F    write electronic localiz. function (ELF)
   LORBIT       =      0    0 simple, 1 ext, 2 COOP (PROOUT), +10 PAW based schemes


 Dipole corrections
   LMONO  =      F    monopole corrections only (constant potential shift)
   LDIPOL =      F    correct potential (dipole corrections)
   IDIPOL =      0    1-x, 2-y, 3-z, 4-all directions 
   EPSILON=  1.0000000 bulk dielectric constant

 Exchange correlation treatment:
   GGA     =    BO    GGA type
   LEXCH   =    42    internal setting for exchange type
   LIBXC   =     F    Libxc                    
   VOSKOWN =     0    Vosko Wilk Nusair interpolation
   LHFCALC =     F    Hartree Fock is set to
   LHFONE  =     F    Hartree Fock one center treatment
   AEXX    =    0.0000 exact exchange contribution

 vdW DFT:
   LUSE_VDW   =     T    switch on vdW DFT
   IVDW_NL    =     1    kernel type
   LSPIN_VDW  =     F    use spin-polarized vdW DFT
   Zab_VDW    =-.8491    correlation parameter
   PARAM1     =0.1833
   PARAM2     =0.2200
   PARAM3     =0.0000
   -- rVV10 --
   BPARAM     = 6.3000
   CPARAM     = 0.0093

 Linear response parameters
   LEPSILON=     F    determine dielectric tensor
   LRPA    =     F    only Hartree local field effects (RPA)
   LNABLA  =     F    use nabla operator in PAW spheres
   LVEL    =     F    velocity operator in full k-point grid
   CSHIFT  =0.1000    complex shift for real part using Kramers Kronig
   OMEGAMAX=  -1.0    maximum frequency
   DEG_THRESHOLD= 0.2000000E-02 threshold for treating states as degnerate
   RTIME   =   -0.100 relaxation time in fs
  (WPLASMAI=    0.000 imaginary part of plasma frequency in eV, 0.658/RTIME)
   DFIELD  = 0.0000000 0.0000000 0.0000000 field for delta impulse in time

  Optional k-point grid parameters
   LKPOINTS_OPT  =     F    use optional k-point grid
   KPOINTS_OPT_MODE=     1    mode for optional k-point grid

 Orbital magnetization related:
   ORBITALMAG=     F  switch on orbital magnetization
   LCHIMAG   =     F  perturbation theory with respect to B field
   DQ        =  0.001000  dq finite difference perturbation B field
   LLRAUG    =     F  two centre corrections for induced B field
   LBONE     =     F  B-component reconstruction in AE one-centre
   LVGVCALC  =     T  calculate vGv susceptibility
   LVGVAPPL  =     F  apply vGv susceptibility instead of pGv for G=0

 Random number generation:
   RANDOM_GENERATOR = DEFAULT
   PCG_SEED         = not used


--------------------------------------------------------------------------------------------------------


 Static calculation
 charge density and potential will be updated during run
 non-spin polarized calculation
 Conjugate gradient for all bands (Freysoldt, et al. PRB 79, 241103 (2009))
 preconditioned conjugated gradient                                        
 perform sub-space diagonalisation
    before iterative eigenvector-optimisation
 modified Broyden-mixing scheme, WC =      100.0
 initial mixing is a Kerker type mixing with AMIX =  0.4000 and BMIX =      1.0000
 Hartree-type preconditioning will be used
 using additional bands           16
 reciprocal scheme for non local part
 use partial core corrections
 no Harris-corrections to forces 
 use gradient corrections 
 use of overlap-Matrix (Vanderbilt PP)
 Gauss-broadening in eV      SIGMA  =   0.01


--------------------------------------------------------------------------------------------------------


  energy-cutoff  :     1000.00
  volume of cell :    12500.00
      direct lattice vectors                 reciprocal lattice vectors
    25.000000000  0.000000000  0.000000000     0.040000000  0.000000000  0.000000000
     0.000000000 25.000000000  0.000000000     0.000000000  0.040000000  0.000000000
     0.000000000  0.000000000 20.000000000     0.000000000  0.000000000  0.050000000

  length of vectors
    25.000000000 25.000000000 20.000000000     0.040000000  0.040000000  0.050000000



 k-points in units of 2pi/SCALE and weight: auto                                    
   0.00000000  0.00000000  0.00000000       1.000

 k-points in reciprocal lattice and weights: auto                                    
   0.00000000  0.00000000  0.00000000       1.000

 position of ions in fractional coordinates (direct lattice) 
   0.43037720  0.42647000  0.49999300
   0.48544440  0.42651560  0.49998350
   0.51449440  0.47524680  0.49998700
   0.48549760  0.52476280  0.50000250
   0.42878960  0.52327520  0.50001900
   0.40180160  0.47527600  0.50000900
   0.57120880  0.47672880  0.49997700
   0.51454920  0.57349080  0.50001100
   0.56962000  0.57353680  0.50000500
   0.59819280  0.52473280  0.49998550
   0.59317000  0.43909680  0.49997200
   0.40858960  0.38879640  0.49999550
   0.50753400  0.38895800  0.49997250
   0.40684200  0.56091400  0.50002800
   0.35828960  0.47471320  0.50002450
   0.49247240  0.61105360  0.50002650
   0.59142080  0.61120360  0.50000750
   0.64171040  0.52530200  0.49998350

 position of ions in cartesian coordinates  (Angst):
  10.75943000 10.66175000  9.99986000
  12.13611000 10.66289000  9.99967000
  12.86236000 11.88117000  9.99974000
  12.13744000 13.11907000 10.00005000
  10.71974000 13.08188000 10.00038000
  10.04504000 11.88190000 10.00018000
  14.28022000 11.91822000  9.99954000
  12.86373000 14.33727000 10.00022000
  14.24050000 14.33842000 10.00010000
  14.95482000 13.11832000  9.99971000
  14.82925000 10.97742000  9.99944000
  10.21474000  9.71991000  9.99991000
  12.68835000  9.72395000  9.99945000
  10.17105000 14.02285000 10.00056000
   8.95724000 11.86783000 10.00049000
  12.31181000 15.27634000 10.00053000
  14.78552000 15.28009000 10.00015000
  16.04276000 13.13255000  9.99967000



--------------------------------------------------------------------------------------------------------


 use parallel FFT for orbitals z direction half grid
 k-point   1 :   0.0000 0.0000 0.0000  plane waves:  448902

 maximum and minimum number of plane-waves per node :     14041    14019

 maximum number of plane-waves:    448902
 maximum index in each direction: 
   IXMAX=   64   IYMAX=   64   IZMAX=   51
   IXMIN=  -64   IYMIN=  -64   IZMIN=    0


 parallel 3D FFT for wavefunctions:
    minimum data exchange during FFTs selected (reduces bandwidth)
 parallel 3D FFT for charge:
    minimum data exchange during FFTs selected (reduces bandwidth)


 total amount of memory used by VASP MPI-rank0   129989. kBytes
=======================================================================

   base      :      30000. kBytes
   nonl-proj :       5837. kBytes
   fftplans  :      32103. kBytes
   grid      :      58682. kBytes
   one-center:          1. kBytes
   wavefun   :       3366. kBytes

     INWAV:  cpu time      0.0001: real time      0.0002
 Broyden mixing: mesh for mixing (old mesh)
   NGX =129   NGY =129   NGZ =103
  (NGX  =540   NGY  =540   NGZ  =420)
  gives a total of ****** points

 initial charge density was supplied:
 charge density of overlapping atoms calculated
 number of electron      48.0000000 magnetization 
 keeping initial charge density in first step


--------------------------------------------------------------------------------------------------------


 Maximum index for augmentation-charges          362 (set IRDMAX)


--------------------------------------------------------------------------------------------------------


 First call to EWALD:  gamma=   0.076
 Maximum number of real-space cells 3x 3x 3
 Maximum number of reciprocal cells 3x 3x 2

    FEWALD:  cpu time      0.0045: real time      0.0047


--------------------------------------- Ionic step        1  -------------------------------------------




--------------------------------------- Iteration      1(   1)  ---------------------------------------


vdW kernel read from vdw_kernel.bindat
  0.0000  0.2424  0.5071  0.7962  1.1119  1.4567  1.8333  2.2446  2.6937  3.1842
  3.7199  4.3049  4.9438  5.6415  6.4036  7.2358  8.1446  9.1372 10.2212 11.4050
 12.6979 14.1099 15.6519 17.3360 19.1751 21.1837 23.3773 25.7729 28.3892 31.2465
 34.3669 37.7748 41.4965 45.5611 50.0000

    POTLOK:  cpu time     24.9105: real time     24.9189
    SETDIJ:  cpu time      0.1221: real time      0.1226
    TRIAL :  cpu time      1.2291: real time      1.2310
    CORREC:  cpu time      0.0014: real time      0.0015
    --------------------------------------------
      LOOP:  cpu time     26.2768: real time     26.2878

 eigenvalue-minimisations  :    96
 total energy-change (2. order) : 0.4957709E+03  (-0.1166271E+04)
 number of electron      48.0000000 magnetization 
 augmentation part       48.0000000 magnetization 

 Free energy of the ion-electron system (eV)
  ---------------------------------------------------
  alpha Z        PSCENC =         0.60063671
  Ewald energy   TEWEN  =      4164.01188206
  -Hartree energ DENC   =     -5176.50034547
  -exchange      EXHF   =         0.00000000
  -V(xc)+E(xc)   XCENC  =        84.34800296
  PAW double counting   =      1156.45158892    -1096.56953564
  entropy T*S    EENTRO =        -0.00174346
  eigenvalues    EBANDS =      -226.23377930
  atomic energy  EATOM  =      1589.66418368
  ---------------------------------------------------
  free energy    TOTEN  =       495.77089046 eV

  energy without entropy =      495.77263392  energy(sigma->0) =      495.77176219


--------------------------------------------------------------------------------------------------------




--------------------------------------- Iteration      1(   2)  ---------------------------------------


    TRIAL :  cpu time      1.6854: real time      1.6862
    CORREC:  cpu time      0.0006: real time      0.0006
    --------------------------------------------
      LOOP:  cpu time      1.6994: real time      1.7196

 eigenvalue-minimisations  :   152
 total energy-change (2. order) :-0.2649344E+03  (-0.2498712E+03)
 number of electron      48.0000000 magnetization 
 augmentation part       48.0000000 magnetization 

 Free energy of the ion-electron system (eV)
  ---------------------------------------------------
  alpha Z        PSCENC =         0.60063671
  Ewald energy   TEWEN  =      4164.01188206
  -Hartree energ DENC   =     -5176.50034547
  -exchange      EXHF   =         0.00000000
  -V(xc)+E(xc)   XCENC  =        84.34800296
  PAW double counting   =      1156.45158892    -1096.56953564
  entropy T*S    EENTRO =        -0.00140432
  eigenvalues    EBANDS =      -491.16848667
  atomic energy  EATOM  =      1589.66418368
  ---------------------------------------------------
  free energy    TOTEN  =       230.83652223 eV

  energy without entropy =      230.83792655  energy(sigma->0) =      230.83722439


--------------------------------------------------------------------------------------------------------




--------------------------------------- Iteration      1(   3)  ---------------------------------------


    TRIAL :  cpu time      1.4751: real time      1.4757
    CORREC:  cpu time      0.0001: real time      0.0001
    --------------------------------------------
      LOOP:  cpu time      1.4889: real time      1.5054

 eigenvalue-minimisations  :   128
 total energy-change (2. order) :-0.2593150E+03  (-0.2336492E+03)
 number of electron      48.0000000 magnetization 
 augmentation part       48.0000000 magnetization 

 Free energy of the ion-electron system (eV)
  ---------------------------------------------------
  alpha Z        PSCENC =         0.60063671
  Ewald energy   TEWEN  =      4164.01188206
  -Hartree energ DENC   =     -5176.50034547
  -exchange      EXHF   =         0.00000000
  -V(xc)+E(xc)   XCENC  =        84.34800296
  PAW double counting   =      1156.45158892    -1096.56953564
  entropy T*S    EENTRO =        -0.00000000
  eigenvalues    EBANDS =      -750.48488289
  atomic energy  EATOM  =      1589.66418368
  ---------------------------------------------------
  free energy    TOTEN  =       -28.47846967 eV

  energy without entropy =      -28.47846967  energy(sigma->0) =      -28.47846967


--------------------------------------------------------------------------------------------------------




--------------------------------------- Iteration      1(   4)  ---------------------------------------


    TRIAL :  cpu time      1.4063: real time      1.4073
    CORREC:  cpu time      0.0001: real time      0.0001
    --------------------------------------------
      LOOP:  cpu time      1.4368: real time      1.4379

 eigenvalue-minimisations  :   120
 total energy-change (2. order) :-0.8465633E+02  (-0.8445518E+02)
 number of electron      48.0000000 magnetization 
 augmentation part       48.0000000 magnetization 

 Free energy of the ion-electron system (eV)
  ---------------------------------------------------
  alpha Z        PSCENC =         0.60063671
  Ewald energy   TEWEN  =      4164.01188206
  -Hartree energ DENC   =     -5176.50034547
  -exchange      EXHF   =         0.00000000
  -V(xc)+E(xc)   XCENC  =        84.34800296
  PAW double counting   =      1156.45158892    -1096.56953564
  entropy T*S    EENTRO =        -0.00000000
  eigenvalues    EBANDS =      -835.14120864
  atomic energy  EATOM  =      1589.66418368
  ---------------------------------------------------
  free energy    TOTEN  =      -113.13479542 eV

  energy without entropy =     -113.13479542  energy(sigma->0) =     -113.13479542


--------------------------------------------------------------------------------------------------------




--------------------------------------- Iteration      1(   5)  ---------------------------------------


    TRIAL :  cpu time      1.2663: real time      1.2668
    CORREC:  cpu time      0.0001: real time      0.0001
    CHARGE:  cpu time      0.2710: real time      0.2718
    --------------------------------------------
      LOOP:  cpu time      1.5492: real time      1.5708

 eigenvalue-minimisations  :   104
 total energy-change (2. order) :-0.5812511E+01  (-0.5785496E+01)
 number of electron      48.0000000 magnetization 
 augmentation part       -0.0221690 magnetization 

 Free energy of the ion-electron system (eV)
  ---------------------------------------------------
  alpha Z        PSCENC =         0.60063671
  Ewald energy   TEWEN  =      4164.01188206
  -Hartree energ DENC   =     -5176.50034547
  -exchange      EXHF   =         0.00000000
  -V(xc)+E(xc)   XCENC  =        84.34800296
  PAW double counting   =      1156.45158892    -1096.56953564
  entropy T*S    EENTRO =        -0.00000000
  eigenvalues    EBANDS =      -840.95371946
  atomic energy  EATOM  =      1589.66418368
  ---------------------------------------------------
  free energy    TOTEN  =      -118.94730624 eV

  energy without entropy =     -118.94730624  energy(sigma->0) =     -118.94730624


--------------------------------------------------------------------------------------------------------




--------------------------------------- Iteration      1(   6)  ---------------------------------------


    POTLOK:  cpu time     24.4455: real time     24.4526
    SETDIJ:  cpu time      0.0986: real time      0.0986
    TRIAL :  cpu time      0.7247: real time      0.7260
    CORREC:  cpu time     24.9399: real time     24.9481
    CHARGE:  cpu time      0.2331: real time      0.2336
    --------------------------------------------
      LOOP:  cpu time     50.4576: real time     50.4897

 eigenvalue-minimisations  :     0
 total energy-change (2. order) : 0.2204665E+02  (-0.8206076E+01)
 number of electron      48.0000000 magnetization 
 augmentation part       -0.0351267 magnetization 

 Free energy of the ion-electron system (eV)
  ---------------------------------------------------
  alpha Z        PSCENC =         0.60063671
  Ewald energy   TEWEN  =      4164.01188206
  -Hartree energ DENC   =     -5637.47151085
  -exchange      EXHF   =         0.00000000
  -V(xc)+E(xc)   XCENC  =       101.22658214
  PAW double counting   =     11696.16842435   -11638.10276541
  entropy T*S    EENTRO =        -0.00000000
  eigenvalues    EBANDS =      -372.99808729
  atomic energy  EATOM  =      1589.66418368
  ---------------------------------------------------
  free energy    TOTEN  =       -96.90065461 eV

  energy without entropy =      -96.90065461  energy(sigma->0) =      -96.90065461


--------------------------------------------------------------------------------------------------------




--------------------------------------- Iteration      1(   7)  ---------------------------------------


    POTLOK:  cpu time     24.4682: real time     24.4755
    SETDIJ:  cpu time      0.0449: real time      0.0449
    TRIAL :  cpu time      0.7128: real time      0.7133
    CORREC:  cpu time     24.9569: real time     24.9645
    CHARGE:  cpu time      0.2332: real time      0.2333
    --------------------------------------------
      LOOP:  cpu time     50.4502: real time     50.4659

 eigenvalue-minimisations  :     0
 total energy-change (2. order) :-0.8261190E+01  (-0.8050572E+00)
 number of electron      48.0000000 magnetization 
 augmentation part       -0.0494119 magnetization 

 Free energy of the ion-electron system (eV)
  ---------------------------------------------------
  alpha Z        PSCENC =         0.60063671
  Ewald energy   TEWEN  =      4164.01188206
  -Hartree energ DENC   =     -5441.13474522
  -exchange      EXHF   =         0.00000000
  -V(xc)+E(xc)   XCENC  =        94.90835302
  PAW double counting   =     14693.47326831   -14634.52221539
  entropy T*S    EENTRO =        -0.00000000
  eigenvalues    EBANDS =      -572.16320743
  atomic energy  EATOM  =      1589.66418368
  ---------------------------------------------------
  free energy    TOTEN  =      -105.16184426 eV

  energy without entropy =     -105.16184426  energy(sigma->0) =     -105.16184426


--------------------------------------------------------------------------------------------------------




--------------------------------------- Iteration      1(   8)  ---------------------------------------


    POTLOK:  cpu time     24.4824: real time     24.4893
    SETDIJ:  cpu time      0.0021: real time      0.0021
    TRIAL :  cpu time      0.7115: real time      0.7117
    CORREC:  cpu time     24.9500: real time     24.9569
    CHARGE:  cpu time      0.2338: real time      0.2342
    --------------------------------------------
      LOOP:  cpu time     50.3933: real time     50.4258

 eigenvalue-minimisations  :     0
 total energy-change (2. order) :-0.8077378E+00  (-0.3517401E+00)
 number of electron      48.0000000 magnetization 
 augmentation part       -0.0522683 magnetization 

 Free energy of the ion-electron system (eV)
  ---------------------------------------------------
  alpha Z        PSCENC =         0.60063671
  Ewald energy   TEWEN  =      4164.01188206
  -Hartree energ DENC   =     -5439.56556148
  -exchange      EXHF   =         0.00000000
  -V(xc)+E(xc)   XCENC  =        94.91270408
  PAW double counting   =     15946.03167308   -15886.97628997
  entropy T*S    EENTRO =        -0.00000000
  eigenvalues    EBANDS =      -574.64881025
  atomic energy  EATOM  =      1589.66418368
  ---------------------------------------------------
  free energy    TOTEN  =      -105.96958209 eV

  energy without entropy =     -105.96958209  energy(sigma->0) =     -105.96958209


--------------------------------------------------------------------------------------------------------




--------------------------------------- Iteration      1(   9)  ---------------------------------------


    POTLOK:  cpu time     24.4949: real time     24.5016
    SETDIJ:  cpu time      0.0023: real time      0.0023
    TRIAL :  cpu time      0.7127: real time      0.7132
    CORREC:  cpu time     25.0406: real time     25.0471
    CHARGE:  cpu time      0.2357: real time      0.2358
    --------------------------------------------
      LOOP:  cpu time     50.4999: real time     50.5318

 eigenvalue-minimisations  :     0
 total energy-change (2. order) :-0.3413606E+00  (-0.1510709E+00)
 number of electron      48.0000000 magnetization 
 augmentation part       -0.0527223 magnetization 

 Free energy of the ion-electron system (eV)
  ---------------------------------------------------
  alpha Z        PSCENC =         0.60063671
  Ewald energy   TEWEN  =      4164.01188206
  -Hartree energ DENC   =     -5429.20324724
  -exchange      EXHF   =         0.00000000
  -V(xc)+E(xc)   XCENC  =        94.60668077
  PAW double counting   =     16526.75686911   -16467.61873212
  entropy T*S    EENTRO =        -0.00000000
  eigenvalues    EBANDS =      -585.12921571
  atomic energy  EATOM  =      1589.66418368
  ---------------------------------------------------
  free energy    TOTEN  =      -106.31094274 eV

  energy without entropy =     -106.31094274  energy(sigma->0) =     -106.31094274


--------------------------------------------------------------------------------------------------------




--------------------------------------- Iteration      1(  10)  ---------------------------------------


    POTLOK:  cpu time     24.4775: real time     24.4846
    SETDIJ:  cpu time      0.0052: real time      0.0052
    TRIAL :  cpu time      0.7306: real time      0.7307
    CORREC:  cpu time     25.0581: real time     25.0652
    CHARGE:  cpu time      0.2330: real time      0.2335
    --------------------------------------------
      LOOP:  cpu time     50.5188: real time     50.5727

 eigenvalue-minimisations  :     0
 total energy-change (2. order) :-0.1468489E+00  (-0.4069362E-01)
 number of electron      48.0000000 magnetization 
 augmentation part       -0.0520302 magnetization 

 Free energy of the ion-electron system (eV)
  ---------------------------------------------------
  alpha Z        PSCENC =         0.60063671
  Ewald energy   TEWEN  =      4164.01188206
  -Hartree energ DENC   =     -5423.21949367
  -exchange      EXHF   =         0.00000000
  -V(xc)+E(xc)   XCENC  =        94.49214488
  PAW double counting   =     16337.93816764   -16278.79702379
  entropy T*S    EENTRO =        -0.00000000
  eigenvalues    EBANDS =      -591.14828917
  atomic energy  EATOM  =      1589.66418368
  ---------------------------------------------------
  free energy    TOTEN  =      -106.45779167 eV

  energy without entropy =     -106.45779167  energy(sigma->0) =     -106.45779167


--------------------------------------------------------------------------------------------------------




--------------------------------------- Iteration      1(  11)  ---------------------------------------


    POTLOK:  cpu time     24.5197: real time     24.5257
    SETDIJ:  cpu time      0.0018: real time      0.0018
    TRIAL :  cpu time      0.7137: real time      0.7142
    CORREC:  cpu time     24.8991: real time     24.9054
    CHARGE:  cpu time      0.2322: real time      0.2323
    --------------------------------------------
      LOOP:  cpu time     50.3804: real time     50.4109

 eigenvalue-minimisations  :     0
 total energy-change (2. order) :-0.4056223E-01  (-0.1099563E-01)
 number of electron      48.0000000 magnetization 
 augmentation part       -0.0511787 magnetization 

 Free energy of the ion-electron system (eV)
  ---------------------------------------------------
  alpha Z        PSCENC =         0.60063671
  Ewald energy   TEWEN  =      4164.01188206
  -Hartree energ DENC   =     -5423.18772454
  -exchange      EXHF   =         0.00000000
  -V(xc)+E(xc)   XCENC  =        94.51722593
  PAW double counting   =     16029.36085595   -15970.24577950
  entropy T*S    EENTRO =        -0.00000000
  eigenvalues    EBANDS =      -591.21963419
  atomic energy  EATOM  =      1589.66418368
  ---------------------------------------------------
  free energy    TOTEN  =      -106.49835390 eV

  energy without entropy =     -106.49835390  energy(sigma->0) =     -106.49835390


--------------------------------------------------------------------------------------------------------




--------------------------------------- Iteration      1(  12)  ---------------------------------------


    POTLOK:  cpu time     24.4558: real time     24.4621
    SETDIJ:  cpu time      0.0126: real time      0.0126
    TRIAL :  cpu time      0.7131: real time      0.7132
    CORREC:  cpu time     24.9406: real time     24.9478
    CHARGE:  cpu time      0.2337: real time      0.2339
    --------------------------------------------
      LOOP:  cpu time     50.3896: real time     50.4037

 eigenvalue-minimisations  :     0
 total energy-change (2. order) :-0.1102614E-01  (-0.3301008E-02)
 number of electron      48.0000000 magnetization 
 augmentation part       -0.0508151 magnetization 

 Free energy of the ion-electron system (eV)
  ---------------------------------------------------
  alpha Z        PSCENC =         0.60063671
  Ewald energy   TEWEN  =      4164.01188206
  -Hartree energ DENC   =     -5422.99855549
  -exchange      EXHF   =         0.00000000
  -V(xc)+E(xc)   XCENC  =        94.49429972
  PAW double counting   =     15878.13235400   -15819.03023388
  entropy T*S    EENTRO =        -0.00000000
  eigenvalues    EBANDS =      -591.38394684
  atomic energy  EATOM  =      1589.66418368
  ---------------------------------------------------
  free energy    TOTEN  =      -106.50938004 eV

  energy without entropy =     -106.50938004  energy(sigma->0) =     -106.50938004


--------------------------------------------------------------------------------------------------------




--------------------------------------- Iteration      1(  13)  ---------------------------------------


    POTLOK:  cpu time     24.4662: real time     24.4734
    SETDIJ:  cpu time      0.0221: real time      0.0221
    TRIAL :  cpu time      0.7115: real time      0.7120
    CORREC:  cpu time     24.9190: real time     24.9264
    CHARGE:  cpu time      0.2336: real time      0.2337
    --------------------------------------------
      LOOP:  cpu time     50.3670: real time     50.3996

 eigenvalue-minimisations  :     0
 total energy-change (2. order) :-0.3319692E-02  (-0.1223756E-02)
 number of electron      48.0000000 magnetization 
 augmentation part       -0.0506823 magnetization 

 Free energy of the ion-electron system (eV)
  ---------------------------------------------------
  alpha Z        PSCENC =         0.60063671
  Ewald energy   TEWEN  =      4164.01188206
  -Hartree energ DENC   =     -5423.31116904
  -exchange      EXHF   =         0.00000000
  -V(xc)+E(xc)   XCENC  =        94.48896967
  PAW double counting   =     15845.73739641   -15786.64081001
  entropy T*S    EENTRO =        -0.00000000
  eigenvalues    EBANDS =      -591.06378921
  atomic energy  EATOM  =      1589.66418368
  ---------------------------------------------------
  free energy    TOTEN  =      -106.51269973 eV

  energy without entropy =     -106.51269973  energy(sigma->0) =     -106.51269973


--------------------------------------------------------------------------------------------------------




--------------------------------------- Iteration      1(  14)  ---------------------------------------


    POTLOK:  cpu time     24.4015: real time     24.4095
    SETDIJ:  cpu time      0.0731: real time      0.0738
    TRIAL :  cpu time      0.7364: real time      0.7389
    CORREC:  cpu time     24.8706: real time     24.8786
    CHARGE:  cpu time      0.2331: real time      0.2333
    --------------------------------------------
      LOOP:  cpu time     50.3470: real time     50.3670

 eigenvalue-minimisations  :     0
 total energy-change (2. order) :-0.1242568E-02  (-0.4895224E-03)
 number of electron      48.0000000 magnetization 
 augmentation part       -0.0506166 magnetization 

 Free energy of the ion-electron system (eV)
  ---------------------------------------------------
  alpha Z        PSCENC =         0.60063671
  Ewald energy   TEWEN  =      4164.01188206
  -Hartree energ DENC   =     -5423.73503562
  -exchange      EXHF   =         0.00000000
  -V(xc)+E(xc)   XCENC  =        94.49674763
  PAW double counting   =     15860.76774437   -15801.67264829
  entropy T*S    EENTRO =        -0.00000000
  eigenvalues    EBANDS =      -590.64745283
  atomic energy  EATOM  =      1589.66418368
  ---------------------------------------------------
  free energy    TOTEN  =      -106.51394230 eV

  energy without entropy =     -106.51394230  energy(sigma->0) =     -106.51394230


--------------------------------------------------------------------------------------------------------




--------------------------------------- Iteration      1(  15)  ---------------------------------------


    POTLOK:  cpu time     24.3242: real time     24.3311
    SETDIJ:  cpu time      0.0976: real time      0.0976
    TRIAL :  cpu time      0.7183: real time      0.7183
    CORREC:  cpu time     24.8213: real time     24.8277
    CHARGE:  cpu time      0.2337: real time      0.2338
    --------------------------------------------
      LOOP:  cpu time     50.2265: real time     50.2401

 eigenvalue-minimisations  :     0
 total energy-change (2. order) :-0.5053207E-03  (-0.1723889E-03)
 number of electron      48.0000000 magnetization 
 augmentation part       -0.0505627 magnetization 

 Free energy of the ion-electron system (eV)
  ---------------------------------------------------
  alpha Z        PSCENC =         0.60063671
  Ewald energy   TEWEN  =      4164.01188206
  -Hartree energ DENC   =     -5423.91362396
  -exchange      EXHF   =         0.00000000
  -V(xc)+E(xc)   XCENC  =        94.50078326
  PAW double counting   =     15879.54560327   -15820.44950692
  entropy T*S    EENTRO =        -0.00000000
  eigenvalues    EBANDS =      -590.47440572
  atomic energy  EATOM  =      1589.66418368
  ---------------------------------------------------
  free energy    TOTEN  =      -106.51444762 eV

  energy without entropy =     -106.51444762  energy(sigma->0) =     -106.51444762


--------------------------------------------------------------------------------------------------------




--------------------------------------- Iteration      1(  16)  ---------------------------------------


    POTLOK:  cpu time     24.2920: real time     24.2986
    SETDIJ:  cpu time      0.1066: real time      0.1067
    TRIAL :  cpu time      0.7110: real time      0.7114
    CORREC:  cpu time     24.8361: real time     24.8426
    CHARGE:  cpu time      0.2333: real time      0.2338
    --------------------------------------------
      LOOP:  cpu time     50.1948: real time     50.2265

 eigenvalue-minimisations  :     0
 total energy-change (2. order) :-0.1792609E-03  (-0.5614537E-04)
 number of electron      48.0000000 magnetization 
 augmentation part       -0.0505224 magnetization 

 Free energy of the ion-electron system (eV)
  ---------------------------------------------------
  alpha Z        PSCENC =         0.60063671
  Ewald energy   TEWEN  =      4164.01188206
  -Hartree energ DENC   =     -5424.02348919
  -exchange      EXHF   =         0.00000000
  -V(xc)+E(xc)   XCENC  =        94.50439964
  PAW double counting   =     15885.19763056   -15826.10060482
  entropy T*S    EENTRO =        -0.00000000
  eigenvalues    EBANDS =      -590.36926551
  atomic energy  EATOM  =      1589.66418368
  ---------------------------------------------------
  free energy    TOTEN  =      -106.51462688 eV

  energy without entropy =     -106.51462688  energy(sigma->0) =     -106.51462688


--------------------------------------------------------------------------------------------------------




--------------------------------------- Iteration      1(  17)  ---------------------------------------


    POTLOK:  cpu time     24.3356: real time     24.3420
    SETDIJ:  cpu time      0.0020: real time      0.0020
    TRIAL :  cpu time      0.7103: real time      0.7107
    CORREC:  cpu time     24.8389: real time     24.8463
    CHARGE:  cpu time      0.2338: real time      0.2340
    --------------------------------------------
      LOOP:  cpu time     50.1355: real time     50.1660

 eigenvalue-minimisations  :     0
 total energy-change (2. order) :-0.5871243E-04  (-0.1953038E-04)
 number of electron      48.0000000 magnetization 
 augmentation part       -0.0505064 magnetization 

 Free energy of the ion-electron system (eV)
  ---------------------------------------------------
  alpha Z        PSCENC =         0.60063671
  Ewald energy   TEWEN  =      4164.01188206
  -Hartree energ DENC   =     -5424.06536452
  -exchange      EXHF   =         0.00000000
  -V(xc)+E(xc)   XCENC  =        94.50671902
  PAW double counting   =     15884.20679386   -15825.10935663
  entropy T*S    EENTRO =        -0.00000000
  eigenvalues    EBANDS =      -590.33017977
  atomic energy  EATOM  =      1589.66418368
  ---------------------------------------------------
  free energy    TOTEN  =      -106.51468560 eV

  energy without entropy =     -106.51468560  energy(sigma->0) =     -106.51468560


--------------------------------------------------------------------------------------------------------




--------------------------------------- Iteration      1(  18)  ---------------------------------------


    POTLOK:  cpu time     24.3582: real time     24.3645
    SETDIJ:  cpu time      0.0021: real time      0.0021
    TRIAL :  cpu time      0.7111: real time      0.7116
    CORREC:  cpu time     24.8366: real time     24.8432
    CHARGE:  cpu time      0.2336: real time      0.2338
    --------------------------------------------
      LOOP:  cpu time     50.1770: real time     50.1908

 eigenvalue-minimisations  :     0
 total energy-change (2. order) :-0.2048551E-04  (-0.9385727E-05)
 number of electron      48.0000000 magnetization 
 augmentation part       -0.0505082 magnetization 

 Free energy of the ion-electron system (eV)
  ---------------------------------------------------
  alpha Z        PSCENC =         0.60063671
  Ewald energy   TEWEN  =      4164.01188206
  -Hartree energ DENC   =     -5424.05323799
  -exchange      EXHF   =         0.00000000
  -V(xc)+E(xc)   XCENC  =        94.50705064
  PAW double counting   =     15882.90350156   -15823.80589958
  entropy T*S    EENTRO =        -0.00000000
  eigenvalues    EBANDS =      -590.34282315
  atomic energy  EATOM  =      1589.66418368
  ---------------------------------------------------
  free energy    TOTEN  =      -106.51470608 eV

  energy without entropy =     -106.51470608  energy(sigma->0) =     -106.51470608


--------------------------------------------------------------------------------------------------------




--------------------------------------- Iteration      1(  19)  ---------------------------------------


    POTLOK:  cpu time     24.3053: real time     24.3111
    SETDIJ:  cpu time      0.1274: real time      0.1274
    TRIAL :  cpu time      0.7132: real time      0.7137
    CORREC:  cpu time     24.7862: real time     24.7938
    CHARGE:  cpu time      0.2333: real time      0.2334
    --------------------------------------------
      LOOP:  cpu time     50.1840: real time     50.2142

 eigenvalue-minimisations  :     0
 total energy-change (2. order) :-0.9722886E-05  (-0.4708957E-05)
 number of electron      48.0000000 magnetization 
 augmentation part       -0.0505211 magnetization 

 Free energy of the ion-electron system (eV)
  ---------------------------------------------------
  alpha Z        PSCENC =         0.60063671
  Ewald energy   TEWEN  =      4164.01188206
  -Hartree energ DENC   =     -5424.04893194
  -exchange      EXHF   =         0.00000000
  -V(xc)+E(xc)   XCENC  =        94.50714301
  PAW double counting   =     15882.65496764   -15823.55736951
  entropy T*S    EENTRO =        -0.00000000
  eigenvalues    EBANDS =      -590.34722745
  atomic energy  EATOM  =      1589.66418368
  ---------------------------------------------------
  free energy    TOTEN  =      -106.51471580 eV

  energy without entropy =     -106.51471580  energy(sigma->0) =     -106.51471580


--------------------------------------------------------------------------------------------------------




--------------------------------------- Iteration      1(  20)  ---------------------------------------


    POTLOK:  cpu time     24.3649: real time     24.3724
    SETDIJ:  cpu time      0.0023: real time      0.0023
    TRIAL :  cpu time      0.7117: real time      0.7118
    CORREC:  cpu time     24.7670: real time     24.7745
    CHARGE:  cpu time      0.2332: real time      0.2333
    --------------------------------------------
      LOOP:  cpu time     50.0949: real time     50.1275

 eigenvalue-minimisations  :     0
 total energy-change (2. order) :-0.4677902E-05  (-0.1826978E-05)
 number of electron      48.0000000 magnetization 
 augmentation part       -0.0505316 magnetization 

 Free energy of the ion-electron system (eV)
  ---------------------------------------------------
  alpha Z        PSCENC =         0.60063671
  Ewald energy   TEWEN  =      4164.01188206
  -Hartree energ DENC   =     -5424.04569323
  -exchange      EXHF   =         0.00000000
  -V(xc)+E(xc)   XCENC  =        94.50702157
  PAW double counting   =     15882.99366775   -15823.89613462
  entropy T*S    EENTRO =        -0.00000000
  eigenvalues    EBANDS =      -590.35028440
  atomic energy  EATOM  =      1589.66418368
  ---------------------------------------------------
  free energy    TOTEN  =      -106.51472048 eV

  energy without entropy =     -106.51472048  energy(sigma->0) =     -106.51472048


--------------------------------------------------------------------------------------------------------




--------------------------------------- Iteration      1(  21)  ---------------------------------------


    POTLOK:  cpu time     24.3321: real time     24.3391
    SETDIJ:  cpu time      0.0846: real time      0.0846
    TRIAL :  cpu time      0.7137: real time      0.7142
    CORREC:  cpu time     24.8491: real time     24.8548
    CHARGE:  cpu time      0.2334: real time      0.2338
    --------------------------------------------
      LOOP:  cpu time     50.2271: real time     50.2581

 eigenvalue-minimisations  :     0
 total energy-change (2. order) :-0.1822253E-05  (-0.8070247E-06)
 number of electron      48.0000000 magnetization 
 augmentation part       -0.0505357 magnetization 

 Free energy of the ion-electron system (eV)
  ---------------------------------------------------
  alpha Z        PSCENC =         0.60063671
  Ewald energy   TEWEN  =      4164.01188206
  -Hartree energ DENC   =     -5424.03819160
  -exchange      EXHF   =         0.00000000
  -V(xc)+E(xc)   XCENC  =        94.50666582
  PAW double counting   =     15883.00858649   -15823.91109105
  entropy T*S    EENTRO =        -0.00000000
  eigenvalues    EBANDS =      -590.35739441
  atomic energy  EATOM  =      1589.66418368
  ---------------------------------------------------
  free energy    TOTEN  =      -106.51472231 eV

  energy without entropy =     -106.51472231  energy(sigma->0) =     -106.51472231


--------------------------------------------------------------------------------------------------------




--------------------------------------- Iteration      1(  22)  ---------------------------------------


    POTLOK:  cpu time     24.3510: real time     24.3571
    SETDIJ:  cpu time      0.0206: real time      0.0206
    TRIAL :  cpu time      0.7102: real time      0.7109
    CORREC:  cpu time     24.8967: real time     24.9041
    CHARGE:  cpu time      0.2335: real time      0.2337
    --------------------------------------------
      LOOP:  cpu time     50.2259: real time     50.2586

 eigenvalue-minimisations  :     0
 total energy-change (2. order) :-0.7683211E-06  (-0.7223610E-06)
 number of electron      48.0000000 magnetization 
 augmentation part       -0.0505367 magnetization 

 Free energy of the ion-electron system (eV)
  ---------------------------------------------------
  alpha Z        PSCENC =         0.60063671
  Ewald energy   TEWEN  =      4164.01188206
  -Hartree energ DENC   =     -5424.03943988
  -exchange      EXHF   =         0.00000000
  -V(xc)+E(xc)   XCENC  =        94.50658102
  PAW double counting   =     15882.66811225   -15823.57065261
  entropy T*S    EENTRO =        -0.00000000
  eigenvalues    EBANDS =      -590.35602629
  atomic energy  EATOM  =      1589.66418368
  ---------------------------------------------------
  free energy    TOTEN  =      -106.51472307 eV

  energy without entropy =     -106.51472307  energy(sigma->0) =     -106.51472307


--------------------------------------------------------------------------------------------------------




--------------------------------------- Iteration      1(  23)  ---------------------------------------


    POTLOK:  cpu time     24.2797: real time     24.2865
    SETDIJ:  cpu time      0.1009: real time      0.1009
    TRIAL :  cpu time      0.7125: real time      0.7130
    CORREC:  cpu time     24.8004: real time     24.8080
    CHARGE:  cpu time      0.2337: real time      0.2338
    --------------------------------------------
      LOOP:  cpu time     50.1581: real time     50.1731

 eigenvalue-minimisations  :     0
 total energy-change (2. order) : 0.2780926E-06  (-0.7017974E-06)
 number of electron      48.0000000 magnetization 
 augmentation part       -0.0505359 magnetization 

 Free energy of the ion-electron system (eV)
  ---------------------------------------------------
  alpha Z        PSCENC =         0.60063671
  Ewald energy   TEWEN  =      4164.01188206
  -Hartree energ DENC   =     -5424.04028439
  -exchange      EXHF   =         0.00000000
  -V(xc)+E(xc)   XCENC  =        94.50645047
  PAW double counting   =     15882.12366989   -15823.02623014
  entropy T*S    EENTRO =        -0.00000000
  eigenvalues    EBANDS =      -590.35503108
  atomic energy  EATOM  =      1589.66418368
  ---------------------------------------------------
  free energy    TOTEN  =      -106.51472280 eV

  energy without entropy =     -106.51472280  energy(sigma->0) =     -106.51472280


--------------------------------------------------------------------------------------------------------




--------------------------------------- Iteration      1(  24)  ---------------------------------------


    POTLOK:  cpu time     24.2699: real time     24.2768
    SETDIJ:  cpu time      0.0905: real time      0.0905
    TRIAL :  cpu time      0.7123: real time      0.7127
    CORREC:  cpu time     24.7827: real time     24.7901
    CHARGE:  cpu time      0.2338: real time      0.2339
    --------------------------------------------
      LOOP:  cpu time     50.1045: real time     50.1353

 eigenvalue-minimisations  :     0
 total energy-change (2. order) :-0.6469327E-06  (-0.1729032E-06)
 number of electron      48.0000000 magnetization 
 augmentation part       -0.0505350 magnetization 

 Free energy of the ion-electron system (eV)
  ---------------------------------------------------
  alpha Z        PSCENC =         0.60063671
  Ewald energy   TEWEN  =      4164.01188206
  -Hartree energ DENC   =     -5424.04036757
  -exchange      EXHF   =         0.00000000
  -V(xc)+E(xc)   XCENC  =        94.50647164
  PAW double counting   =     15882.37667173   -15823.27922208
  entropy T*S    EENTRO =        -0.00000000
  eigenvalues    EBANDS =      -590.35497960
  atomic energy  EATOM  =      1589.66418368
  ---------------------------------------------------
  free energy    TOTEN  =      -106.51472344 eV

  energy without entropy =     -106.51472344  energy(sigma->0) =     -106.51472344


--------------------------------------------------------------------------------------------------------




--------------------------------------- Iteration      1(  25)  ---------------------------------------


    POTLOK:  cpu time     24.3516: real time     24.3581
    SETDIJ:  cpu time      0.0448: real time      0.0448
    TRIAL :  cpu time      0.7205: real time      0.7205
    CORREC:  cpu time     24.8722: real time     24.8801
    CHARGE:  cpu time      0.2335: real time      0.2336
    --------------------------------------------
      LOOP:  cpu time     50.2374: real time     50.2686

 eigenvalue-minimisations  :     0
 total energy-change (2. order) :-0.1643912E-06  (-0.5282535E-07)
 number of electron      48.0000000 magnetization 
 augmentation part       -0.0505344 magnetization 

 Free energy of the ion-electron system (eV)
  ---------------------------------------------------
  alpha Z        PSCENC =         0.60063671
  Ewald energy   TEWEN  =      4164.01188206
  -Hartree energ DENC   =     -5424.04023712
  -exchange      EXHF   =         0.00000000
  -V(xc)+E(xc)   XCENC  =        94.50650880
  PAW double counting   =     15882.60748095   -15823.51002180
  entropy T*S    EENTRO =        -0.00000000
  eigenvalues    EBANDS =      -590.35515689
  atomic energy  EATOM  =      1589.66418368
  ---------------------------------------------------
  free energy    TOTEN  =      -106.51472361 eV

  energy without entropy =     -106.51472361  energy(sigma->0) =     -106.51472361


--------------------------------------------------------------------------------------------------------




--------------------------------------- Iteration      1(  26)  ---------------------------------------


    POTLOK:  cpu time     24.3453: real time     24.3531
    SETDIJ:  cpu time      0.0019: real time      0.0019
    TRIAL :  cpu time      0.7117: real time      0.7122
    CORREC:  cpu time     24.8201: real time     24.8265
    EDDIAG:  cpu time      0.3134: real time      0.3140
    CHARGE:  cpu time      0.2337: real time      0.2338
    --------------------------------------------
      LOOP:  cpu time     50.4575: real time     50.4730

 eigenvalue-minimisations  :     0
 total energy-change (2. order) :-0.4024332E-07  (-0.2593181E-07)
 number of electron      48.0000000 magnetization 
 augmentation part       -0.0505339 magnetization 

 Free energy of the ion-electron system (eV)
  ---------------------------------------------------
  alpha Z        PSCENC =         0.60063671
  Ewald energy   TEWEN  =      4164.01188206
  -Hartree energ DENC   =     -5424.04021231
  -exchange      EXHF   =         0.00000000
  -V(xc)+E(xc)   XCENC  =        94.50653708
  PAW double counting   =     15882.70894356   -15823.61147918
  entropy T*S    EENTRO =        -0.00000000
  eigenvalues    EBANDS =      -590.35521524
  atomic energy  EATOM  =      1589.66418368
  ---------------------------------------------------
  free energy    TOTEN  =      -106.51472365 eV

  energy without entropy =     -106.51472365  energy(sigma->0) =     -106.51472365


--------------------------------------------------------------------------------------------------------


  average scaling for gradient   1.0558


 average (electrostatic) potential at core
  the test charge radii are     0.5770  0.4325
  (the norm of the test charge is              1.0000)
       1 -86.7841       2 -86.7919       3 -87.0012       4 -87.0010       5 -86.7918
       6 -86.7839       7 -86.7921       8 -86.7921       9 -86.7841      10 -86.7838
      11 -46.0504      12 -46.0253      13 -46.0508      14 -46.0502      15 -46.0261
      16 -46.0511      17 -46.0253      18 -46.0250



 E-fermi :  -5.4640     XC(G=0):  -0.4054     alpha+bet : -0.1017

 Fermi energy:        -5.4640166623

 k-point     1 :       0.0000    0.0000    0.0000
  band No.  band energies     occupation 
      1     -21.7790      2.00000
      2     -20.4279      2.00000
      3     -19.2008      2.00000
      4     -18.3779      2.00000
      5     -17.8080      2.00000
      6     -15.5010      2.00000
      7     -15.1319      2.00000
      8     -14.7585      2.00000
      9     -12.7559      2.00000
     10     -12.5602      2.00000
     11     -12.2224      2.00000
     12     -11.0074      2.00000
     13     -10.8810      2.00000
     14     -10.2642      2.00000
     15     -10.2521      2.00000
     16      -9.8115      2.00000
     17      -9.7706      2.00000
     18      -9.0492      2.00000
     19      -8.2722      2.00000
     20      -8.2173      2.00000
     21      -8.0774      2.00000
     22      -7.2162      2.00000
     23      -6.2806      2.00000
     24      -5.5545      2.00000
     25      -2.1622      0.00000
     26      -1.4184      0.00000
     27      -1.0628      0.00000
     28      -0.7138      0.00000
     29      -0.6721      0.00000
     30      -0.5414      0.00000
     31      -0.5321      0.00000
     32      -0.4551      0.00000
     33      -0.3611      0.00000
     34      -0.3340      0.00000
     35      -0.2212      0.00000
     36      -0.2145      0.00000
     37       0.0761      0.00000
     38       0.0808      0.00000
     39       0.2079      0.00000
     40       0.2750      0.00000


--------------------------------------------------------------------------------------------------------


 soft charge-density along one line, spin component           1
         0         1         2         3         4         5         6         7         8         9
 total charge-density along one line

 pseudopotential strength for first ion, spin component:           1
 12.705  21.380   0.000  -0.000  -0.001   0.001  -0.000  -0.002
 21.380  35.979   0.000  -0.000  -0.002   0.001  -0.000  -0.003
  0.000   0.000  -3.250   0.000  -0.000  -5.826   0.000  -0.001
 -0.000  -0.000   0.000  -3.259  -0.000   0.000  -5.841  -0.000
 -0.001  -0.002  -0.000  -0.000  -3.249  -0.001  -0.000  -5.824
  0.001   0.001  -5.826   0.000  -0.001 -10.422   0.000  -0.001
 -0.000  -0.000   0.000  -5.841  -0.000   0.000 -10.447  -0.000
 -0.002  -0.003  -0.001  -0.000  -5.824  -0.001  -0.000 -10.418
 total augmentation occupancy for first ion, spin component:           1
  6.695  -2.186   0.534   0.000   0.533  -0.242  -0.000  -0.231
 -2.186   0.745  -0.256  -0.000  -0.238   0.113   0.000   0.100
  0.534  -0.256   6.103   0.000  -0.289  -1.938  -0.000   0.125
  0.000  -0.000   0.000   2.645  -0.001  -0.000  -0.625   0.000
  0.533  -0.238  -0.289  -0.001   6.760   0.125   0.000  -2.200
 -0.242   0.113  -1.938  -0.000   0.125   0.625   0.000  -0.052
 -0.000   0.000  -0.000  -0.625   0.000   0.000   0.152  -0.000
 -0.231   0.100   0.125   0.000  -2.200  -0.052  -0.000   0.729


------------------------ aborting loop because EDIFF is reached ----------------------------------------


    FORLOC:  cpu time      0.0557: real time      0.0562
    FORNL :  cpu time      0.0694: real time      0.0696
    FORCOR:  cpu time     24.3187: real time     24.3251
    OFIELD:  cpu time      0.0065: real time      0.0070

 VOLUME and BASIS-vectors are now :
 -----------------------------------------------------------------------------
  energy-cutoff  :     1000.00
  volume of cell :    12500.00
      direct lattice vectors                 reciprocal lattice vectors
    25.000000000  0.000000000  0.000000000     0.040000000  0.000000000  0.000000000
     0.000000000 25.000000000  0.000000000     0.000000000  0.040000000  0.000000000
     0.000000000  0.000000000 20.000000000     0.000000000  0.000000000  0.050000000

  length of vectors
    25.000000000 25.000000000 20.000000000     0.040000000  0.040000000  0.050000000


 FORCES acting on ions:
    Electron-Ion                     Ewald-Force                    Non-Local-Force
 -----------------------------------------------------------------------------------------------
   0.130E+03 0.179E+03 0.222E-01   -.129E+03 -.179E+03 -.219E-01   -.975E+00 -.142E+00 0.714E-04
   -.407E+02 0.202E+03 0.397E-01   0.398E+02 -.202E+03 -.393E-01   0.105E+01 0.184E-01 -.668E-03
   -.441E+02 0.753E+02 0.298E-01   0.443E+02 -.757E+02 -.294E-01   -.232E+00 0.398E+00 -.844E-03
   0.441E+02 -.753E+02 0.426E-02   -.443E+02 0.757E+02 -.411E-02   0.241E+00 -.401E+00 0.611E-03
   0.156E+03 -.134E+03 -.717E-01   -.157E+03 0.133E+03 0.723E-01   0.528E+00 0.906E+00 -.191E-02
   0.220E+03 0.253E+02 -.127E-01   -.219E+03 -.245E+02 0.125E-01   -.598E+00 -.783E+00 0.116E-02
   -.156E+03 0.134E+03 0.633E-01   0.157E+03 -.134E+03 -.627E-01   -.530E+00 -.902E+00 0.158E-04
   0.407E+02 -.202E+03 -.358E-01   -.397E+02 0.202E+03 0.357E-01   -.104E+01 -.166E-01 0.332E-03
   -.130E+03 -.179E+03 -.331E-01   0.129E+03 0.179E+03 0.334E-01   0.973E+00 0.143E+00 -.128E-02
   -.220E+03 -.252E+02 0.327E-01   0.219E+03 0.245E+02 -.325E-01   0.605E+00 0.779E+00 0.174E-03
   -.567E+02 0.683E+02 0.120E-01   0.597E+02 -.733E+02 -.128E-01   -.298E+01 0.505E+01 0.478E-03
   0.460E+02 0.746E+02 -.142E-02   -.489E+02 -.797E+02 0.147E-02   0.294E+01 0.511E+01 -.330E-03
   -.318E+02 0.829E+02 0.175E-01   0.347E+02 -.879E+02 -.186E-01   -.295E+01 0.507E+01 0.121E-02
   0.567E+02 -.683E+02 -.177E-01   -.597E+02 0.733E+02 0.189E-01   0.298E+01 -.505E+01 -.907E-03
   0.875E+02 0.361E+01 -.206E-01   -.934E+02 -.367E+01 0.221E-01   0.590E+01 0.631E-01 -.177E-02
   0.318E+02 -.829E+02 -.228E-01   -.347E+02 0.879E+02 0.244E-01   0.294E+01 -.507E+01 -.171E-02
   -.460E+02 -.746E+02 -.550E-02   0.489E+02 0.797E+02 0.599E-02   -.294E+01 -.511E+01 -.210E-03
   -.875E+02 -.361E+01 0.520E-02   0.934E+02 0.368E+01 -.554E-02   -.590E+01 -.640E-01 0.192E-03
 -----------------------------------------------------------------------------------------------
   -.143E-01 0.237E-02 0.534E-02   0.114E-12 -.311E-13 0.252E-16   0.143E-01 -.235E-02 -.537E-02


 POSITION                                       TOTAL-FORCE (eV/Angst)
 -----------------------------------------------------------------------------------
     10.75943     10.66175      9.99986         0.000163      0.001287      0.000477
     12.13611     10.66289      9.99967         0.002213      0.000766     -0.000239
     12.86236     11.88117      9.99974         0.001277     -0.004102     -0.000364
     12.13744     13.11907     10.00005         0.005570      0.000609      0.000817
     10.71974     13.08188     10.00038        -0.002211      0.000713     -0.001372
     10.04504     11.88190     10.00018         0.004023     -0.001713      0.000877
     14.28022     11.91822      9.99954        -0.001143      0.003484      0.000601
     12.86373     14.33727     10.00022         0.003745      0.001957      0.000257
     14.24050     14.33842     10.00010        -0.003226     -0.001591     -0.000981
     14.95482     13.11832      9.99971         0.001073     -0.001676      0.000441
     14.82925     10.97742      9.99944        -0.001967     -0.003992     -0.000318
     10.21474      9.71991      9.99991        -0.000589     -0.000398     -0.000285
     12.68835      9.72395      9.99945         0.001623     -0.001512      0.000059
     10.17105     14.02285     10.00056        -0.000517      0.003864      0.000329
      8.95724     11.86783     10.00049        -0.004341     -0.000439     -0.000327
     12.31181     15.27634     10.00053        -0.003886      0.002242     -0.000106
     14.78552     15.28009     10.00015        -0.001681      0.000866      0.000287
     16.04276     13.13255      9.99967        -0.000126     -0.000366     -0.000155
 -----------------------------------------------------------------------------------
    total drift:                               -0.000025      0.000015     -0.000036


--------------------------------------------------------------------------------------------------------



  FREE ENERGIE OF THE ION-ELECTRON SYSTEM (eV)
  ---------------------------------------------------
  free  energy   TOTEN  =      -106.51472365 eV

  energy  without entropy=     -106.51472365  energy(sigma->0) =     -106.51472365



--------------------------------------------------------------------------------------------------------


    POTLOK:  cpu time     24.3692: real time     24.3967


--------------------------------------------------------------------------------------------------------


 stress matrix after NEB project (eV)
      0.00000      0.00000      0.00000
      0.00000      0.00000      0.00000
      0.00000      0.00000      0.00000
  FORCES: max atom, RMS     0.005663    0.003487
  FORCE total and by dimension    0.014795    0.005570
  Stress total and by dimension    0.000000    0.000000
     LOOP+:  cpu time   1137.5304: real time   1138.2291
    4ORBIT:  cpu time      0.0000: real time      0.0000

 total amount of memory used by VASP MPI-rank0   129989. kBytes
=======================================================================

   base      :      30000. kBytes
   nonl-proj :       5837. kBytes
   fftplans  :      32103. kBytes
   grid      :      58682. kBytes
   one-center:          1. kBytes
   wavefun   :       3366. kBytes

  
  
 General timing and accounting informations for this job:
 ========================================================
  
                  Total CPU time used (sec):     1164.537
                            User time (sec):     1148.585
                          System time (sec):       15.951
                         Elapsed time (sec):     1173.336
  
                   Maximum memory used (kb):      774528.
                   Average memory used (kb):          N/A
  
                          Minor page faults:       446951
                          Major page faults:          678
                 Voluntary context switches:         7699
