 vasp.6.4.1 05Apr23 (build Jun  6 2023 14:36:51) complex                         
 executed on        HPECrayEX_GCC date 2024.08.20  14:31:12
 running  256 mpi-ranks, with    1 threads/rank, on    2 nodes
 distrk:  each k-point on  128 cores,    2 groups
 distr:  one band on NCORE=  32 cores,    4 groups


--------------------------------------------------------------------------------------------------------


 INCAR:
   ALGO = Conjugate
   KPAR = 2
   NCORE = 32
   ISMEAR = 0
   SIGMA = 0.01
   PREC = Accurate
   EDIFF = 1E-7
   ENCUT = 1000
   ISIF = 0
   METAGGA = SCAN
   LASPH = .TRUE.
   SYMPREC = 1E-7
   LWAVE = .FALSE.
   LCHARGE = .FALSE.

 POTCAR:    PAW_PBE C_h 06Feb2004                 
 POTCAR:    PAW_PBE H_h 06Feb2004                 
 POTCAR:    PAW_PBE O_h 06Feb2004                 
 POTCAR:    PAW_PBE C_h 06Feb2004                 
   VRHFIN =C: s2p2                                                                                  
   LEXCH  = PE                                                                                      
   EATOM  =   147.1560 eV,   10.8157 Ry                                                             
                                                                                                    
   TITEL  = PAW_PBE C_h 06Feb2004                                                                   
   LULTRA =        F    use ultrasoft PP ?                                                          
   IUNSCR =        1    unscreen: 0-lin 1-nonlin 2-no                                               
   RPACOR =    0.800    partial core radius                                                         
   POMASS =   12.011; ZVAL   =    4.000    mass and valenz                                          
   RCORE  =    1.100    outmost cutoff radius                                                       
   RWIGS  =    1.630; RWIGS  =    0.863    wigner-seitz radius (au A)                               
   ENMAX  =  700.000; ENMIN  =  500.000 eV                                                          
   ICORE  =        2    local potential                                                             
   LCOR   =        T    correct aug charges                                                         
   LPAW   =        T    paw PP                                                                      
   EAUG   =  946.768                                                                                
   DEXC   =    0.000                                                                                
   RMAX   =    1.128    core radius for proj-oper                                                   
   RAUG   =    1.300    factor for augmentation sphere                                              
   RDEP   =    1.162    radius for radial grids                                                     
   RDEPT  =    1.088    core radius for aug-charge                                                  
                                                                                                    
   Atomic configuration                                                                             
    4 entries                                                                                       
     n  l   j            E        occ.                                                              
     1  0  0.50      -273.3789   2.0000                                                             
     2  0  0.50       -13.7508   2.0000                                                             
     2  1  0.50        -5.2854   2.0000                                                             
     3  2  1.50        -5.4423   0.0000                                                             
   Description                                                                                      
     l       E           TYP  RCUT    TYP  RCUT                                                     
     0    -13.7508458     23  1.100                                                                 
     0     -8.2022199     23  1.100                                                                 
     1     -5.2854383     23  1.100                                                                 
     1      1.1560700     23  1.100                                                                 
     2     -5.4423304      7  1.100                                                                 
  local pseudopotential read in
  partial core-charges read in
  partial kinetic energy density read in
  atomic valenz-charges read in
  non local Contribution for L=           0  read in
    real space projection operators read in
  non local Contribution for L=           0  read in
    real space projection operators read in
  non local Contribution for L=           1  read in
    real space projection operators read in
  non local Contribution for L=           1  read in
    real space projection operators read in
    PAW grid and wavefunctions read in

   number of l-projection  operators is LMAX  =           4
   number of lm-projection operators is LMMAX =           8

 POTCAR:    PAW_PBE H_h 06Feb2004                 
   VRHFIN =H: ultrasoft test                                                                        
   LEXCH  = PE                                                                                      
   EATOM  =    12.4884 eV,    0.9179 Ry                                                             
                                                                                                    
   TITEL  = PAW_PBE H_h 06Feb2004                                                                   
   LULTRA =        F    use ultrasoft PP ?                                                          
   IUNSCR =        0    unscreen: 0-lin 1-nonlin 2-no                                               
   RPACOR =    0.000    partial core radius                                                         
   POMASS =    1.000; ZVAL   =    1.000    mass and valenz                                          
   RCORE  =    0.800    outmost cutoff radius                                                       
   RWIGS  =    0.700; RWIGS  =    0.370    wigner-seitz radius (au A)                               
   ENMAX  =  700.000; ENMIN  =  350.000 eV                                                          
   RCLOC  =    0.701    cutoff for local pot                                                        
   LCOR   =        T    correct aug charges                                                         
   LPAW   =        T    paw PP                                                                      
   EAUG   = 1000.000                                                                                
   RMAX   =    0.819    core radius for proj-oper                                                   
   RAUG   =    1.000    factor for augmentation sphere                                              
   RDEP   =    0.817    radius for radial grids                                                     
   RDEPT  =    0.817    core radius for aug-charge                                                  
                                                                                                    
   Atomic configuration                                                                             
    2 entries                                                                                       
     n  l   j            E        occ.                                                              
     1  0  0.50        -6.4927   1.0000                                                             
     2  1  0.50        -3.4015   0.0000                                                             
   Description                                                                                      
     l       E           TYP  RCUT    TYP  RCUT                                                     
     0     -6.4927493     23  0.800                                                                 
     0      6.8029130     23  0.800                                                                 
     1     -6.8029130     23  0.800                                                                 
  local pseudopotential read in
  atomic valenz-charges read in
  non local Contribution for L=           0  read in
    real space projection operators read in
  non local Contribution for L=           0  read in
    real space projection operators read in
  non local Contribution for L=           1  read in
    real space projection operators read in
    PAW grid and wavefunctions read in

   number of l-projection  operators is LMAX  =           3
   number of lm-projection operators is LMMAX =           5

 POTCAR:    PAW_PBE O_h 06Feb2004                 
   VRHFIN =O: s2p4                                                                                  
   LEXCH  = PE                                                                                      
   EATOM  =   432.3788 eV,   31.7789 Ry                                                             
                                                                                                    
   TITEL  = PAW_PBE O_h 06Feb2004                                                                   
   LULTRA =        F    use ultrasoft PP ?                                                          
   IUNSCR =        1    unscreen: 0-lin 1-nonlin 2-no                                               
   RPACOR =    0.800    partial core radius                                                         
   POMASS =   16.000; ZVAL   =    6.000    mass and valenz                                          
   RCORE  =    1.100    outmost cutoff radius                                                       
   RWIGS  =    1.400; RWIGS  =    0.741    wigner-seitz radius (au A)                               
   ENMAX  =  700.000; ENMIN  =  500.000 eV                                                          
   ICORE  =        2    local potential                                                             
   LCOR   =        T    correct aug charges                                                         
   LPAW   =        T    paw PP                                                                      
   EAUG   =  888.804                                                                                
   DEXC   =    0.000                                                                                
   RMAX   =    1.128    core radius for proj-oper                                                   
   RAUG   =    1.300    factor for augmentation sphere                                              
   RDEP   =    1.125    radius for radial grids                                                     
   RDEPT  =    1.088    core radius for aug-charge                                                  
                                                                                                    
   Atomic configuration                                                                             
    4 entries                                                                                       
     n  l   j            E        occ.                                                              
     1  0  0.50      -514.6923   2.0000                                                             
     2  0  0.50       -23.9615   2.0000                                                             
     2  1  0.50        -9.0305   4.0000                                                             
     3  2  1.50        -9.5241   0.0000                                                             
   Description                                                                                      
     l       E           TYP  RCUT    TYP  RCUT                                                     
     0    -23.9615319     23  1.100                                                                 
     0    -25.3221145     23  1.100                                                                 
     1     -9.0304911     23  1.100                                                                 
     1     -5.4802209     23  1.100                                                                 
     2     -9.5240782      7  1.100                                                                 
  local pseudopotential read in
  partial core-charges read in
  partial kinetic energy density read in
  atomic valenz-charges read in
  non local Contribution for L=           0  read in
    real space projection operators read in
  non local Contribution for L=           0  read in
    real space projection operators read in
  non local Contribution for L=           1  read in
    real space projection operators read in
  non local Contribution for L=           1  read in
    real space projection operators read in
    PAW grid and wavefunctions read in

   number of l-projection  operators is LMAX  =           4
   number of lm-projection operators is LMMAX =           8

 -----------------------------------------------------------------------------
|                                                                             |
|               ----> ADVICE to this user running VASP <----                  |
|                                                                             |
|     You have a (more or less) 'large supercell' and for larger cells it     |
|     might be more efficient to use real-space projection operators.         |
|     Therefore, try LREAL= Auto in the INCAR file.                           |
|     Mind: For very accurate calculation, you might also keep the            |
|     reciprocal projection scheme (i.e. LREAL=.FALSE.).                      |
|                                                                             |
 -----------------------------------------------------------------------------

  PAW_PBE C_h 06Feb2004                 :
 energy of atom  1       EATOM= -147.1560
 kinetic energy error for atom=    0.0031 (will be added to EATOM!!)
  PAW_PBE H_h 06Feb2004                 :
 energy of atom  2       EATOM=  -12.4884
 kinetic energy error for atom=    0.0006 (will be added to EATOM!!)
  PAW_PBE O_h 06Feb2004                 :
 energy of atom  3       EATOM= -432.3788
 kinetic energy error for atom=    0.0171 (will be added to EATOM!!)


 POSCAR:  C  H  O
  positions in cartesian coordinates
  No initial velocities read in

 METAGGA = SCAN                                        LMAXTAU =  6    LMIXTAU =  F

 exchange correlation table for  LEXCH =        8
   RHO(1)=    0.500       N(1)  =     2000
   RHO(2)=  100.500       N(2)  =     4000

 VTST: version 4.1, (05/19/21)

 CHAIN: initializing optimizer
 
 OPT: Using VASP Dynamics algorithm
 CHAIN: Read ICHAIN            0

 POSCAR:  C  H  O
  positions in cartesian coordinates
  No initial velocities read in



--------------------------------------------------------------------------------------------------------


 ion  position               nearest neighbor table
   1  0.335  0.701  0.210-  29 1.24  25 1.33   5 1.50
   2  0.665  0.299  0.710-  30 1.24  26 1.33   6 1.50
   3  0.835  0.799  0.210-  31 1.24  27 1.33   7 1.50
   4  0.165  0.201  0.710-  32 1.24  28 1.33   8 1.50
   5  0.410  0.618  0.397-  13 1.09  21 1.10  17 1.10   1 1.50
   6  0.590  0.382  0.897-  14 1.09  22 1.10  18 1.10   2 1.50
   7  0.910  0.882  0.397-  15 1.09  23 1.10  19 1.10   3 1.50
   8  0.090  0.118  0.897-  16 1.09  24 1.10  20 1.10   4 1.50
   9  0.319  0.950  0.921-  25 1.02
  10  0.681  0.050  0.421-  26 1.02
  11  0.819  0.550  0.921-  27 1.02
  12  0.181  0.450  0.421-  28 1.02
  13  0.374  0.478  0.537-   5 1.09
  14  0.626  0.522  0.037-   6 1.09
  15  0.874  0.022  0.537-   7 1.09
  16  0.126  0.978  0.037-   8 1.09
  17  0.472  0.463  0.323-   5 1.10
  18  0.528  0.537  0.823-   6 1.10
  19  0.972  0.037  0.323-   7 1.10
  20  0.028  0.963  0.823-   8 1.10
  21  0.445  0.853  0.463-   5 1.10
  22  0.555  0.147  0.963-   6 1.10
  23  0.945  0.647  0.463-   7 1.10
  24  0.055  0.353  0.963-   8 1.10
  25  0.373  0.892  0.041-   9 1.02   1 1.33
  26  0.627  0.108  0.541-  10 1.02   2 1.33
  27  0.873  0.608  0.041-  11 1.02   3 1.33
  28  0.127  0.392  0.541-  12 1.02   4 1.33
  29  0.246  0.603  0.207-   1 1.24
  30  0.754  0.397  0.707-   2 1.24
  31  0.746  0.897  0.207-   3 1.24
  32  0.254  0.103  0.707-   4 1.24

  LATTYP: Found a simple orthorhombic cell.
 ALAT       =     3.9230000000
 B/A-ratio  =     1.4687738975
 C/A-ratio  =     3.3522814173
  
  Lattice vectors:
  
 A1 = (   0.0000000000,   3.9230000000,   0.0000000000)
 A2 = (   0.0000000000,   0.0000000000,   5.7620000000)
 A3 = (  13.1510000000,   0.0000000000,   0.0000000000)


Analysis of symmetry for initial positions (statically):
=====================================================================
 Subroutine PRICEL returns:
 Original cell was already a primitive cell.
 

 Routine SETGRP: Setting up the symmetry group for a 
 simple orthorhombic supercell.


 Subroutine GETGRP returns: Found  1 space group operations
 (whereof  1 operations were pure point group operations)
 out of a pool of  8 trial point group operations.


The static configuration has the point symmetry C_1 .


Analysis of symmetry for dynamics (positions and initial velocities):
=====================================================================
 Subroutine PRICEL returns:
 Original cell was already a primitive cell.
 

 Routine SETGRP: Setting up the symmetry group for a 
 simple orthorhombic supercell.


 Subroutine GETGRP returns: Found  1 space group operations
 (whereof  1 operations were pure point group operations)
 out of a pool of  8 trial point group operations.


The dynamic configuration has the point symmetry C_1 .


 Subroutine INISYM returns: Found  1 space group operations
 (whereof  1 operations are pure point group operations),
 and found     1 'primitive' translations


----------------------------------------------------------------------------------------

                                     Primitive cell                                     

  volume of cell :     297.2695

  direct lattice vectors                    reciprocal lattice vectors
    13.151000000  0.000000000  0.000000000     0.076039845  0.000000000  0.000000000
     0.000000000  3.923000000  0.000000000     0.000000000  0.254906959  0.000000000
     0.000000000  0.000000000  5.762000000     0.000000000  0.000000000  0.173550850

  length of vectors
    13.151000000  3.923000000  5.762000000     0.076039845  0.254906959  0.173550850

  position of ions in fractional coordinates (direct lattice)
     0.335139468  0.700773952  0.210281737
     0.664859950  0.299233687  0.710278800
     0.835142865  0.799211358  0.210291404
     0.164856981  0.200793332  0.710294207
     0.410482843  0.618160145  0.397004640
     0.589516819  0.381843035  0.897002966
     0.910487574  0.881832525  0.397011148
     0.089512029  0.118168750  0.897013049
     0.318950911  0.950286228  0.921315749
     0.681048848  0.049722583  0.421312328
     0.818954387  0.549698061  0.921325723
     0.181045217  0.450309446  0.421329289
     0.373572224  0.477896288  0.537460486
     0.626427324  0.522105962  0.037459458
     0.873576161  0.022099413  0.537464262
     0.126423311  0.977900587  0.037465791
     0.471942695  0.462943991  0.322800863
     0.528056332  0.537059018  0.822801341
     0.971945614  0.037051373  0.322803590
     0.028054386  0.962950772  0.822803444
     0.445413079  0.853022784  0.462530220
     0.554587329  0.146978517  0.962527386
     0.945417129  0.646973830  0.462538864
     0.054581773  0.353026861  0.962540542
     0.373296544  0.891681796  0.040910960
     0.626703304  0.108324721  0.540907880
     0.873298288  0.608283993  0.040927301
     0.126701258  0.391719552  0.540929912
     0.245731596  0.602523554  0.207069927
     0.754267558  0.397488124  0.707066019
     0.745736459  0.897475016  0.207073207
     0.254263551  0.102533154  0.707077198

  ion indices of the primitive-cell ions
   primitive index   ion index
                 1           1
                 2           2
                 3           3
                 4           4
                 5           5
                 6           6
                 7           7
                 8           8
                 9           9
                10          10
                11          11
                12          12
                13          13
                14          14
                15          15
                16          16
                17          17
                18          18
                19          19
                20          20
                21          21
                22          22
                23          23
                24          24
                25          25
                26          26
                27          27
                28          28
                29          29
                30          30
                31          31
                32          32

----------------------------------------------------------------------------------------



 KPOINTS: auto                                    

Automatic generation of k-mesh.
 Grid dimensions read from file:
 generate k-points for:    2    7    5

 Generating k-lattice:

  Cartesian coordinates                     Fractional coordinates (reciprocal lattice)
     0.038019922  0.000000000  0.000000000     0.500000000  0.000000000  0.000000000
     0.000000000  0.036415280  0.000000000     0.000000000  0.142857143  0.000000000
     0.000000000  0.000000000  0.034710170     0.000000000  0.000000000  0.200000000

  Length of vectors
     0.038019922  0.036415280  0.034710170

  Shift w.r.t. Gamma in fractional coordinates (k-lattice)
     0.000000000  0.000000000  0.000000000

 
 Subroutine IBZKPT returns following result:
 ===========================================
 
 Found     36 irreducible k-points:
 
 Following reciprocal coordinates:
            Coordinates               Weight
  0.000000  0.000000  0.000000      1.000000
  0.500000  0.000000  0.000000      1.000000
  0.000000  0.142857  0.000000      2.000000
  0.500000  0.142857  0.000000      2.000000
  0.000000  0.285714  0.000000      2.000000
  0.500000  0.285714  0.000000      2.000000
  0.000000  0.428571  0.000000      2.000000
  0.500000  0.428571  0.000000      2.000000
  0.000000  0.000000  0.200000      2.000000
  0.500000  0.000000  0.200000      2.000000
  0.000000  0.142857  0.200000      2.000000
  0.000000  0.142857 -0.200000      2.000000
  0.500000  0.142857  0.200000      2.000000
  0.500000  0.142857 -0.200000      2.000000
  0.000000  0.285714  0.200000      2.000000
  0.000000  0.285714 -0.200000      2.000000
  0.500000  0.285714  0.200000      2.000000
  0.500000  0.285714 -0.200000      2.000000
  0.000000  0.428571  0.200000      2.000000
  0.000000  0.428571 -0.200000      2.000000
  0.500000  0.428571  0.200000      2.000000
  0.500000  0.428571 -0.200000      2.000000
  0.000000  0.000000  0.400000      2.000000
  0.500000  0.000000  0.400000      2.000000
  0.000000  0.142857  0.400000      2.000000
  0.000000  0.142857 -0.400000      2.000000
  0.500000  0.142857  0.400000      2.000000
  0.500000  0.142857 -0.400000      2.000000
  0.000000  0.285714  0.400000      2.000000
  0.000000  0.285714 -0.400000      2.000000
  0.500000  0.285714  0.400000      2.000000
  0.500000  0.285714 -0.400000      2.000000
  0.000000  0.428571  0.400000      2.000000
  0.000000  0.428571 -0.400000      2.000000
  0.500000  0.428571  0.400000      2.000000
  0.500000  0.428571 -0.400000      2.000000
 
 Following cartesian coordinates:
            Coordinates               Weight
  0.000000  0.000000  0.000000      1.000000
  0.038020  0.000000  0.000000      1.000000
  0.000000  0.036415  0.000000      2.000000
  0.038020  0.036415  0.000000      2.000000
  0.000000  0.072831  0.000000      2.000000
  0.038020  0.072831  0.000000      2.000000
  0.000000  0.109246  0.000000      2.000000
  0.038020  0.109246  0.000000      2.000000
  0.000000  0.000000  0.034710      2.000000
  0.038020  0.000000  0.034710      2.000000
  0.000000  0.036415  0.034710      2.000000
  0.000000  0.036415 -0.034710      2.000000
  0.038020  0.036415  0.034710      2.000000
  0.038020  0.036415 -0.034710      2.000000
  0.000000  0.072831  0.034710      2.000000
  0.000000  0.072831 -0.034710      2.000000
  0.038020  0.072831  0.034710      2.000000
  0.038020  0.072831 -0.034710      2.000000
  0.000000  0.109246  0.034710      2.000000
  0.000000  0.109246 -0.034710      2.000000
  0.038020  0.109246  0.034710      2.000000
  0.038020  0.109246 -0.034710      2.000000
  0.000000  0.000000  0.069420      2.000000
  0.038020  0.000000  0.069420      2.000000
  0.000000  0.036415  0.069420      2.000000
  0.000000  0.036415 -0.069420      2.000000
  0.038020  0.036415  0.069420      2.000000
  0.038020  0.036415 -0.069420      2.000000
  0.000000  0.072831  0.069420      2.000000
  0.000000  0.072831 -0.069420      2.000000
  0.038020  0.072831  0.069420      2.000000
  0.038020  0.072831 -0.069420      2.000000
  0.000000  0.109246  0.069420      2.000000
  0.000000  0.109246 -0.069420      2.000000
  0.038020  0.109246  0.069420      2.000000
  0.038020  0.109246 -0.069420      2.000000
 


--------------------------------------------------------------------------------------------------------




 Dimension of arrays:
   k-points           NKPTS =     36   k-points in BZ     NKDIM =     36   number of bands    NBANDS=     68
   number of dos      NEDOS =    301   number of ions     NIONS =     32
   non local maximal  LDIM  =      4   non local SUM 2l+1 LMDIM =      8
   total plane-waves  NPLWV = 336000
   max r-space proj   IRMAX =      1   max aug-charges    IRDMAX=   8442
   dimension x,y,z NGX =   140 NGY =   40 NGZ =   60
   dimension x,y,z NGXF=   280 NGYF=   80 NGZF=  120
   support grid    NGXF=   280 NGYF=   80 NGZF=  120
   ions per type =               8  16   8
   NGX,Y,Z   is equivalent  to a cutoff of  17.70, 16.95, 17.31 a.u.
   NGXF,Y,Z  is equivalent  to a cutoff of  35.40, 33.90, 34.62 a.u.

 SYSTEM =  unknown system                          
 POSCAR =   C  H  O                                

 Startparameter for this run:
   NWRITE =      2    write-flag & timer
   PREC   = accura    normal or accurate (medium, high low for compatibility)
   ISTART =      0    job   : 0-new  1-cont  2-samecut
   ICHARG =      2    charge: 1-file 2-atom 10-const
   ISPIN  =      1    spin polarized calculation?
   LNONCOLLINEAR =      F non collinear calculations
   LSORBIT =      F    spin-orbit coupling
   INIWAV =      1    electr: 0-lowe 1-rand  2-diag
   LASPH  =      T    aspherical Exc in radial PAW
 Electronic Relaxation 1
   ENCUT  = 1000.0 eV  73.50 Ry    8.57 a.u.  33.91 10.12 14.86*2*pi/ulx,y,z
   ENINI  = 1000.0     initial cutoff
   ENAUG  = 1000.0 eV  augmentation charge cutoff
   NELM   =     60;   NELMIN=  2; NELMDL= -5     # of ELM steps 
   EDIFF  = 0.1E-06   stopping-criterion for ELM
   LREAL  =      F    real-space projection
   NLSPLINE    = F    spline interpolate recip. space projectors
   LCOMPAT=      F    compatible to vasp.4.4
   GGA_COMPAT  = T    GGA compatible to vasp.4.4-vasp.4.6
   LMAXPAW     = -100 max onsite density
   LMAXMIX     =    2 max onsite mixed and CHGCAR
   VOSKOWN=      0    Vosko Wilk Nusair interpolation
   ROPT   =    0.00000   0.00000   0.00000
 Ionic relaxation
   EDIFFG = 0.1E-05   stopping-criterion for IOM
   NSW    =      0    number of steps for IOM
   NBLOCK =      1;   KBLOCK =      1    inner block; outer block 
   IBRION =     -1    ionic relax: 0-MD 1-quasi-New 2-CG
   NFREE  =      0    steps in history (QN), initial steepest desc. (CG)
   ISIF   =      0    stress and relaxation
   IWAVPR =     10    prediction:  0-non 1-charg 2-wave 3-comb
   ISYM   =      2    0-nonsym 1-usesym 2-fastsym
   LCORR  =      T    Harris-Foulkes like correction to forces

   POTIM  = 0.5000    time-step for ionic-motion
   TEIN   =    0.0    initial temperature
   TEBEG  =    0.0;   TEEND  =   0.0 temperature during run
   SMASS  =  -3.00    Nose mass-parameter (am)
   estimated Nose-frequenzy (Omega)   =  0.10E-29 period in steps = 0.13E+47 mass=  -0.395E-26a.u.
   SCALEE = 1.0000    scale energy and forces
   NPACO  =    256;   APACO  = 10.0  distance and # of slots for P.C.
   PSTRESS=    0.0 pullay stress

  Mass of Ions in am
   POMASS =  12.01  1.00 16.00
  Ionic Valenz
   ZVAL   =   4.00  1.00  6.00
  Atomic Wigner-Seitz radii
   RWIGS  =  -1.00 -1.00 -1.00
  virtual crystal weights 
   VCA    =   1.00  1.00  1.00
   NELECT =      96.0000    total number of electrons
   NUPDOWN=      -1.0000    fix difference up-down

 DOS related values:
   EMIN   =  10.00;   EMAX   =-10.00  energy-range for DOS
   EFERMI =   0.00;   METHOD = LEGACY      
   ISMEAR =     0;   SIGMA  =   0.01  broadening in eV -4-tet -1-fermi 0-gaus

 Electronic relaxation 2 (details)
   IALGO  =     58    algorithm
   LDIAG  =      T    sub-space diagonalisation (order eigenvalues)
   LSUBROT=      F    optimize rotation matrix (better conditioning)
   TURBO    =      0    0=normal 1=particle mesh
   IRESTART =      0    0=no restart 2=restart with 2 vectors
   NREBOOT  =      0    no. of reboots
   NMIN     =      0    reboot dimension
   EREF     =   0.00    reference energy to select bands
   IMIX   =      4    mixing-type and parameters
     AMIX     =   0.40;   BMIX     =  1.00
     AMIX_MAG =   1.60;   BMIX_MAG =  1.00
     AMIN     =   0.10
     WC   =   100.;   INIMIX=   1;  MIXPRE=   1;  MAXMIX= -45

 Intra band minimization:
   WEIMIN = 0.0000     energy-eigenvalue tresh-hold
   EBREAK =  0.37E-09  absolut break condition
   DEPER  =   0.30     relativ break condition  

   TIME   =   0.40     timestep for ELM

  volume/ion in A,a.u.               =       9.29        62.69
  Fermi-wavevector in a.u.,A,eV,Ry     =   1.123178  2.122498 17.164132  1.261528
  Thomas-Fermi vector in A             =   2.259842

 Write flags
   LWAVE        =      F    write WAVECAR
   LDOWNSAMPLE  =      F    k-point downsampling of WAVECAR
   LCHARG       =      T    write CHGCAR
   LVTOT        =      F    write LOCPOT, total local potential
   LVHAR        =      F    write LOCPOT, Hartree potential only
   LELF         =      F    write electronic localiz. function (ELF)
   LORBIT       =      0    0 simple, 1 ext, 2 COOP (PROOUT), +10 PAW based schemes


 Dipole corrections
   LMONO  =      F    monopole corrections only (constant potential shift)
   LDIPOL =      F    correct potential (dipole corrections)
   IDIPOL =      0    1-x, 2-y, 3-z, 4-all directions 
   EPSILON=  1.0000000 bulk dielectric constant

 Exchange correlation treatment:
   GGA     =    --    GGA type
   LEXCH   =     8    internal setting for exchange type
   LIBXC   =     F    Libxc                    
   VOSKOWN =     0    Vosko Wilk Nusair interpolation
   LHFCALC =     F    Hartree Fock is set to
   LHFONE  =     F    Hartree Fock one center treatment
   AEXX    =    0.0000 exact exchange contribution

 Linear response parameters
   LEPSILON=     F    determine dielectric tensor
   LRPA    =     F    only Hartree local field effects (RPA)
   LNABLA  =     F    use nabla operator in PAW spheres
   LVEL    =     F    velocity operator in full k-point grid
   CSHIFT  =0.1000    complex shift for real part using Kramers Kronig
   OMEGAMAX=  -1.0    maximum frequency
   DEG_THRESHOLD= 0.2000000E-02 threshold for treating states as degnerate
   RTIME   =   -0.100 relaxation time in fs
  (WPLASMAI=    0.000 imaginary part of plasma frequency in eV, 0.658/RTIME)
   DFIELD  = 0.0000000 0.0000000 0.0000000 field for delta impulse in time

  Optional k-point grid parameters
   LKPOINTS_OPT  =     F    use optional k-point grid
   KPOINTS_OPT_MODE=     1    mode for optional k-point grid

 Orbital magnetization related:
   ORBITALMAG=     F  switch on orbital magnetization
   LCHIMAG   =     F  perturbation theory with respect to B field
   DQ        =  0.001000  dq finite difference perturbation B field
   LLRAUG    =     F  two centre corrections for induced B field
   LBONE     =     F  B-component reconstruction in AE one-centre
   LVGVCALC  =     T  calculate vGv susceptibility
   LVGVAPPL  =     F  apply vGv susceptibility instead of pGv for G=0

 Random number generation:
   RANDOM_GENERATOR = DEFAULT
   PCG_SEED         = not used


--------------------------------------------------------------------------------------------------------


 Static calculation
 charge density and potential will be updated during run
 non-spin polarized calculation
 Conjugate gradient for all bands (Freysoldt, et al. PRB 79, 241103 (2009))
 preconditioned conjugated gradient                                        
 perform sub-space diagonalisation
    before iterative eigenvector-optimisation
 modified Broyden-mixing scheme, WC =      100.0
 initial mixing is a Kerker type mixing with AMIX =  0.4000 and BMIX =      1.0000
 Hartree-type preconditioning will be used
 using additional bands           20
 reciprocal scheme for non local part
 use partial core corrections
 no Harris-corrections to forces 
 use gradient corrections 
 use of overlap-Matrix (Vanderbilt PP)
 Gauss-broadening in eV      SIGMA  =   0.01


--------------------------------------------------------------------------------------------------------


  energy-cutoff  :     1000.00
  volume of cell :      297.27
      direct lattice vectors                 reciprocal lattice vectors
    13.151000000  0.000000000  0.000000000     0.076039845  0.000000000  0.000000000
     0.000000000  3.923000000  0.000000000     0.000000000  0.254906959  0.000000000
     0.000000000  0.000000000  5.762000000     0.000000000  0.000000000  0.173550850

  length of vectors
    13.151000000  3.923000000  5.762000000     0.076039845  0.254906959  0.173550850



 k-points in units of 2pi/SCALE and weight: auto                                    
   0.00000000  0.00000000  0.00000000       0.014
   0.03801992  0.00000000  0.00000000       0.014
   0.00000000  0.03641528  0.00000000       0.029
   0.03801992  0.03641528  0.00000000       0.029
   0.00000000  0.07283056  0.00000000       0.029
   0.03801992  0.07283056  0.00000000       0.029
   0.00000000  0.10924584  0.00000000       0.029
   0.03801992  0.10924584  0.00000000       0.029
   0.00000000  0.00000000  0.03471017       0.029
   0.03801992  0.00000000  0.03471017       0.029
   0.00000000  0.03641528  0.03471017       0.029
   0.00000000  0.03641528 -0.03471017       0.029
   0.03801992  0.03641528  0.03471017       0.029
   0.03801992  0.03641528 -0.03471017       0.029
   0.00000000  0.07283056  0.03471017       0.029
   0.00000000  0.07283056 -0.03471017       0.029
   0.03801992  0.07283056  0.03471017       0.029
   0.03801992  0.07283056 -0.03471017       0.029
   0.00000000  0.10924584  0.03471017       0.029
   0.00000000  0.10924584 -0.03471017       0.029
   0.03801992  0.10924584  0.03471017       0.029
   0.03801992  0.10924584 -0.03471017       0.029
   0.00000000  0.00000000  0.06942034       0.029
   0.03801992  0.00000000  0.06942034       0.029
   0.00000000  0.03641528  0.06942034       0.029
   0.00000000  0.03641528 -0.06942034       0.029
   0.03801992  0.03641528  0.06942034       0.029
   0.03801992  0.03641528 -0.06942034       0.029
   0.00000000  0.07283056  0.06942034       0.029
   0.00000000  0.07283056 -0.06942034       0.029
   0.03801992  0.07283056  0.06942034       0.029
   0.03801992  0.07283056 -0.06942034       0.029
   0.00000000  0.10924584  0.06942034       0.029
   0.00000000  0.10924584 -0.06942034       0.029
   0.03801992  0.10924584  0.06942034       0.029
   0.03801992  0.10924584 -0.06942034       0.029

 k-points in reciprocal lattice and weights: auto                                    
   0.00000000  0.00000000  0.00000000       0.014
   0.50000000  0.00000000  0.00000000       0.014
   0.00000000  0.14285714  0.00000000       0.029
   0.50000000  0.14285714  0.00000000       0.029
   0.00000000  0.28571429  0.00000000       0.029
   0.50000000  0.28571429  0.00000000       0.029
   0.00000000  0.42857143  0.00000000       0.029
   0.50000000  0.42857143  0.00000000       0.029
   0.00000000  0.00000000  0.20000000       0.029
   0.50000000  0.00000000  0.20000000       0.029
   0.00000000  0.14285714  0.20000000       0.029
   0.00000000  0.14285714 -0.20000000       0.029
   0.50000000  0.14285714  0.20000000       0.029
   0.50000000  0.14285714 -0.20000000       0.029
   0.00000000  0.28571429  0.20000000       0.029
   0.00000000  0.28571429 -0.20000000       0.029
   0.50000000  0.28571429  0.20000000       0.029
   0.50000000  0.28571429 -0.20000000       0.029
   0.00000000  0.42857143  0.20000000       0.029
   0.00000000  0.42857143 -0.20000000       0.029
   0.50000000  0.42857143  0.20000000       0.029
   0.50000000  0.42857143 -0.20000000       0.029
   0.00000000  0.00000000  0.40000000       0.029
   0.50000000  0.00000000  0.40000000       0.029
   0.00000000  0.14285714  0.40000000       0.029
   0.00000000  0.14285714 -0.40000000       0.029
   0.50000000  0.14285714  0.40000000       0.029
   0.50000000  0.14285714 -0.40000000       0.029
   0.00000000  0.28571429  0.40000000       0.029
   0.00000000  0.28571429 -0.40000000       0.029
   0.50000000  0.28571429  0.40000000       0.029
   0.50000000  0.28571429 -0.40000000       0.029
   0.00000000  0.42857143  0.40000000       0.029
   0.00000000  0.42857143 -0.40000000       0.029
   0.50000000  0.42857143  0.40000000       0.029
   0.50000000  0.42857143 -0.40000000       0.029

 position of ions in fractional coordinates (direct lattice) 
   0.33513947  0.70077395  0.21028174
   0.66485995  0.29923369  0.71027880
   0.83514287  0.79921136  0.21029140
   0.16485698  0.20079333  0.71029421
   0.41048284  0.61816014  0.39700464
   0.58951682  0.38184304  0.89700297
   0.91048757  0.88183252  0.39701115
   0.08951203  0.11816875  0.89701305
   0.31895091  0.95028623  0.92131575
   0.68104885  0.04972258  0.42131233
   0.81895439  0.54969806  0.92132572
   0.18104522  0.45030945  0.42132929
   0.37357222  0.47789629  0.53746049
   0.62642732  0.52210596  0.03745946
   0.87357616  0.02209941  0.53746426
   0.12642331  0.97790059  0.03746579
   0.47194269  0.46294399  0.32280086
   0.52805633  0.53705902  0.82280134
   0.97194561  0.03705137  0.32280359
   0.02805439  0.96295077  0.82280344
   0.44541308  0.85302278  0.46253022
   0.55458733  0.14697852  0.96252739
   0.94541713  0.64697383  0.46253886
   0.05458177  0.35302686  0.96254054
   0.37329654  0.89168180  0.04091096
   0.62670330  0.10832472  0.54090788
   0.87329829  0.60828399  0.04092730
   0.12670126  0.39171955  0.54092991
   0.24573160  0.60252355  0.20706993
   0.75426756  0.39748812  0.70706602
   0.74573646  0.89747502  0.20707321
   0.25426355  0.10253315  0.70707720

 position of ions in cartesian coordinates  (Angst):
   4.40741914  2.74913621  1.21164337
   8.74357321  1.17389375  4.09262644
  10.98296382  3.13530616  1.21169907
   2.16803416  0.78771224  4.09271522
   5.39825986  2.42504225  2.28754074
   7.75273569  1.49797023  5.16853109
  11.97382209  3.45942900  2.28757823
   1.17717269  0.46357601  5.16858919
   4.19452344  3.72797287  5.30862135
   8.95647340  0.19506169  2.42760164
  10.77006915  2.15646549  5.30867882
   2.38092565  1.76656395  2.42769936
   4.91284832  1.87478714  3.09684732
   8.23814574  2.04822169  0.21584139
  11.48840010  0.08669600  3.09686908
   1.66259297  3.83630400  0.21587789
   6.20651838  1.81612928  1.85997857
   6.94446882  2.10688253  4.74098133
  12.78205678  0.14535254  1.85999429
   0.36894322  3.77765588  4.74099344
   5.85762740  3.34640838  2.66509913
   7.29337796  0.57659672  5.54608280
  12.43318067  2.53807833  2.66514894
   0.71780489  1.38492438  5.54615861
   4.90922284  3.49806769  0.23572895
   8.24177516  0.42495788  3.11671120
  11.48474579  2.38629810  0.23582311
   1.66624824  1.53671580  3.11683815
   3.23161621  2.36369990  1.19313692
   9.91937265  1.55934591  4.07411440
   9.80718018  3.52079449  1.19315582
   3.34381995  0.40223756  4.07417882



--------------------------------------------------------------------------------------------------------


 k-point   1 :   0.0000 0.0000 0.0000  plane waves:   21287
 k-point   2 :   0.5000 0.0000 0.0000  plane waves:   21272
 k-point   3 :   0.0000 0.1429 0.0000  plane waves:   21304
 k-point   4 :   0.5000 0.1429 0.0000  plane waves:   21332
 k-point   5 :   0.0000 0.2857 0.0000  plane waves:   21316
 k-point   6 :   0.5000 0.2857 0.0000  plane waves:   21374
 k-point   7 :   0.0000 0.4286 0.0000  plane waves:   21354
 k-point   8 :   0.5000 0.4286 0.0000  plane waves:   21370
 k-point   9 :   0.0000 0.0000 0.2000  plane waves:   21292
 k-point  10 :   0.5000 0.0000 0.2000  plane waves:   21294
 k-point  11 :   0.0000 0.1429 0.2000  plane waves:   21323
 k-point  12 :   0.0000 0.1429-0.2000  plane waves:   21323
 k-point  13 :   0.5000 0.1429 0.2000  plane waves:   21314
 k-point  14 :   0.5000 0.1429-0.2000  plane waves:   21314
 k-point  15 :   0.0000 0.2857 0.2000  plane waves:   21354
 k-point  16 :   0.0000 0.2857-0.2000  plane waves:   21354
 k-point  17 :   0.5000 0.2857 0.2000  plane waves:   21334
 k-point  18 :   0.5000 0.2857-0.2000  plane waves:   21334
 k-point  19 :   0.0000 0.4286 0.2000  plane waves:   21374
 k-point  20 :   0.0000 0.4286-0.2000  plane waves:   21374
 k-point  21 :   0.5000 0.4286 0.2000  plane waves:   21390
 k-point  22 :   0.5000 0.4286-0.2000  plane waves:   21390
 k-point  23 :   0.0000 0.0000 0.4000  plane waves:   21366
 k-point  24 :   0.5000 0.0000 0.4000  plane waves:   21338
 k-point  25 :   0.0000 0.1429 0.4000  plane waves:   21323
 k-point  26 :   0.0000 0.1429-0.4000  plane waves:   21323
 k-point  27 :   0.5000 0.1429 0.4000  plane waves:   21330
 k-point  28 :   0.5000 0.1429-0.4000  plane waves:   21330
 k-point  29 :   0.0000 0.2857 0.4000  plane waves:   21338
 k-point  30 :   0.0000 0.2857-0.4000  plane waves:   21338
 k-point  31 :   0.5000 0.2857 0.4000  plane waves:   21356
 k-point  32 :   0.5000 0.2857-0.4000  plane waves:   21356
 k-point  33 :   0.0000 0.4286 0.4000  plane waves:   21358
 k-point  34 :   0.0000 0.4286-0.4000  plane waves:   21358
 k-point  35 :   0.5000 0.4286 0.4000  plane waves:   21352
 k-point  36 :   0.5000 0.4286-0.4000  plane waves:   21352

 maximum and minimum number of plane-waves per node :       726      610

 maximum number of plane-waves:     21390
 maximum index in each direction: 
   IXMAX=   33   IYMAX=   10   IZMAX=   15
   IXMIN=  -34   IYMIN=  -10   IZMIN=  -15


 parallel 3D FFT for wavefunctions:
    minimum data exchange during FFTs selected (reduces bandwidth)
 parallel 3D FFT for charge:
    minimum data exchange during FFTs selected (reduces bandwidth)


 total amount of memory used by VASP MPI-rank0    61309. kBytes
=======================================================================

   base      :      30000. kBytes
   nonl-proj :       5404. kBytes
   fftplans  :       1317. kBytes
   grid      :       2967. kBytes
   one-center:          3. kBytes
   wavefun   :      21618. kBytes

     INWAV:  cpu time      0.0017: real time      0.0018
 Broyden mixing: mesh for mixing (old mesh)
   NGX = 67   NGY = 21   NGZ = 29
  (NGX  =280   NGY  = 80   NGZ  =120)
  gives a total of  40803 points

 initial charge density was supplied:
 charge density of overlapping atoms calculated
 number of electron      96.0000000 magnetization 
 keeping initial charge density in first step


--------------------------------------------------------------------------------------------------------


 Maximum index for augmentation-charges          442 (set IRDMAX)


--------------------------------------------------------------------------------------------------------


 First call to EWALD:  gamma=   0.266
 Maximum number of real-space cells 2x 4x 3
 Maximum number of reciprocal cells 5x 2x 2

    FEWALD:  cpu time      0.0023: real time      0.0023


--------------------------------------- Ionic step        1  -------------------------------------------




--------------------------------------- Iteration      1(   1)  ---------------------------------------


    POTLOK:  cpu time      0.1012: real time      0.1032
    SETDIJ:  cpu time      0.3073: real time      0.3082
    TRIAL :  cpu time      3.0620: real time      3.0664
    CORREC:  cpu time      0.0019: real time      0.0023
    --------------------------------------------
      LOOP:  cpu time      3.4820: real time      3.4899

 eigenvalue-minimisations  :  4896
 total energy-change (2. order) : 0.8353046E+03  (-0.7356370E+04)
 number of electron      96.0000000 magnetization 
 augmentation part       96.0000000 magnetization 

 Free energy of the ion-electron system (eV)
  ---------------------------------------------------
  alpha Z        PSCENC =        88.10770154
  Ewald energy   TEWEN  =     -2268.65530227
  -Hartree energ DENC   =     -2118.41104658
  -exchange      EXHF   =         0.00000000
  -V(xc)+E(xc)   XCENC  =       385.17107307
  PAW double counting   =      3622.04838948    -3627.89447497
  entropy T*S    EENTRO =        -0.00017536
  eigenvalues    EBANDS =       -80.98314842
  atomic energy  EATOM  =      4835.92162954
  ---------------------------------------------------
  free energy    TOTEN  =       835.30464603 eV

  energy without entropy =      835.30482138  energy(sigma->0) =      835.30473370


--------------------------------------------------------------------------------------------------------




--------------------------------------- Iteration      1(   2)  ---------------------------------------


    TRIAL :  cpu time      3.5264: real time      3.5275
    CORREC:  cpu time      0.0004: real time      0.0004
    --------------------------------------------
      LOOP:  cpu time      3.5394: real time      3.5574

 eigenvalue-minimisations  :  6540
 total energy-change (2. order) :-0.9277943E+03  (-0.8682335E+03)
 number of electron      96.0000000 magnetization 
 augmentation part       96.0000000 magnetization 

 Free energy of the ion-electron system (eV)
  ---------------------------------------------------
  alpha Z        PSCENC =        88.10770154
  Ewald energy   TEWEN  =     -2268.65530227
  -Hartree energ DENC   =     -2118.41104658
  -exchange      EXHF   =         0.00000000
  -V(xc)+E(xc)   XCENC  =       385.17107307
  PAW double counting   =      3622.04838948    -3627.89447497
  entropy T*S    EENTRO =        -0.00000000
  eigenvalues    EBANDS =     -1008.77766070
  atomic energy  EATOM  =      4835.92162954
  ---------------------------------------------------
  free energy    TOTEN  =       -92.48969089 eV

  energy without entropy =      -92.48969089  energy(sigma->0) =      -92.48969089


--------------------------------------------------------------------------------------------------------




--------------------------------------- Iteration      1(   3)  ---------------------------------------


    TRIAL :  cpu time      3.3637: real time      3.3652
    CORREC:  cpu time      0.0004: real time      0.0004
    --------------------------------------------
      LOOP:  cpu time      3.3783: real time      3.3950

 eigenvalue-minimisations  :  6032
 total energy-change (2. order) :-0.1563670E+03  (-0.1541476E+03)
 number of electron      96.0000000 magnetization 
 augmentation part       96.0000000 magnetization 

 Free energy of the ion-electron system (eV)
  ---------------------------------------------------
  alpha Z        PSCENC =        88.10770154
  Ewald energy   TEWEN  =     -2268.65530227
  -Hartree energ DENC   =     -2118.41104658
  -exchange      EXHF   =         0.00000000
  -V(xc)+E(xc)   XCENC  =       385.17107307
  PAW double counting   =      3622.04838948    -3627.89447497
  entropy T*S    EENTRO =        -0.00000000
  eigenvalues    EBANDS =     -1165.14463277
  atomic energy  EATOM  =      4835.92162954
  ---------------------------------------------------
  free energy    TOTEN  =      -248.85666296 eV

  energy without entropy =     -248.85666296  energy(sigma->0) =     -248.85666296


--------------------------------------------------------------------------------------------------------




--------------------------------------- Iteration      1(   4)  ---------------------------------------


    TRIAL :  cpu time      3.3474: real time      3.3489
    CORREC:  cpu time      0.0004: real time      0.0004
    --------------------------------------------
      LOOP:  cpu time      3.3772: real time      3.3788

 eigenvalue-minimisations  :  6048
 total energy-change (2. order) :-0.5734960E+01  (-0.5707477E+01)
 number of electron      96.0000000 magnetization 
 augmentation part       96.0000000 magnetization 

 Free energy of the ion-electron system (eV)
  ---------------------------------------------------
  alpha Z        PSCENC =        88.10770154
  Ewald energy   TEWEN  =     -2268.65530227
  -Hartree energ DENC   =     -2118.41104658
  -exchange      EXHF   =         0.00000000
  -V(xc)+E(xc)   XCENC  =       385.17107307
  PAW double counting   =      3622.04838948    -3627.89447497
  entropy T*S    EENTRO =        -0.00000000
  eigenvalues    EBANDS =     -1170.87959305
  atomic energy  EATOM  =      4835.92162954
  ---------------------------------------------------
  free energy    TOTEN  =      -254.59162324 eV

  energy without entropy =     -254.59162324  energy(sigma->0) =     -254.59162324


--------------------------------------------------------------------------------------------------------




--------------------------------------- Iteration      1(   5)  ---------------------------------------


    TRIAL :  cpu time      3.4857: real time      3.4872
    CORREC:  cpu time      0.0004: real time      0.0004
    CHARGE:  cpu time      0.2381: real time      0.2400
    --------------------------------------------
      LOOP:  cpu time      3.7358: real time      3.7572

 eigenvalue-minimisations  :  6352
 total energy-change (2. order) :-0.2058317E+00  (-0.2056823E+00)
 number of electron      96.0000000 magnetization 
 augmentation part        0.4866640 magnetization 

 Free energy of the ion-electron system (eV)
  ---------------------------------------------------
  alpha Z        PSCENC =        88.10770154
  Ewald energy   TEWEN  =     -2268.65530227
  -Hartree energ DENC   =     -2118.41104658
  -exchange      EXHF   =         0.00000000
  -V(xc)+E(xc)   XCENC  =       385.17107307
  PAW double counting   =      3622.04838948    -3627.89447497
  entropy T*S    EENTRO =        -0.00000000
  eigenvalues    EBANDS =     -1171.08542471
  atomic energy  EATOM  =      4835.92162954
  ---------------------------------------------------
  free energy    TOTEN  =      -254.79745490 eV

  energy without entropy =     -254.79745490  energy(sigma->0) =     -254.79745490


--------------------------------------------------------------------------------------------------------




--------------------------------------- Iteration      1(   6)  ---------------------------------------


    POTLOK:  cpu time      0.0715: real time      0.0715
    SETDIJ:  cpu time      0.3067: real time      0.3067
    TRIAL :  cpu time      2.4160: real time      2.4179
    CORREC:  cpu time      1.3097: real time      1.3111
    CHARGE:  cpu time      0.2206: real time      0.2206
    --------------------------------------------
      LOOP:  cpu time      4.3366: real time      4.3568

 eigenvalue-minimisations  :     0
 total energy-change (2. order) : 0.6121992E+02  (-0.1250208E+02)
 number of electron      96.0000000 magnetization 
 augmentation part        0.3635269 magnetization 

 Free energy of the ion-electron system (eV)
  ---------------------------------------------------
  alpha Z        PSCENC =        88.10770154
  Ewald energy   TEWEN  =     -2268.65530227
  -Hartree energ DENC   =     -2569.29479211
  -exchange      EXHF   =         0.00000000
  -V(xc)+E(xc)   XCENC  =       433.47259137
  PAW double counting   =     49387.25691345   -49398.09905955
  entropy T*S    EENTRO =        -0.00000000
  eigenvalues    EBANDS =      -702.28721953
  atomic energy  EATOM  =      4835.92162954
  ---------------------------------------------------
  free energy    TOTEN  =      -193.57753757 eV

  energy without entropy =     -193.57753757  energy(sigma->0) =     -193.57753757


--------------------------------------------------------------------------------------------------------




--------------------------------------- Iteration      1(   7)  ---------------------------------------


    POTLOK:  cpu time      0.0698: real time      0.0698
    SETDIJ:  cpu time      0.3076: real time      0.3077
    TRIAL :  cpu time      2.3298: real time      2.3311
    CORREC:  cpu time      1.2891: real time      1.2897
    CHARGE:  cpu time      0.2199: real time      0.2199
    --------------------------------------------
      LOOP:  cpu time      4.2460: real time      4.2480

 eigenvalue-minimisations  :     0
 total energy-change (2. order) :-0.1250689E+02  (-0.1694566E+01)
 number of electron      96.0000000 magnetization 
 augmentation part        0.3250642 magnetization 

 Free energy of the ion-electron system (eV)
  ---------------------------------------------------
  alpha Z        PSCENC =        88.10770154
  Ewald energy   TEWEN  =     -2268.65530227
  -Hartree energ DENC   =     -2360.61873717
  -exchange      EXHF   =         0.00000000
  -V(xc)+E(xc)   XCENC  =       415.77338367
  PAW double counting   =     58071.24325540   -58079.14039694
  entropy T*S    EENTRO =        -0.00000000
  eigenvalues    EBANDS =      -908.71595895
  atomic energy  EATOM  =      4835.92162954
  ---------------------------------------------------
  free energy    TOTEN  =      -206.08442518 eV

  energy without entropy =     -206.08442518  energy(sigma->0) =     -206.08442518


--------------------------------------------------------------------------------------------------------




--------------------------------------- Iteration      1(   8)  ---------------------------------------


    POTLOK:  cpu time      0.0697: real time      0.0697
    SETDIJ:  cpu time      0.3081: real time      0.3086
    TRIAL :  cpu time      2.3231: real time      2.3240
    CORREC:  cpu time      1.2885: real time      1.2890
    CHARGE:  cpu time      0.2216: real time      0.2220
    --------------------------------------------
      LOOP:  cpu time      4.2256: real time      4.2435

 eigenvalue-minimisations  :     0
 total energy-change (2. order) :-0.1704839E+01  (-0.6196769E+00)
 number of electron      96.0000000 magnetization 
 augmentation part        0.3473031 magnetization 

 Free energy of the ion-electron system (eV)
  ---------------------------------------------------
  alpha Z        PSCENC =        88.10770154
  Ewald energy   TEWEN  =     -2268.65530227
  -Hartree energ DENC   =     -2369.87701118
  -exchange      EXHF   =         0.00000000
  -V(xc)+E(xc)   XCENC  =       415.86318145
  PAW double counting   =     59003.81640924   -59011.55050821
  entropy T*S    EENTRO =        -0.00000000
  eigenvalues    EBANDS =      -901.41536457
  atomic energy  EATOM  =      4835.92162954
  ---------------------------------------------------
  free energy    TOTEN  =      -207.78926446 eV

  energy without entropy =     -207.78926446  energy(sigma->0) =     -207.78926446


--------------------------------------------------------------------------------------------------------




--------------------------------------- Iteration      1(   9)  ---------------------------------------


    POTLOK:  cpu time      0.0702: real time      0.0702
    SETDIJ:  cpu time      0.3182: real time      0.3182
    TRIAL :  cpu time      2.3272: real time      2.3282
    CORREC:  cpu time      1.2902: real time      1.2912
    CHARGE:  cpu time      0.2201: real time      0.2201
    --------------------------------------------
      LOOP:  cpu time      4.2389: real time      4.2578

 eigenvalue-minimisations  :     0
 total energy-change (2. order) :-0.6199822E+00  (-0.1825882E+00)
 number of electron      96.0000000 magnetization 
 augmentation part        0.3567946 magnetization 

 Free energy of the ion-electron system (eV)
  ---------------------------------------------------
  alpha Z        PSCENC =        88.10770154
  Ewald energy   TEWEN  =     -2268.65530227
  -Hartree energ DENC   =     -2365.63880204
  -exchange      EXHF   =         0.00000000
  -V(xc)+E(xc)   XCENC  =       415.63720922
  PAW double counting   =     61146.33474041   -61154.08098334
  entropy T*S    EENTRO =        -0.00000000
  eigenvalues    EBANDS =      -906.03543974
  atomic energy  EATOM  =      4835.92162954
  ---------------------------------------------------
  free energy    TOTEN  =      -208.40924667 eV

  energy without entropy =     -208.40924667  energy(sigma->0) =     -208.40924667


--------------------------------------------------------------------------------------------------------




--------------------------------------- Iteration      1(  10)  ---------------------------------------


    POTLOK:  cpu time      0.0700: real time      0.0700
    SETDIJ:  cpu time      0.3069: real time      0.3069
    TRIAL :  cpu time      2.4064: real time      2.4079
    CORREC:  cpu time      1.2884: real time      1.2890
    CHARGE:  cpu time      0.2200: real time      0.2201
    --------------------------------------------
      LOOP:  cpu time      4.3034: real time      4.3644

 eigenvalue-minimisations  :     0
 total energy-change (2. order) :-0.1824281E+00  (-0.5383308E-01)
 number of electron      96.0000000 magnetization 
 augmentation part        0.3604024 magnetization 

 Free energy of the ion-electron system (eV)
  ---------------------------------------------------
  alpha Z        PSCENC =        88.10770154
  Ewald energy   TEWEN  =     -2268.65530227
  -Hartree energ DENC   =     -2357.46269040
  -exchange      EXHF   =         0.00000000
  -V(xc)+E(xc)   XCENC  =       415.13303159
  PAW double counting   =     61298.03722482   -61305.78398788
  entropy T*S    EENTRO =        -0.00000000
  eigenvalues    EBANDS =      -913.88928168
  atomic energy  EATOM  =      4835.92162954
  ---------------------------------------------------
  free energy    TOTEN  =      -208.59167474 eV

  energy without entropy =     -208.59167474  energy(sigma->0) =     -208.59167474


--------------------------------------------------------------------------------------------------------




--------------------------------------- Iteration      1(  11)  ---------------------------------------


    POTLOK:  cpu time      0.0696: real time      0.0696
    SETDIJ:  cpu time      0.3062: real time      0.3067
    TRIAL :  cpu time      2.3315: real time      2.3324
    CORREC:  cpu time      1.2875: real time      1.2881
    CHARGE:  cpu time      0.2206: real time      0.2206
    --------------------------------------------
      LOOP:  cpu time      4.2282: real time      4.2467

 eigenvalue-minimisations  :     0
 total energy-change (2. order) :-0.5375981E-01  (-0.1247523E-01)
 number of electron      96.0000000 magnetization 
 augmentation part        0.3591826 magnetization 

 Free energy of the ion-electron system (eV)
  ---------------------------------------------------
  alpha Z        PSCENC =        88.10770154
  Ewald energy   TEWEN  =     -2268.65530227
  -Hartree energ DENC   =     -2357.63941037
  -exchange      EXHF   =         0.00000000
  -V(xc)+E(xc)   XCENC  =       415.08264312
  PAW double counting   =     60691.35083155   -60699.14753417
  entropy T*S    EENTRO =        -0.00000000
  eigenvalues    EBANDS =      -913.66599348
  atomic energy  EATOM  =      4835.92162954
  ---------------------------------------------------
  free energy    TOTEN  =      -208.64543455 eV

  energy without entropy =     -208.64543455  energy(sigma->0) =     -208.64543455


--------------------------------------------------------------------------------------------------------




--------------------------------------- Iteration      1(  12)  ---------------------------------------


    POTLOK:  cpu time      0.0696: real time      0.0696
    SETDIJ:  cpu time      0.3075: real time      0.3080
    TRIAL :  cpu time      2.3234: real time      2.3243
    CORREC:  cpu time      1.3251: real time      1.3257
    CHARGE:  cpu time      0.2205: real time      0.2209
    --------------------------------------------
      LOOP:  cpu time      4.2602: real time      4.2789

 eigenvalue-minimisations  :     0
 total energy-change (2. order) :-0.1250847E-01  (-0.3036196E-02)
 number of electron      96.0000000 magnetization 
 augmentation part        0.3581279 magnetization 

 Free energy of the ion-electron system (eV)
  ---------------------------------------------------
  alpha Z        PSCENC =        88.10770154
  Ewald energy   TEWEN  =     -2268.65530227
  -Hartree energ DENC   =     -2356.78623995
  -exchange      EXHF   =         0.00000000
  -V(xc)+E(xc)   XCENC  =       414.98715925
  PAW double counting   =     60554.74142073   -60562.53011486
  entropy T*S    EENTRO =        -0.00000000
  eigenvalues    EBANDS =      -914.44419701
  atomic energy  EATOM  =      4835.92162954
  ---------------------------------------------------
  free energy    TOTEN  =      -208.65794302 eV

  energy without entropy =     -208.65794302  energy(sigma->0) =     -208.65794302


--------------------------------------------------------------------------------------------------------




--------------------------------------- Iteration      1(  13)  ---------------------------------------


    POTLOK:  cpu time      0.0698: real time      0.0699
    SETDIJ:  cpu time      0.3064: real time      0.3064
    TRIAL :  cpu time      2.3220: real time      2.3232
    CORREC:  cpu time      1.3019: real time      1.3030
    CHARGE:  cpu time      0.2204: real time      0.2204
    --------------------------------------------
      LOOP:  cpu time      4.2333: real time      4.2522

 eigenvalue-minimisations  :     0
 total energy-change (2. order) :-0.3039861E-02  (-0.7864777E-03)
 number of electron      96.0000000 magnetization 
 augmentation part        0.3582623 magnetization 

 Free energy of the ion-electron system (eV)
  ---------------------------------------------------
  alpha Z        PSCENC =        88.10770154
  Ewald energy   TEWEN  =     -2268.65530227
  -Hartree energ DENC   =     -2356.61261144
  -exchange      EXHF   =         0.00000000
  -V(xc)+E(xc)   XCENC  =       414.97151962
  PAW double counting   =     60400.70986552   -60408.49333683
  entropy T*S    EENTRO =        -0.00000000
  eigenvalues    EBANDS =      -914.61044857
  atomic energy  EATOM  =      4835.92162954
  ---------------------------------------------------
  free energy    TOTEN  =      -208.66098288 eV

  energy without entropy =     -208.66098288  energy(sigma->0) =     -208.66098288


--------------------------------------------------------------------------------------------------------




--------------------------------------- Iteration      1(  14)  ---------------------------------------


    POTLOK:  cpu time      0.0697: real time      0.0697
    SETDIJ:  cpu time      0.3067: real time      0.3068
    TRIAL :  cpu time      2.4358: real time      2.4375
    CORREC:  cpu time      1.2879: real time      1.2884
    CHARGE:  cpu time      0.2207: real time      0.2207
    --------------------------------------------
      LOOP:  cpu time      4.3327: real time      4.3519

 eigenvalue-minimisations  :     0
 total energy-change (2. order) :-0.7805813E-03  (-0.2234124E-03)
 number of electron      96.0000000 magnetization 
 augmentation part        0.3583786 magnetization 

 Free energy of the ion-electron system (eV)
  ---------------------------------------------------
  alpha Z        PSCENC =        88.10770154
  Ewald energy   TEWEN  =     -2268.65530227
  -Hartree energ DENC   =     -2356.54935389
  -exchange      EXHF   =         0.00000000
  -V(xc)+E(xc)   XCENC  =       414.96215972
  PAW double counting   =     60254.77170236   -60262.55528114
  entropy T*S    EENTRO =        -0.00000000
  eigenvalues    EBANDS =      -914.66501932
  atomic energy  EATOM  =      4835.92162954
  ---------------------------------------------------
  free energy    TOTEN  =      -208.66176346 eV

  energy without entropy =     -208.66176346  energy(sigma->0) =     -208.66176346


--------------------------------------------------------------------------------------------------------




--------------------------------------- Iteration      1(  15)  ---------------------------------------


    POTLOK:  cpu time      0.0696: real time      0.0696
    SETDIJ:  cpu time      0.3062: real time      0.3067
    TRIAL :  cpu time      2.3261: real time      2.3271
    CORREC:  cpu time      1.2873: real time      1.2879
    CHARGE:  cpu time      0.2213: real time      0.2213
    --------------------------------------------
      LOOP:  cpu time      4.2214: real time      4.2411

 eigenvalue-minimisations  :     0
 total energy-change (2. order) :-0.2196785E-03  (-0.7683130E-04)
 number of electron      96.0000000 magnetization 
 augmentation part        0.3584421 magnetization 

 Free energy of the ion-electron system (eV)
  ---------------------------------------------------
  alpha Z        PSCENC =        88.10770154
  Ewald energy   TEWEN  =     -2268.65530227
  -Hartree energ DENC   =     -2356.59924806
  -exchange      EXHF   =         0.00000000
  -V(xc)+E(xc)   XCENC  =       414.96481193
  PAW double counting   =     60151.88690076   -60159.67159576
  entropy T*S    EENTRO =        -0.00000000
  eigenvalues    EBANDS =      -914.61688083
  atomic energy  EATOM  =      4835.92162954
  ---------------------------------------------------
  free energy    TOTEN  =      -208.66198314 eV

  energy without entropy =     -208.66198314  energy(sigma->0) =     -208.66198314


--------------------------------------------------------------------------------------------------------




--------------------------------------- Iteration      1(  16)  ---------------------------------------


    POTLOK:  cpu time      0.0700: real time      0.0700
    SETDIJ:  cpu time      0.3142: real time      0.3143
    TRIAL :  cpu time      2.3243: real time      2.3253
    CORREC:  cpu time      1.2879: real time      1.2888
    CHARGE:  cpu time      0.2205: real time      0.2206
    --------------------------------------------
      LOOP:  cpu time      4.2285: real time      4.2472

 eigenvalue-minimisations  :     0
 total energy-change (2. order) :-0.7208468E-04  (-0.1932053E-04)
 number of electron      96.0000000 magnetization 
 augmentation part        0.3583928 magnetization 

 Free energy of the ion-electron system (eV)
  ---------------------------------------------------
  alpha Z        PSCENC =        88.10770154
  Ewald energy   TEWEN  =     -2268.65530227
  -Hartree energ DENC   =     -2356.66622187
  -exchange      EXHF   =         0.00000000
  -V(xc)+E(xc)   XCENC  =       414.97185805
  PAW double counting   =     60112.29431672   -60120.07983410
  entropy T*S    EENTRO =        -0.00000000
  eigenvalues    EBANDS =      -914.55620284
  atomic energy  EATOM  =      4835.92162954
  ---------------------------------------------------
  free energy    TOTEN  =      -208.66205522 eV

  energy without entropy =     -208.66205522  energy(sigma->0) =     -208.66205522


--------------------------------------------------------------------------------------------------------




--------------------------------------- Iteration      1(  17)  ---------------------------------------


    POTLOK:  cpu time      0.0695: real time      0.0695
    SETDIJ:  cpu time      0.3072: real time      0.3072
    TRIAL :  cpu time      2.3267: real time      2.3277
    CORREC:  cpu time      1.2881: real time      1.2890
    CHARGE:  cpu time      0.2206: real time      0.2207
    --------------------------------------------
      LOOP:  cpu time      4.2234: real time      4.2438

 eigenvalue-minimisations  :     0
 total energy-change (2. order) :-0.2004812E-04  (-0.6468134E-05)
 number of electron      96.0000000 magnetization 
 augmentation part        0.3583723 magnetization 

 Free energy of the ion-electron system (eV)
  ---------------------------------------------------
  alpha Z        PSCENC =        88.10770154
  Ewald energy   TEWEN  =     -2268.65530227
  -Hartree energ DENC   =     -2356.64172083
  -exchange      EXHF   =         0.00000000
  -V(xc)+E(xc)   XCENC  =       414.97022008
  PAW double counting   =     60125.38238601   -60133.16703476
  entropy T*S    EENTRO =        -0.00000000
  eigenvalues    EBANDS =      -914.57995458
  atomic energy  EATOM  =      4835.92162954
  ---------------------------------------------------
  free energy    TOTEN  =      -208.66207527 eV

  energy without entropy =     -208.66207527  energy(sigma->0) =     -208.66207527


--------------------------------------------------------------------------------------------------------




--------------------------------------- Iteration      1(  18)  ---------------------------------------


    POTLOK:  cpu time      0.0696: real time      0.0696
    SETDIJ:  cpu time      0.3065: real time      0.3065
    TRIAL :  cpu time      2.6087: real time      2.6104
    CORREC:  cpu time      1.3261: real time      1.3267
    CHARGE:  cpu time      0.2204: real time      0.2207
    --------------------------------------------
      LOOP:  cpu time      4.5608: real time      4.5634

 eigenvalue-minimisations  :     0
 total energy-change (2. order) :-0.6461749E-05  (-0.1921219E-05)
 number of electron      96.0000000 magnetization 
 augmentation part        0.3583612 magnetization 

 Free energy of the ion-electron system (eV)
  ---------------------------------------------------
  alpha Z        PSCENC =        88.10770154
  Ewald energy   TEWEN  =     -2268.65530227
  -Hartree energ DENC   =     -2356.66391809
  -exchange      EXHF   =         0.00000000
  -V(xc)+E(xc)   XCENC  =       414.97182656
  PAW double counting   =     60144.61476242   -60152.39931183
  entropy T*S    EENTRO =        -0.00000000
  eigenvalues    EBANDS =      -914.55946960
  atomic energy  EATOM  =      4835.92162954
  ---------------------------------------------------
  free energy    TOTEN  =      -208.66208173 eV

  energy without entropy =     -208.66208173  energy(sigma->0) =     -208.66208173


--------------------------------------------------------------------------------------------------------




--------------------------------------- Iteration      1(  19)  ---------------------------------------


    POTLOK:  cpu time      0.0697: real time      0.0697
    SETDIJ:  cpu time      0.3066: real time      0.3066
    TRIAL :  cpu time      2.3259: real time      2.3270
    CORREC:  cpu time      1.3247: real time      1.3256
    CHARGE:  cpu time      0.2441: real time      0.2441
    --------------------------------------------
      LOOP:  cpu time      4.2849: real time      4.3036

 eigenvalue-minimisations  :     0
 total energy-change (2. order) :-0.1940170E-05  (-0.3254070E-06)
 number of electron      96.0000000 magnetization 
 augmentation part        0.3583627 magnetization 

 Free energy of the ion-electron system (eV)
  ---------------------------------------------------
  alpha Z        PSCENC =        88.10770154
  Ewald energy   TEWEN  =     -2268.65530227
  -Hartree energ DENC   =     -2356.66461656
  -exchange      EXHF   =         0.00000000
  -V(xc)+E(xc)   XCENC  =       414.97206880
  PAW double counting   =     60155.75854923   -60163.54307315
  entropy T*S    EENTRO =        -0.00000000
  eigenvalues    EBANDS =      -914.55904082
  atomic energy  EATOM  =      4835.92162954
  ---------------------------------------------------
  free energy    TOTEN  =      -208.66208367 eV

  energy without entropy =     -208.66208367  energy(sigma->0) =     -208.66208367


--------------------------------------------------------------------------------------------------------




--------------------------------------- Iteration      1(  20)  ---------------------------------------


    POTLOK:  cpu time      0.0704: real time      0.0704
    SETDIJ:  cpu time      0.3060: real time      0.3060
    TRIAL :  cpu time      2.3285: real time      2.3301
    CORREC:  cpu time      1.2957: real time      1.2963
    CHARGE:  cpu time      0.2201: real time      0.2201
    --------------------------------------------
      LOOP:  cpu time      4.2337: real time      4.2532

 eigenvalue-minimisations  :     0
 total energy-change (2. order) :-0.3190071E-06  (-0.1405359E-06)
 number of electron      96.0000000 magnetization 
 augmentation part        0.3583674 magnetization 

 Free energy of the ion-electron system (eV)
  ---------------------------------------------------
  alpha Z        PSCENC =        88.10770154
  Ewald energy   TEWEN  =     -2268.65530227
  -Hartree energ DENC   =     -2356.66178438
  -exchange      EXHF   =         0.00000000
  -V(xc)+E(xc)   XCENC  =       414.97182381
  PAW double counting   =     60157.33864026   -60165.12317738
  entropy T*S    EENTRO =        -0.00000000
  eigenvalues    EBANDS =      -914.56161512
  atomic energy  EATOM  =      4835.92162954
  ---------------------------------------------------
  free energy    TOTEN  =      -208.66208399 eV

  energy without entropy =     -208.66208399  energy(sigma->0) =     -208.66208399


--------------------------------------------------------------------------------------------------------




--------------------------------------- Iteration      1(  21)  ---------------------------------------


    POTLOK:  cpu time      0.0695: real time      0.0695
    SETDIJ:  cpu time      0.3062: real time      0.3067
    TRIAL :  cpu time      2.3280: real time      2.3291
    CORREC:  cpu time      1.2895: real time      1.2901
    CHARGE:  cpu time      0.2214: real time      0.2214
    --------------------------------------------
      LOOP:  cpu time      4.2277: real time      4.2470

 eigenvalue-minimisations  :     0
 total energy-change (2. order) :-0.1413573E-06  (-0.4636375E-07)
 number of electron      96.0000000 magnetization 
 augmentation part        0.3583698 magnetization 

 Free energy of the ion-electron system (eV)
  ---------------------------------------------------
  alpha Z        PSCENC =        88.10770154
  Ewald energy   TEWEN  =     -2268.65530227
  -Hartree energ DENC   =     -2356.66201350
  -exchange      EXHF   =         0.00000000
  -V(xc)+E(xc)   XCENC  =       414.97178315
  PAW double counting   =     60157.37157215   -60165.15615819
  entropy T*S    EENTRO =        -0.00000000
  eigenvalues    EBANDS =      -914.56129655
  atomic energy  EATOM  =      4835.92162954
  ---------------------------------------------------
  free energy    TOTEN  =      -208.66208413 eV

  energy without entropy =     -208.66208413  energy(sigma->0) =     -208.66208413


--------------------------------------------------------------------------------------------------------




--------------------------------------- Iteration      1(  22)  ---------------------------------------


    POTLOK:  cpu time      0.0694: real time      0.0694
    SETDIJ:  cpu time      0.3064: real time      0.3069
    TRIAL :  cpu time      2.3981: real time      2.3994
    CORREC:  cpu time      1.3305: real time      1.3315
    EDDIAG:  cpu time      0.6829: real time      0.6832
    CHARGE:  cpu time      0.2199: real time      0.2200
    --------------------------------------------
      LOOP:  cpu time      5.0222: real time      5.0406

 eigenvalue-minimisations  :     0
 total energy-change (2. order) :-0.4806498E-07  (-0.3326113E-08)
 number of electron      96.0000000 magnetization 
 augmentation part        0.3583695 magnetization 

 Free energy of the ion-electron system (eV)
  ---------------------------------------------------
  alpha Z        PSCENC =        88.10770154
  Ewald energy   TEWEN  =     -2268.65530227
  -Hartree energ DENC   =     -2356.66296635
  -exchange      EXHF   =         0.00000000
  -V(xc)+E(xc)   XCENC  =       414.97183986
  PAW double counting   =     60157.28002569   -60165.06464583
  entropy T*S    EENTRO =        -0.00000000
  eigenvalues    EBANDS =      -914.56036635
  atomic energy  EATOM  =      4835.92162954
  ---------------------------------------------------
  free energy    TOTEN  =      -208.66208418 eV

  energy without entropy =     -208.66208418  energy(sigma->0) =     -208.66208418


--------------------------------------------------------------------------------------------------------


  average scaling for gradient   0.9155


 average (electrostatic) potential at core
  the test charge radii are     0.5770  0.4325  0.5955
  (the norm of the test charge is              1.0000)
       1 -87.0840       2 -87.0835       3 -87.0840       4 -87.0835       5 -83.5145
       6 -83.5146       7 -83.5145       8 -83.5146       9 -44.6476      10 -44.6482
      11 -44.6477      12 -44.6482      13 -42.0530      14 -42.0530      15 -42.0530
      16 -42.0530      17 -42.3293      18 -42.3293      19 -42.3293      20 -42.3294
      21 -42.2450      22 -42.2450      23 -42.2451      24 -42.2450      25-119.5825
      26-119.5829      27-119.5824      28-119.5829      29-118.5958      30-118.5957
      31-118.5959      32-118.5957



 E-fermi :  -1.9075     XC(G=0):  -8.4630     alpha+bet : -6.4952

 Fermi energy:        -1.9075126210

 k-point     1 :       0.0000    0.0000    0.0000
  band No.  band energies     occupation 
      1     -24.3894      2.00000
      2     -24.3848      2.00000
      3     -24.0914      2.00000
      4     -24.0867      2.00000
      5     -22.0576      2.00000
      6     -22.0560      2.00000
      7     -21.6882      2.00000
      8     -21.6867      2.00000
      9     -14.7638      2.00000
     10     -14.7306      2.00000
     11     -14.6540      2.00000
     12     -14.6344      2.00000
     13     -11.3281      2.00000
     14     -11.1857      2.00000
     15     -10.5498      2.00000
     16     -10.4464      2.00000
     17      -8.6844      2.00000
     18      -8.4919      2.00000
     19      -7.5333      2.00000
     20      -7.5104      2.00000
     21      -7.5094      2.00000
     22      -7.2839      2.00000
     23      -7.1669      2.00000
     24      -7.0377      2.00000
     25      -6.7081      2.00000
     26      -6.7041      2.00000
     27      -6.6689      2.00000
     28      -6.5698      2.00000
     29      -5.6806      2.00000
     30      -5.5021      2.00000
     31      -5.3828      2.00000
     32      -5.2746      2.00000
     33      -5.0269      2.00000
     34      -4.7942      2.00000
     35      -4.7679      2.00000
     36      -4.7397      2.00000
     37      -4.7153      2.00000
     38      -4.5257      2.00000
     39      -4.4582      2.00000
     40      -4.1819      2.00000
     41      -3.5672      2.00000
     42      -3.5334      2.00000
     43      -3.1492      2.00000
     44      -3.1232      2.00000
     45      -2.4296      2.00000
[...]
     18      -8.5309      2.00000
     19      -7.7277      2.00000
     20      -7.6977      2.00000
     21      -7.5404      2.00000
     22      -7.4386      2.00000
     23      -7.3401      2.00000
     24      -7.3329      2.00000
     25      -7.2095      2.00000
     26      -7.1848      2.00000
     27      -6.9683      2.00000
     28      -6.9634      2.00000
     29      -5.6587      2.00000
     30      -5.6473      2.00000
     31      -5.5449      2.00000
     32      -5.5140      2.00000
     33      -5.1426      2.00000
     34      -5.0735      2.00000
     35      -4.8809      2.00000
     36      -4.8642      2.00000
     37      -4.8031      2.00000
     38      -4.7706      2.00000
     39      -4.3454      2.00000
     40      -4.3408      2.00000
     41      -3.2421      2.00000
     42      -3.2074      2.00000
     43      -3.0908      2.00000
     44      -3.0692      2.00000
     45      -2.3171      2.00000
     46      -2.3142      2.00000
     47      -2.1259      2.00000
     48      -2.0942      2.00000
     49       3.7974      0.00000
     50       3.8446      0.00000
     51       3.8575      0.00000
     52       3.8911      0.00000
     53       6.7661      0.00000
     54       6.8194      0.00000
     55       7.0839      0.00000
     56       7.1897      0.00000
     57       7.6728      0.00000
     58       7.7448      0.00000
     59       7.8841      0.00000
     60       7.9644      0.00000
     61       8.2356      0.00000
     62       8.5160      0.00000
     63       8.8229      0.00000
     64       8.8309      0.00000
     65       9.5097      0.00000
     66       9.6242      0.00000
     67       9.9323      0.00000
     68      10.1623      0.00000

 k-point    34 :       0.0000    0.4286   -0.4000
  band No.  band energies     occupation 
      1     -24.3141      2.00000
      2     -24.2953      2.00000
      3     -24.0915      2.00000
      4     -24.0670      2.00000
      5     -22.1034      2.00000
      6     -22.0743      2.00000
      7     -21.7153      2.00000
      8     -21.6911      2.00000
      9     -14.6594      2.00000
     10     -14.6571      2.00000
     11     -14.5751      2.00000
     12     -14.5750      2.00000
     13     -11.1326      2.00000
     14     -11.0822      2.00000
     15     -10.4756      2.00000
     16     -10.4185      2.00000
     17      -8.5915      2.00000
     18      -8.5310      2.00000
     19      -7.7277      2.00000
     20      -7.6977      2.00000
     21      -7.5404      2.00000
     22      -7.4386      2.00000
     23      -7.3401      2.00000
     24      -7.3329      2.00000
     25      -7.2095      2.00000
     26      -7.1848      2.00000
     27      -6.9683      2.00000
     28      -6.9634      2.00000
     29      -5.6586      2.00000
     30      -5.6473      2.00000
     31      -5.5449      2.00000
     32      -5.5140      2.00000
     33      -5.1426      2.00000
     34      -5.0735      2.00000
     35      -4.8809      2.00000
     36      -4.8642      2.00000
     37      -4.8031      2.00000
     38      -4.7706      2.00000
     39      -4.3454      2.00000
     40      -4.3408      2.00000
     41      -3.2421      2.00000
     42      -3.2074      2.00000
     43      -3.0908      2.00000
     44      -3.0691      2.00000
     45      -2.3170      2.00000
     46      -2.3142      2.00000
     47      -2.1259      2.00000
     48      -2.0942      2.00000
     49       3.7974      0.00000
     50       3.8446      0.00000
     51       3.8575      0.00000
     52       3.8911      0.00000
     53       6.7661      0.00000
     54       6.8194      0.00000
     55       7.0839      0.00000
     56       7.1897      0.00000
     57       7.6728      0.00000
     58       7.7448      0.00000
     59       7.8841      0.00000
     60       7.9643      0.00000
     61       8.2352      0.00000
     62       8.5174      0.00000
     63       8.8250      0.00000
     64       8.8346      0.00000
     65       9.5140      0.00000
     66       9.5869      0.00000
     67       9.9152      0.00000
     68       9.9744      0.00000

 k-point    35 :       0.5000    0.4286    0.4000
  band No.  band energies     occupation 
      1     -24.3141      2.00000
      2     -24.2952      2.00000
      3     -24.0914      2.00000
      4     -24.0670      2.00000
      5     -22.1034      2.00000
      6     -22.0743      2.00000
      7     -21.7153      2.00000
      8     -21.6912      2.00000
      9     -14.6721      2.00000
     10     -14.6356      2.00000
     11     -14.5985      2.00000
     12     -14.5604      2.00000
     13     -11.1336      2.00000
     14     -11.0810      2.00000
     15     -10.4759      2.00000
     16     -10.4184      2.00000
     17      -8.5934      2.00000
     18      -8.5298      2.00000
     19      -7.7374      2.00000
     20      -7.6950      2.00000
     21      -7.4866      2.00000
     22      -7.4391      2.00000
     23      -7.4378      2.00000
     24      -7.3478      2.00000
     25      -7.1390      2.00000
     26      -7.0870      2.00000
     27      -7.0446      2.00000
     28      -6.9868      2.00000
     29      -5.7080      2.00000
     30      -5.6165      2.00000
     31      -5.6135      2.00000
     32      -5.4809      2.00000
     33      -5.0524      2.00000
     34      -5.0021      2.00000
     35      -4.9470      2.00000
     36      -4.8599      2.00000
     37      -4.8195      2.00000
     38      -4.7758      2.00000
     39      -4.3921      2.00000
     40      -4.3227      2.00000
     41      -3.2417      2.00000
     42      -3.2063      2.00000
     43      -3.0937      2.00000
     44      -3.0717      2.00000
     45      -2.3218      2.00000
     46      -2.3006      2.00000
     47      -2.1311      2.00000
     48      -2.0912      2.00000
     49       3.8078      0.00000
     50       3.8311      0.00000
     51       3.8615      0.00000
     52       3.8938      0.00000
     53       6.7298      0.00000
     54       6.8867      0.00000
     55       6.9797      0.00000
     56       7.1424      0.00000
     57       7.6661      0.00000
     58       7.8468      0.00000
     59       7.8868      0.00000
     60       8.0887      0.00000
     61       8.2671      0.00000
     62       8.4415      0.00000
     63       8.7670      0.00000
     64       8.9021      0.00000
     65       9.5177      0.00000
     66       9.6613      0.00000
     67       9.8452      0.00000
     68      10.0846      0.00000

 k-point    36 :       0.5000    0.4286   -0.4000
  band No.  band energies     occupation 
      1     -24.3141      2.00000
      2     -24.2953      2.00000
      3     -24.0915      2.00000
      4     -24.0670      2.00000
      5     -22.1034      2.00000
      6     -22.0743      2.00000
      7     -21.7153      2.00000
      8     -21.6911      2.00000
      9     -14.6721      2.00000
     10     -14.6356      2.00000
     11     -14.5985      2.00000
     12     -14.5604      2.00000
     13     -11.1336      2.00000
     14     -11.0810      2.00000
     15     -10.4759      2.00000
     16     -10.4184      2.00000
     17      -8.5934      2.00000
     18      -8.5298      2.00000
     19      -7.7374      2.00000
     20      -7.6950      2.00000
     21      -7.4866      2.00000
     22      -7.4391      2.00000
     23      -7.4378      2.00000
     24      -7.3478      2.00000
     25      -7.1390      2.00000
     26      -7.0870      2.00000
     27      -7.0446      2.00000
     28      -6.9868      2.00000
     29      -5.7080      2.00000
     30      -5.6164      2.00000
     31      -5.6135      2.00000
     32      -5.4809      2.00000
     33      -5.0524      2.00000
     34      -5.0021      2.00000
     35      -4.9470      2.00000
     36      -4.8599      2.00000
     37      -4.8195      2.00000
     38      -4.7758      2.00000
     39      -4.3921      2.00000
     40      -4.3227      2.00000
     41      -3.2417      2.00000
     42      -3.2063      2.00000
     43      -3.0937      2.00000
     44      -3.0716      2.00000
     45      -2.3218      2.00000
     46      -2.3006      2.00000
     47      -2.1311      2.00000
     48      -2.0912      2.00000
     49       3.8078      0.00000
     50       3.8311      0.00000
     51       3.8615      0.00000
     52       3.8938      0.00000
     53       6.7298      0.00000
     54       6.8867      0.00000
     55       6.9797      0.00000
     56       7.1424      0.00000
     57       7.6661      0.00000
     58       7.8470      0.00000
     59       7.8868      0.00000
     60       8.0888      0.00000
     61       8.2673      0.00000
     62       8.4426      0.00000
     63       8.7679      0.00000
     64       8.8967      0.00000
     65       9.5152      0.00000
     66       9.6116      0.00000
     67       9.8280      0.00000
     68      10.1463      0.00000


--------------------------------------------------------------------------------------------------------


 soft charge-density along one line, spin component           1
         0         1         2         3         4         5         6         7         8         9
 total charge-density along one line

 pseudopotential strength for first ion, spin component:           1
 12.592  21.187   0.006  -0.013  -0.004   0.011  -0.023  -0.008
 21.187  35.647   0.010  -0.022  -0.007   0.019  -0.039  -0.013
  0.006   0.010  -3.234  -0.002   0.001  -5.792  -0.003   0.001
 -0.013  -0.022  -0.002  -3.230   0.003  -0.003  -5.785   0.006
 -0.004  -0.007   0.001   0.003  -3.227   0.001   0.006  -5.781
  0.011   0.019  -5.792  -0.003   0.001 -10.351  -0.006   0.002
 -0.023  -0.039  -0.003  -5.785   0.006  -0.006 -10.340   0.010
 -0.008  -0.013   0.001   0.006  -5.781   0.002   0.010 -10.334
 total augmentation occupancy for first ion, spin component:           1
  9.921  -3.873   0.012  -1.099  -1.825  -0.022   0.544   0.860
 -3.873   1.610  -0.052   0.635   0.924   0.023  -0.286  -0.421
  0.012  -0.052   4.976  -1.883   1.995  -1.711   0.777  -0.882
 -1.099   0.635  -1.883   6.364   0.089   0.777  -2.218   0.050
 -1.825   0.924   1.995   0.089   9.318  -0.881   0.049  -3.500
 -0.022   0.023  -1.711   0.777  -0.881   0.606  -0.321   0.385
  0.544  -0.286   0.777  -2.218   0.049  -0.321   0.796  -0.045
  0.860  -0.421  -0.882   0.050  -3.500   0.385  -0.045   1.356


------------------------ aborting loop because EDIFF is reached ----------------------------------------


    FORLOC:  cpu time      0.0073: real time      0.0073
    FORNL :  cpu time      0.5209: real time      0.5217
    FORCOR:  cpu time      0.3766: real time      0.3768
    OFIELD:  cpu time      0.0017: real time      0.0017

 VOLUME and BASIS-vectors are now :
 -----------------------------------------------------------------------------
  energy-cutoff  :     1000.00
  volume of cell :      297.27
      direct lattice vectors                 reciprocal lattice vectors
    13.151000000  0.000000000  0.000000000     0.076039845  0.000000000  0.000000000
     0.000000000  3.923000000  0.000000000     0.000000000  0.254906959  0.000000000
     0.000000000  0.000000000  5.762000000     0.000000000  0.000000000  0.173550850

  length of vectors
    13.151000000  3.923000000  5.762000000     0.076039845  0.254906959  0.173550850


 FORCES acting on ions:
    Electron-Ion                     Ewald-Force                    Non-Local-Force
 -----------------------------------------------------------------------------------------------
   -.946E+02 0.103E+02 -.548E+02   0.966E+02 -.140E+02 0.624E+02   -.224E+01 0.378E+01 -.784E+01
   0.946E+02 -.103E+02 -.548E+02   -.966E+02 0.140E+02 0.624E+02   0.224E+01 -.377E+01 -.784E+01
   -.946E+02 -.103E+02 -.548E+02   0.966E+02 0.140E+02 0.624E+02   -.224E+01 -.378E+01 -.784E+01
   0.946E+02 0.103E+02 -.548E+02   -.966E+02 -.140E+02 0.624E+02   0.224E+01 0.377E+01 -.784E+01
   -.907E+02 0.175E+02 -.671E+02   0.920E+02 -.184E+02 0.703E+02   -.143E+01 0.941E+00 -.334E+01
   0.907E+02 -.175E+02 -.671E+02   -.920E+02 0.184E+02 0.703E+02   0.143E+01 -.941E+00 -.334E+01
   -.907E+02 -.175E+02 -.671E+02   0.920E+02 0.184E+02 0.703E+02   -.143E+01 -.940E+00 -.334E+01
   0.907E+02 0.175E+02 -.671E+02   -.920E+02 -.184E+02 0.703E+02   0.143E+01 0.941E+00 -.334E+01
   0.226E+02 -.134E+02 0.432E+02   -.270E+02 0.150E+02 -.477E+02   0.461E+01 -.165E+01 0.473E+01
   -.226E+02 0.134E+02 0.432E+02   0.270E+02 -.150E+02 -.477E+02   -.461E+01 0.166E+01 0.473E+01
   0.226E+02 0.134E+02 0.432E+02   -.270E+02 -.150E+02 -.477E+02   0.461E+01 0.165E+01 0.473E+01
   -.226E+02 -.134E+02 0.432E+02   0.270E+02 0.150E+02 -.477E+02   -.461E+01 -.165E+01 0.473E+01
   -.105E+01 0.215E+02 -.391E+02   -.149E+01 -.243E+02 0.433E+02   0.262E+01 0.300E+01 -.440E+01
   0.105E+01 -.215E+02 -.391E+02   0.149E+01 0.243E+02 0.433E+02   -.262E+01 -.300E+01 -.440E+01
   -.105E+01 -.215E+02 -.391E+02   -.150E+01 0.243E+02 0.433E+02   0.262E+01 -.300E+01 -.440E+01
   0.105E+01 0.215E+02 -.391E+02   0.149E+01 -.243E+02 0.433E+02   -.262E+01 0.300E+01 -.440E+01
   -.416E+02 0.256E+02 0.120E+02   0.457E+02 -.286E+02 -.141E+02   -.423E+01 0.317E+01 0.212E+01
   0.416E+02 -.256E+02 0.120E+02   -.457E+02 0.286E+02 -.141E+02   0.423E+01 -.317E+01 0.212E+01
   -.416E+02 -.256E+02 0.120E+02   0.457E+02 0.286E+02 -.141E+02   -.423E+01 -.317E+01 0.212E+01
   0.416E+02 0.256E+02 0.120E+02   -.457E+02 -.286E+02 -.141E+02   0.423E+01 0.317E+01 0.212E+01
   -.278E+02 -.351E+02 -.225E+02   0.302E+02 0.397E+02 0.244E+02   -.247E+01 -.480E+01 -.204E+01
   0.278E+02 0.351E+02 -.225E+02   -.302E+02 -.397E+02 0.244E+02   0.247E+01 0.480E+01 -.204E+01
   -.278E+02 0.351E+02 -.225E+02   0.302E+02 -.397E+02 0.244E+02   -.247E+01 0.480E+01 -.204E+01
   0.278E+02 -.351E+02 -.225E+02   -.302E+02 0.397E+02 0.244E+02   0.247E+01 -.480E+01 -.204E+01
   -.179E+03 -.850E+02 0.110E+03   0.220E+03 0.102E+03 -.118E+03   -.407E+02 -.177E+02 0.909E+01
   0.179E+03 0.850E+02 0.110E+03   -.220E+03 -.102E+03 -.118E+03   0.407E+02 0.177E+02 0.909E+01
   -.179E+03 0.850E+02 0.110E+03   0.220E+03 -.102E+03 -.118E+03   -.407E+02 0.177E+02 0.909E+01
   0.179E+03 -.850E+02 0.110E+03   -.220E+03 0.102E+03 -.118E+03   0.407E+02 -.177E+02 0.909E+01
   0.195E+03 0.567E+02 0.153E+02   -.240E+03 -.702E+02 -.203E+02   0.455E+02 0.137E+02 0.507E+01
   -.195E+03 -.567E+02 0.153E+02   0.240E+03 0.702E+02 -.203E+02   -.455E+02 -.137E+02 0.507E+01
   0.195E+03 -.567E+02 0.153E+02   -.240E+03 0.702E+02 -.203E+02   0.455E+02 -.137E+02 0.507E+01
   -.195E+03 0.567E+02 0.153E+02   0.240E+03 -.702E+02 -.203E+02   -.455E+02 0.137E+02 0.507E+01
 -----------------------------------------------------------------------------------------------
   -.118E-01 -.307E-03 -.135E+02   -.568E-13 0.142E-12 0.139E-12   0.117E-01 0.454E-03 0.135E+02


 POSITION                                       TOTAL-FORCE (eV/Angst)
 -----------------------------------------------------------------------------------
      4.40742      2.74914      1.21164        -0.331456      0.036594     -0.244893
      8.74357      1.17389      4.09263         0.331707     -0.037347     -0.245462
     10.98296      3.13531      1.21170        -0.331179     -0.036543     -0.245041
      2.16803      0.78771      4.09272         0.331119      0.037357     -0.245530
      5.39826      2.42504      2.28754        -0.095039      0.021038     -0.101644
      7.75274      1.49797      5.16853         0.095161     -0.021315     -0.101686
     11.97382      3.45943      2.28758        -0.095594     -0.020875     -0.101823
      1.17717      0.46358      5.16859         0.095750      0.021223     -0.101930
      4.19452      3.72797      5.30862         0.201625     -0.076277      0.238072
      8.95647      0.19506      2.42760        -0.201520      0.076506      0.238144
     10.77007      2.15647      5.30868         0.201499      0.076182      0.237992
      2.38093      1.76656      2.42770        -0.201441     -0.076471      0.238076
      4.91285      1.87479      3.09685         0.078656      0.121749     -0.199350
      8.23815      2.04822      0.21584        -0.078631     -0.121768     -0.199365
     11.48840      0.08670      3.09687         0.078677     -0.121734     -0.199292
      1.66259      3.83630      0.21588        -0.078672      0.121751     -0.199298
      6.20652      1.81613      1.85998        -0.194041      0.142549      0.073223
      6.94447      2.10688      4.74098         0.194084     -0.142576      0.073166
     12.78206      0.14535      1.85999        -0.193952     -0.142571      0.073193
      0.36894      3.77766      4.74099         0.193948      0.142522      0.073141
      5.85763      3.34641      2.66510        -0.113137     -0.196680     -0.108380
      7.29338      0.57660      5.54608         0.113138      0.196701     -0.108361
     12.43318      2.53808      2.66515        -0.112906      0.196430     -0.108259
      0.71780      1.38492      5.54616         0.112948     -0.196510     -0.108235
      4.90922      3.49807      0.23573        -0.526996     -0.324677      0.251397
      8.24178      0.42496      3.11671         0.526752      0.324792      0.251755
     11.48475      2.38630      0.23582        -0.526871      0.324834      0.251637
      1.66625      1.53672      3.11684         0.526643     -0.324867      0.251964
      3.23162      2.36370      1.19314         0.828636      0.257140      0.091720
      9.91937      1.55935      4.07411        -0.828876     -0.256512      0.091880
      9.80718      3.52079      1.19316         0.828615     -0.257341      0.091554
      3.34382      0.40224      4.07418        -0.828644      0.256694      0.091636
 -----------------------------------------------------------------------------------
    total drift:                               -0.000072      0.000147      0.030461


--------------------------------------------------------------------------------------------------------



  FREE ENERGIE OF THE ION-ELECTRON SYSTEM (eV)
  ---------------------------------------------------
  free  energy   TOTEN  =      -208.66208418 eV

  energy  without entropy=     -208.66208418  energy(sigma->0) =     -208.66208418



--------------------------------------------------------------------------------------------------------


    POTLOK:  cpu time      0.3821: real time      0.3824


--------------------------------------------------------------------------------------------------------


 stress matrix after NEB project (eV)
      0.00000      0.00000      0.00000
      0.00000      0.00000      0.00000
      0.00000      0.00000      0.00000
  FORCES: max atom, RMS     0.872511    0.459491
  FORCE total and by dimension    2.599275    0.828876
  Stress total and by dimension    0.000000    0.000000
     LOOP+:  cpu time     96.4100: real time     96.9268
    4ORBIT:  cpu time      0.0000: real time      0.0000

 total amount of memory used by VASP MPI-rank0    61309. kBytes
=======================================================================

   base      :      30000. kBytes
   nonl-proj :       5404. kBytes
   fftplans  :       1317. kBytes
   grid      :       2967. kBytes
   one-center:          3. kBytes
   wavefun   :      21618. kBytes

  
  
 General timing and accounting informations for this job:
 ========================================================
  
                  Total CPU time used (sec):      110.097
                            User time (sec):      107.925
                          System time (sec):        2.171
                         Elapsed time (sec):      114.098
  
                   Maximum memory used (kb):      232888.
                   Average memory used (kb):          N/A
  
                          Minor page faults:        27126
                          Major page faults:          754
                 Voluntary context switches:         3849
