 vasp.6.4.1 05Apr23 (build Jun  6 2023 14:36:51) complex                         
 executed on        HPECrayEX_GCC date 2024.08.20  13:57:21
 running  256 mpi-ranks, with    1 threads/rank, on    2 nodes
 distrk:  each k-point on  128 cores,    2 groups
 distr:  one band on NCORE=  32 cores,    4 groups


--------------------------------------------------------------------------------------------------------


 INCAR:
   ALGO = Conjugate
   KPAR = 2
   NCORE = 32
   PREC = Accurate
   EDIFF = 1E-7
   ENCUT = 1000
   ISMEAR = 0
   SIGMA = 0.01
   ISIF = 0
   SYMPREC = 1E-7

 POTCAR:    PAW_PBE C_h 06Feb2004                 
 POTCAR:    PAW_PBE H_h 06Feb2004                 
 POTCAR:    PAW_PBE O_h 06Feb2004                 
 POTCAR:    PAW_PBE C_h 06Feb2004                 
   VRHFIN =C: s2p2                                                                                  
   LEXCH  = PE                                                                                      
   EATOM  =   147.1560 eV,   10.8157 Ry                                                             
                                                                                                    
   TITEL  = PAW_PBE C_h 06Feb2004                                                                   
   LULTRA =        F    use ultrasoft PP ?                                                          
   IUNSCR =        1    unscreen: 0-lin 1-nonlin 2-no                                               
   RPACOR =    0.800    partial core radius                                                         
   POMASS =   12.011; ZVAL   =    4.000    mass and valenz                                          
   RCORE  =    1.100    outmost cutoff radius                                                       
   RWIGS  =    1.630; RWIGS  =    0.863    wigner-seitz radius (au A)                               
   ENMAX  =  700.000; ENMIN  =  500.000 eV                                                          
   ICORE  =        2    local potential                                                             
   LCOR   =        T    correct aug charges                                                         
   LPAW   =        T    paw PP                                                                      
   EAUG   =  946.768                                                                                
   DEXC   =    0.000                                                                                
   RMAX   =    1.128    core radius for proj-oper                                                   
   RAUG   =    1.300    factor for augmentation sphere                                              
   RDEP   =    1.162    radius for radial grids                                                     
   RDEPT  =    1.088    core radius for aug-charge                                                  
                                                                                                    
   Atomic configuration                                                                             
    4 entries                                                                                       
     n  l   j            E        occ.                                                              
     1  0  0.50      -273.3789   2.0000                                                             
     2  0  0.50       -13.7508   2.0000                                                             
     2  1  0.50        -5.2854   2.0000                                                             
     3  2  1.50        -5.4423   0.0000                                                             
   Description                                                                                      
     l       E           TYP  RCUT    TYP  RCUT                                                     
     0    -13.7508458     23  1.100                                                                 
     0     -8.2022199     23  1.100                                                                 
     1     -5.2854383     23  1.100                                                                 
     1      1.1560700     23  1.100                                                                 
     2     -5.4423304      7  1.100                                                                 
  local pseudopotential read in
  partial core-charges read in
  partial kinetic energy density read in
  atomic valenz-charges read in
  non local Contribution for L=           0  read in
    real space projection operators read in
  non local Contribution for L=           0  read in
    real space projection operators read in
  non local Contribution for L=           1  read in
    real space projection operators read in
  non local Contribution for L=           1  read in
    real space projection operators read in
    PAW grid and wavefunctions read in

   number of l-projection  operators is LMAX  =           4
   number of lm-projection operators is LMMAX =           8

 POTCAR:    PAW_PBE H_h 06Feb2004                 
   VRHFIN =H: ultrasoft test                                                                        
   LEXCH  = PE                                                                                      
   EATOM  =    12.4884 eV,    0.9179 Ry                                                             
                                                                                                    
   TITEL  = PAW_PBE H_h 06Feb2004                                                                   
   LULTRA =        F    use ultrasoft PP ?                                                          
   IUNSCR =        0    unscreen: 0-lin 1-nonlin 2-no                                               
   RPACOR =    0.000    partial core radius                                                         
   POMASS =    1.000; ZVAL   =    1.000    mass and valenz                                          
   RCORE  =    0.800    outmost cutoff radius                                                       
   RWIGS  =    0.700; RWIGS  =    0.370    wigner-seitz radius (au A)                               
   ENMAX  =  700.000; ENMIN  =  350.000 eV                                                          
   RCLOC  =    0.701    cutoff for local pot                                                        
   LCOR   =        T    correct aug charges                                                         
   LPAW   =        T    paw PP                                                                      
   EAUG   = 1000.000                                                                                
   RMAX   =    0.819    core radius for proj-oper                                                   
   RAUG   =    1.000    factor for augmentation sphere                                              
   RDEP   =    0.817    radius for radial grids                                                     
   RDEPT  =    0.817    core radius for aug-charge                                                  
                                                                                                    
   Atomic configuration                                                                             
    2 entries                                                                                       
     n  l   j            E        occ.                                                              
     1  0  0.50        -6.4927   1.0000                                                             
     2  1  0.50        -3.4015   0.0000                                                             
   Description                                                                                      
     l       E           TYP  RCUT    TYP  RCUT                                                     
     0     -6.4927493     23  0.800                                                                 
     0      6.8029130     23  0.800                                                                 
     1     -6.8029130     23  0.800                                                                 
  local pseudopotential read in
  atomic valenz-charges read in
  non local Contribution for L=           0  read in
    real space projection operators read in
  non local Contribution for L=           0  read in
    real space projection operators read in
  non local Contribution for L=           1  read in
    real space projection operators read in
    PAW grid and wavefunctions read in

   number of l-projection  operators is LMAX  =           3
   number of lm-projection operators is LMMAX =           5

 POTCAR:    PAW_PBE O_h 06Feb2004                 
   VRHFIN =O: s2p4                                                                                  
   LEXCH  = PE                                                                                      
   EATOM  =   432.3788 eV,   31.7789 Ry                                                             
                                                                                                    
   TITEL  = PAW_PBE O_h 06Feb2004                                                                   
   LULTRA =        F    use ultrasoft PP ?                                                          
   IUNSCR =        1    unscreen: 0-lin 1-nonlin 2-no                                               
   RPACOR =    0.800    partial core radius                                                         
   POMASS =   16.000; ZVAL   =    6.000    mass and valenz                                          
   RCORE  =    1.100    outmost cutoff radius                                                       
   RWIGS  =    1.400; RWIGS  =    0.741    wigner-seitz radius (au A)                               
   ENMAX  =  700.000; ENMIN  =  500.000 eV                                                          
   ICORE  =        2    local potential                                                             
   LCOR   =        T    correct aug charges                                                         
   LPAW   =        T    paw PP                                                                      
   EAUG   =  888.804                                                                                
   DEXC   =    0.000                                                                                
   RMAX   =    1.128    core radius for proj-oper                                                   
   RAUG   =    1.300    factor for augmentation sphere                                              
   RDEP   =    1.125    radius for radial grids                                                     
   RDEPT  =    1.088    core radius for aug-charge                                                  
                                                                                                    
   Atomic configuration                                                                             
    4 entries                                                                                       
     n  l   j            E        occ.                                                              
     1  0  0.50      -514.6923   2.0000                                                             
     2  0  0.50       -23.9615   2.0000                                                             
     2  1  0.50        -9.0305   4.0000                                                             
     3  2  1.50        -9.5241   0.0000                                                             
   Description                                                                                      
     l       E           TYP  RCUT    TYP  RCUT                                                     
     0    -23.9615319     23  1.100                                                                 
     0    -25.3221145     23  1.100                                                                 
     1     -9.0304911     23  1.100                                                                 
     1     -5.4802209     23  1.100                                                                 
     2     -9.5240782      7  1.100                                                                 
  local pseudopotential read in
  partial core-charges read in
  partial kinetic energy density read in
  atomic valenz-charges read in
  non local Contribution for L=           0  read in
    real space projection operators read in
  non local Contribution for L=           0  read in
    real space projection operators read in
  non local Contribution for L=           1  read in
    real space projection operators read in
  non local Contribution for L=           1  read in
    real space projection operators read in
    PAW grid and wavefunctions read in

   number of l-projection  operators is LMAX  =           4
   number of lm-projection operators is LMMAX =           8

 -----------------------------------------------------------------------------
|                                                                             |
|               ----> ADVICE to this user running VASP <----                  |
|                                                                             |
|     You have a (more or less) 'large supercell' and for larger cells it     |
|     might be more efficient to use real-space projection operators.         |
|     Therefore, try LREAL= Auto in the INCAR file.                           |
|     Mind: For very accurate calculation, you might also keep the            |
|     reciprocal projection scheme (i.e. LREAL=.FALSE.).                      |
|                                                                             |
 -----------------------------------------------------------------------------

  PAW_PBE C_h 06Feb2004                 :
 energy of atom  1       EATOM= -147.1560
 kinetic energy error for atom=    0.0031 (will be added to EATOM!!)
  PAW_PBE H_h 06Feb2004                 :
 energy of atom  2       EATOM=  -12.4884
 kinetic energy error for atom=    0.0006 (will be added to EATOM!!)
  PAW_PBE O_h 06Feb2004                 :
 energy of atom  3       EATOM= -432.3788
 kinetic energy error for atom=    0.0171 (will be added to EATOM!!)


 POSCAR:  C  H  O
  positions in cartesian coordinates
  No initial velocities read in
 exchange correlation table for  LEXCH =        8
   RHO(1)=    0.500       N(1)  =     2000
   RHO(2)=  100.500       N(2)  =     4000

 VTST: version 4.1, (05/19/21)

 CHAIN: initializing optimizer
 
 OPT: Using VASP Dynamics algorithm
 CHAIN: Read ICHAIN            0

 POSCAR:  C  H  O
  positions in cartesian coordinates
  No initial velocities read in



--------------------------------------------------------------------------------------------------------


 ion  position               nearest neighbor table
   1  0.335  0.701  0.210-  29 1.24  25 1.33   5 1.50
   2  0.665  0.299  0.710-  30 1.24  26 1.33   6 1.50
   3  0.835  0.799  0.210-  31 1.24  27 1.33   7 1.50
   4  0.165  0.201  0.710-  32 1.24  28 1.33   8 1.50
   5  0.410  0.618  0.397-  13 1.09  21 1.10  17 1.10   1 1.50
   6  0.590  0.382  0.897-  14 1.09  22 1.10  18 1.10   2 1.50
   7  0.910  0.882  0.397-  15 1.09  23 1.10  19 1.10   3 1.50
   8  0.090  0.118  0.897-  16 1.09  24 1.10  20 1.10   4 1.50
   9  0.319  0.950  0.921-  25 1.02
  10  0.681  0.050  0.421-  26 1.02
  11  0.819  0.550  0.921-  27 1.02
  12  0.181  0.450  0.421-  28 1.02
  13  0.374  0.478  0.537-   5 1.09
  14  0.626  0.522  0.037-   6 1.09
  15  0.874  0.022  0.537-   7 1.09
  16  0.126  0.978  0.037-   8 1.09
  17  0.472  0.463  0.323-   5 1.10
  18  0.528  0.537  0.823-   6 1.10
  19  0.972  0.037  0.323-   7 1.10
  20  0.028  0.963  0.823-   8 1.10
  21  0.445  0.853  0.463-   5 1.10
  22  0.555  0.147  0.963-   6 1.10
  23  0.945  0.647  0.463-   7 1.10
  24  0.055  0.353  0.963-   8 1.10
  25  0.373  0.892  0.041-   9 1.02   1 1.33
  26  0.627  0.108  0.541-  10 1.02   2 1.33
  27  0.873  0.608  0.041-  11 1.02   3 1.33
  28  0.127  0.392  0.541-  12 1.02   4 1.33
  29  0.246  0.603  0.207-   1 1.24
  30  0.754  0.397  0.707-   2 1.24
  31  0.746  0.897  0.207-   3 1.24
  32  0.254  0.103  0.707-   4 1.24

  LATTYP: Found a simple orthorhombic cell.
 ALAT       =     3.9230000000
 B/A-ratio  =     1.4687738975
 C/A-ratio  =     3.3522814173
  
  Lattice vectors:
  
 A1 = (   0.0000000000,   3.9230000000,   0.0000000000)
 A2 = (   0.0000000000,   0.0000000000,   5.7620000000)
 A3 = (  13.1510000000,   0.0000000000,   0.0000000000)


Analysis of symmetry for initial positions (statically):
=====================================================================
 Subroutine PRICEL returns:
 Original cell was already a primitive cell.
 

 Routine SETGRP: Setting up the symmetry group for a 
 simple orthorhombic supercell.


 Subroutine GETGRP returns: Found  1 space group operations
 (whereof  1 operations were pure point group operations)
 out of a pool of  8 trial point group operations.


The static configuration has the point symmetry C_1 .


Analysis of symmetry for dynamics (positions and initial velocities):
=====================================================================
 Subroutine PRICEL returns:
 Original cell was already a primitive cell.
 

 Routine SETGRP: Setting up the symmetry group for a 
 simple orthorhombic supercell.


 Subroutine GETGRP returns: Found  1 space group operations
 (whereof  1 operations were pure point group operations)
 out of a pool of  8 trial point group operations.


The dynamic configuration has the point symmetry C_1 .


 Subroutine INISYM returns: Found  1 space group operations
 (whereof  1 operations are pure point group operations),
 and found     1 'primitive' translations


----------------------------------------------------------------------------------------

                                     Primitive cell                                     

  volume of cell :     297.2695

  direct lattice vectors                    reciprocal lattice vectors
    13.151000000  0.000000000  0.000000000     0.076039845  0.000000000  0.000000000
     0.000000000  3.923000000  0.000000000     0.000000000  0.254906959  0.000000000
     0.000000000  0.000000000  5.762000000     0.000000000  0.000000000  0.173550850

  length of vectors
    13.151000000  3.923000000  5.762000000     0.076039845  0.254906959  0.173550850

  position of ions in fractional coordinates (direct lattice)
     0.335139468  0.700773952  0.210281737
     0.664859950  0.299233687  0.710278800
     0.835142865  0.799211358  0.210291404
     0.164856981  0.200793332  0.710294207
     0.410482843  0.618160145  0.397004640
     0.589516819  0.381843035  0.897002966
     0.910487574  0.881832525  0.397011148
     0.089512029  0.118168750  0.897013049
     0.318950911  0.950286228  0.921315749
     0.681048848  0.049722583  0.421312328
     0.818954387  0.549698061  0.921325723
     0.181045217  0.450309446  0.421329289
     0.373572224  0.477896288  0.537460486
     0.626427324  0.522105962  0.037459458
     0.873576161  0.022099413  0.537464262
     0.126423311  0.977900587  0.037465791
     0.471942695  0.462943991  0.322800863
     0.528056332  0.537059018  0.822801341
     0.971945614  0.037051373  0.322803590
     0.028054386  0.962950772  0.822803444
     0.445413079  0.853022784  0.462530220
     0.554587329  0.146978517  0.962527386
     0.945417129  0.646973830  0.462538864
     0.054581773  0.353026861  0.962540542
     0.373296544  0.891681796  0.040910960
     0.626703304  0.108324721  0.540907880
     0.873298288  0.608283993  0.040927301
     0.126701258  0.391719552  0.540929912
     0.245731596  0.602523554  0.207069927
     0.754267558  0.397488124  0.707066019
     0.745736459  0.897475016  0.207073207
     0.254263551  0.102533154  0.707077198

  ion indices of the primitive-cell ions
   primitive index   ion index
                 1           1
                 2           2
                 3           3
                 4           4
                 5           5
                 6           6
                 7           7
                 8           8
                 9           9
                10          10
                11          11
                12          12
                13          13
                14          14
                15          15
                16          16
                17          17
                18          18
                19          19
                20          20
                21          21
                22          22
                23          23
                24          24
                25          25
                26          26
                27          27
                28          28
                29          29
                30          30
                31          31
                32          32

----------------------------------------------------------------------------------------



 KPOINTS: auto                                    

Automatic generation of k-mesh.
 Grid dimensions read from file:
 generate k-points for:    2    7    5

 Generating k-lattice:

  Cartesian coordinates                     Fractional coordinates (reciprocal lattice)
     0.038019922  0.000000000  0.000000000     0.500000000  0.000000000  0.000000000
     0.000000000  0.036415280  0.000000000     0.000000000  0.142857143  0.000000000
     0.000000000  0.000000000  0.034710170     0.000000000  0.000000000  0.200000000

  Length of vectors
     0.038019922  0.036415280  0.034710170

  Shift w.r.t. Gamma in fractional coordinates (k-lattice)
     0.000000000  0.000000000  0.000000000

 
 Subroutine IBZKPT returns following result:
 ===========================================
 
 Found     36 irreducible k-points:
 
 Following reciprocal coordinates:
            Coordinates               Weight
  0.000000  0.000000  0.000000      1.000000
  0.500000  0.000000  0.000000      1.000000
  0.000000  0.142857  0.000000      2.000000
  0.500000  0.142857  0.000000      2.000000
  0.000000  0.285714  0.000000      2.000000
  0.500000  0.285714  0.000000      2.000000
  0.000000  0.428571  0.000000      2.000000
  0.500000  0.428571  0.000000      2.000000
  0.000000  0.000000  0.200000      2.000000
  0.500000  0.000000  0.200000      2.000000
  0.000000  0.142857  0.200000      2.000000
  0.000000  0.142857 -0.200000      2.000000
  0.500000  0.142857  0.200000      2.000000
  0.500000  0.142857 -0.200000      2.000000
  0.000000  0.285714  0.200000      2.000000
  0.000000  0.285714 -0.200000      2.000000
  0.500000  0.285714  0.200000      2.000000
  0.500000  0.285714 -0.200000      2.000000
  0.000000  0.428571  0.200000      2.000000
  0.000000  0.428571 -0.200000      2.000000
  0.500000  0.428571  0.200000      2.000000
  0.500000  0.428571 -0.200000      2.000000
  0.000000  0.000000  0.400000      2.000000
  0.500000  0.000000  0.400000      2.000000
  0.000000  0.142857  0.400000      2.000000
  0.000000  0.142857 -0.400000      2.000000
  0.500000  0.142857  0.400000      2.000000
  0.500000  0.142857 -0.400000      2.000000
  0.000000  0.285714  0.400000      2.000000
  0.000000  0.285714 -0.400000      2.000000
  0.500000  0.285714  0.400000      2.000000
  0.500000  0.285714 -0.400000      2.000000
  0.000000  0.428571  0.400000      2.000000
  0.000000  0.428571 -0.400000      2.000000
  0.500000  0.428571  0.400000      2.000000
  0.500000  0.428571 -0.400000      2.000000
 
 Following cartesian coordinates:
            Coordinates               Weight
  0.000000  0.000000  0.000000      1.000000
  0.038020  0.000000  0.000000      1.000000
  0.000000  0.036415  0.000000      2.000000
  0.038020  0.036415  0.000000      2.000000
  0.000000  0.072831  0.000000      2.000000
  0.038020  0.072831  0.000000      2.000000
  0.000000  0.109246  0.000000      2.000000
  0.038020  0.109246  0.000000      2.000000
  0.000000  0.000000  0.034710      2.000000
  0.038020  0.000000  0.034710      2.000000
  0.000000  0.036415  0.034710      2.000000
  0.000000  0.036415 -0.034710      2.000000
  0.038020  0.036415  0.034710      2.000000
  0.038020  0.036415 -0.034710      2.000000
  0.000000  0.072831  0.034710      2.000000
  0.000000  0.072831 -0.034710      2.000000
  0.038020  0.072831  0.034710      2.000000
  0.038020  0.072831 -0.034710      2.000000
  0.000000  0.109246  0.034710      2.000000
  0.000000  0.109246 -0.034710      2.000000
  0.038020  0.109246  0.034710      2.000000
  0.038020  0.109246 -0.034710      2.000000
  0.000000  0.000000  0.069420      2.000000
  0.038020  0.000000  0.069420      2.000000
  0.000000  0.036415  0.069420      2.000000
  0.000000  0.036415 -0.069420      2.000000
  0.038020  0.036415  0.069420      2.000000
  0.038020  0.036415 -0.069420      2.000000
  0.000000  0.072831  0.069420      2.000000
  0.000000  0.072831 -0.069420      2.000000
  0.038020  0.072831  0.069420      2.000000
  0.038020  0.072831 -0.069420      2.000000
  0.000000  0.109246  0.069420      2.000000
  0.000000  0.109246 -0.069420      2.000000
  0.038020  0.109246  0.069420      2.000000
  0.038020  0.109246 -0.069420      2.000000
 


--------------------------------------------------------------------------------------------------------




 Dimension of arrays:
   k-points           NKPTS =     36   k-points in BZ     NKDIM =     36   number of bands    NBANDS=     68
   number of dos      NEDOS =    301   number of ions     NIONS =     32
   non local maximal  LDIM  =      4   non local SUM 2l+1 LMDIM =      8
   total plane-waves  NPLWV = 336000
   max r-space proj   IRMAX =      1   max aug-charges    IRDMAX=   8442
   dimension x,y,z NGX =   140 NGY =   40 NGZ =   60
   dimension x,y,z NGXF=   280 NGYF=   80 NGZF=  120
   support grid    NGXF=   280 NGYF=   80 NGZF=  120
   ions per type =               8  16   8
   NGX,Y,Z   is equivalent  to a cutoff of  17.70, 16.95, 17.31 a.u.
   NGXF,Y,Z  is equivalent  to a cutoff of  35.40, 33.90, 34.62 a.u.

 SYSTEM =  unknown system                          
 POSCAR =   C  H  O                                

 Startparameter for this run:
   NWRITE =      2    write-flag & timer
   PREC   = accura    normal or accurate (medium, high low for compatibility)
   ISTART =      0    job   : 0-new  1-cont  2-samecut
   ICHARG =      2    charge: 1-file 2-atom 10-const
   ISPIN  =      1    spin polarized calculation?
   LNONCOLLINEAR =      F non collinear calculations
   LSORBIT =      F    spin-orbit coupling
   INIWAV =      1    electr: 0-lowe 1-rand  2-diag
   LASPH  =      F    aspherical Exc in radial PAW
 Electronic Relaxation 1
   ENCUT  = 1000.0 eV  73.50 Ry    8.57 a.u.  33.91 10.12 14.86*2*pi/ulx,y,z
   ENINI  = 1000.0     initial cutoff
   ENAUG  = 1000.0 eV  augmentation charge cutoff
   NELM   =     60;   NELMIN=  2; NELMDL= -5     # of ELM steps 
   EDIFF  = 0.1E-06   stopping-criterion for ELM
   LREAL  =      F    real-space projection
   NLSPLINE    = F    spline interpolate recip. space projectors
   LCOMPAT=      F    compatible to vasp.4.4
   GGA_COMPAT  = T    GGA compatible to vasp.4.4-vasp.4.6
   LMAXPAW     = -100 max onsite density
   LMAXMIX     =    2 max onsite mixed and CHGCAR
   VOSKOWN=      0    Vosko Wilk Nusair interpolation
   ROPT   =    0.00000   0.00000   0.00000
 Ionic relaxation
   EDIFFG = 0.1E-05   stopping-criterion for IOM
   NSW    =      0    number of steps for IOM
   NBLOCK =      1;   KBLOCK =      1    inner block; outer block 
   IBRION =     -1    ionic relax: 0-MD 1-quasi-New 2-CG
   NFREE  =      0    steps in history (QN), initial steepest desc. (CG)
   ISIF   =      0    stress and relaxation
   IWAVPR =     10    prediction:  0-non 1-charg 2-wave 3-comb
   ISYM   =      2    0-nonsym 1-usesym 2-fastsym
   LCORR  =      T    Harris-Foulkes like correction to forces

   POTIM  = 0.5000    time-step for ionic-motion
   TEIN   =    0.0    initial temperature
   TEBEG  =    0.0;   TEEND  =   0.0 temperature during run
   SMASS  =  -3.00    Nose mass-parameter (am)
   estimated Nose-frequenzy (Omega)   =  0.10E-29 period in steps = 0.13E+47 mass=  -0.395E-26a.u.
   SCALEE = 1.0000    scale energy and forces
   NPACO  =    256;   APACO  = 10.0  distance and # of slots for P.C.
   PSTRESS=    0.0 pullay stress

  Mass of Ions in am
   POMASS =  12.01  1.00 16.00
  Ionic Valenz
   ZVAL   =   4.00  1.00  6.00
  Atomic Wigner-Seitz radii
   RWIGS  =  -1.00 -1.00 -1.00
  virtual crystal weights 
   VCA    =   1.00  1.00  1.00
   NELECT =      96.0000    total number of electrons
   NUPDOWN=      -1.0000    fix difference up-down

 DOS related values:
   EMIN   =  10.00;   EMAX   =-10.00  energy-range for DOS
   EFERMI =   0.00;   METHOD = LEGACY      
   ISMEAR =     0;   SIGMA  =   0.01  broadening in eV -4-tet -1-fermi 0-gaus

 Electronic relaxation 2 (details)
   IALGO  =     58    algorithm
   LDIAG  =      T    sub-space diagonalisation (order eigenvalues)
   LSUBROT=      F    optimize rotation matrix (better conditioning)
   TURBO    =      0    0=normal 1=particle mesh
   IRESTART =      0    0=no restart 2=restart with 2 vectors
   NREBOOT  =      0    no. of reboots
   NMIN     =      0    reboot dimension
   EREF     =   0.00    reference energy to select bands
   IMIX   =      4    mixing-type and parameters
     AMIX     =   0.40;   BMIX     =  1.00
     AMIX_MAG =   1.60;   BMIX_MAG =  1.00
     AMIN     =   0.10
     WC   =   100.;   INIMIX=   1;  MIXPRE=   1;  MAXMIX= -45

 Intra band minimization:
   WEIMIN = 0.0000     energy-eigenvalue tresh-hold
   EBREAK =  0.37E-09  absolut break condition
   DEPER  =   0.30     relativ break condition  

   TIME   =   0.40     timestep for ELM

  volume/ion in A,a.u.               =       9.29        62.69
  Fermi-wavevector in a.u.,A,eV,Ry     =   1.123178  2.122498 17.164132  1.261528
  Thomas-Fermi vector in A             =   2.259842

 Write flags
   LWAVE        =      T    write WAVECAR
   LDOWNSAMPLE  =      F    k-point downsampling of WAVECAR
   LCHARG       =      T    write CHGCAR
   LVTOT        =      F    write LOCPOT, total local potential
   LVHAR        =      F    write LOCPOT, Hartree potential only
   LELF         =      F    write electronic localiz. function (ELF)
   LORBIT       =      0    0 simple, 1 ext, 2 COOP (PROOUT), +10 PAW based schemes


 Dipole corrections
   LMONO  =      F    monopole corrections only (constant potential shift)
   LDIPOL =      F    correct potential (dipole corrections)
   IDIPOL =      0    1-x, 2-y, 3-z, 4-all directions 
   EPSILON=  1.0000000 bulk dielectric constant

 Exchange correlation treatment:
   GGA     =    --    GGA type
   LEXCH   =     8    internal setting for exchange type
   LIBXC   =     F    Libxc                    
   VOSKOWN =     0    Vosko Wilk Nusair interpolation
   LHFCALC =     F    Hartree Fock is set to
   LHFONE  =     F    Hartree Fock one center treatment
   AEXX    =    0.0000 exact exchange contribution

 Linear response parameters
   LEPSILON=     F    determine dielectric tensor
   LRPA    =     F    only Hartree local field effects (RPA)
   LNABLA  =     F    use nabla operator in PAW spheres
   LVEL    =     F    velocity operator in full k-point grid
   CSHIFT  =0.1000    complex shift for real part using Kramers Kronig
   OMEGAMAX=  -1.0    maximum frequency
   DEG_THRESHOLD= 0.2000000E-02 threshold for treating states as degnerate
   RTIME   =   -0.100 relaxation time in fs
  (WPLASMAI=    0.000 imaginary part of plasma frequency in eV, 0.658/RTIME)
   DFIELD  = 0.0000000 0.0000000 0.0000000 field for delta impulse in time

  Optional k-point grid parameters
   LKPOINTS_OPT  =     F    use optional k-point grid
   KPOINTS_OPT_MODE=     1    mode for optional k-point grid

 Orbital magnetization related:
   ORBITALMAG=     F  switch on orbital magnetization
   LCHIMAG   =     F  perturbation theory with respect to B field
   DQ        =  0.001000  dq finite difference perturbation B field
   LLRAUG    =     F  two centre corrections for induced B field
   LBONE     =     F  B-component reconstruction in AE one-centre
   LVGVCALC  =     T  calculate vGv susceptibility
   LVGVAPPL  =     F  apply vGv susceptibility instead of pGv for G=0

 Random number generation:
   RANDOM_GENERATOR = DEFAULT
   PCG_SEED         = not used


--------------------------------------------------------------------------------------------------------


 Static calculation
 charge density and potential will be updated during run
 non-spin polarized calculation
 Conjugate gradient for all bands (Freysoldt, et al. PRB 79, 241103 (2009))
 preconditioned conjugated gradient                                        
 perform sub-space diagonalisation
    before iterative eigenvector-optimisation
 modified Broyden-mixing scheme, WC =      100.0
 initial mixing is a Kerker type mixing with AMIX =  0.4000 and BMIX =      1.0000
 Hartree-type preconditioning will be used
 using additional bands           20
 reciprocal scheme for non local part
 use partial core corrections
 no Harris-corrections to forces 
 use gradient corrections 
 use of overlap-Matrix (Vanderbilt PP)
 Gauss-broadening in eV      SIGMA  =   0.01


--------------------------------------------------------------------------------------------------------


  energy-cutoff  :     1000.00
  volume of cell :      297.27
      direct lattice vectors                 reciprocal lattice vectors
    13.151000000  0.000000000  0.000000000     0.076039845  0.000000000  0.000000000
     0.000000000  3.923000000  0.000000000     0.000000000  0.254906959  0.000000000
     0.000000000  0.000000000  5.762000000     0.000000000  0.000000000  0.173550850

  length of vectors
    13.151000000  3.923000000  5.762000000     0.076039845  0.254906959  0.173550850



 k-points in units of 2pi/SCALE and weight: auto                                    
   0.00000000  0.00000000  0.00000000       0.014
   0.03801992  0.00000000  0.00000000       0.014
   0.00000000  0.03641528  0.00000000       0.029
   0.03801992  0.03641528  0.00000000       0.029
   0.00000000  0.07283056  0.00000000       0.029
   0.03801992  0.07283056  0.00000000       0.029
   0.00000000  0.10924584  0.00000000       0.029
   0.03801992  0.10924584  0.00000000       0.029
   0.00000000  0.00000000  0.03471017       0.029
   0.03801992  0.00000000  0.03471017       0.029
   0.00000000  0.03641528  0.03471017       0.029
   0.00000000  0.03641528 -0.03471017       0.029
   0.03801992  0.03641528  0.03471017       0.029
   0.03801992  0.03641528 -0.03471017       0.029
   0.00000000  0.07283056  0.03471017       0.029
   0.00000000  0.07283056 -0.03471017       0.029
   0.03801992  0.07283056  0.03471017       0.029
   0.03801992  0.07283056 -0.03471017       0.029
   0.00000000  0.10924584  0.03471017       0.029
   0.00000000  0.10924584 -0.03471017       0.029
   0.03801992  0.10924584  0.03471017       0.029
   0.03801992  0.10924584 -0.03471017       0.029
   0.00000000  0.00000000  0.06942034       0.029
   0.03801992  0.00000000  0.06942034       0.029
   0.00000000  0.03641528  0.06942034       0.029
   0.00000000  0.03641528 -0.06942034       0.029
   0.03801992  0.03641528  0.06942034       0.029
   0.03801992  0.03641528 -0.06942034       0.029
   0.00000000  0.07283056  0.06942034       0.029
   0.00000000  0.07283056 -0.06942034       0.029
   0.03801992  0.07283056  0.06942034       0.029
   0.03801992  0.07283056 -0.06942034       0.029
   0.00000000  0.10924584  0.06942034       0.029
   0.00000000  0.10924584 -0.06942034       0.029
   0.03801992  0.10924584  0.06942034       0.029
   0.03801992  0.10924584 -0.06942034       0.029

 k-points in reciprocal lattice and weights: auto                                    
   0.00000000  0.00000000  0.00000000       0.014
   0.50000000  0.00000000  0.00000000       0.014
   0.00000000  0.14285714  0.00000000       0.029
   0.50000000  0.14285714  0.00000000       0.029
   0.00000000  0.28571429  0.00000000       0.029
   0.50000000  0.28571429  0.00000000       0.029
   0.00000000  0.42857143  0.00000000       0.029
   0.50000000  0.42857143  0.00000000       0.029
   0.00000000  0.00000000  0.20000000       0.029
   0.50000000  0.00000000  0.20000000       0.029
   0.00000000  0.14285714  0.20000000       0.029
   0.00000000  0.14285714 -0.20000000       0.029
   0.50000000  0.14285714  0.20000000       0.029
   0.50000000  0.14285714 -0.20000000       0.029
   0.00000000  0.28571429  0.20000000       0.029
   0.00000000  0.28571429 -0.20000000       0.029
   0.50000000  0.28571429  0.20000000       0.029
   0.50000000  0.28571429 -0.20000000       0.029
   0.00000000  0.42857143  0.20000000       0.029
   0.00000000  0.42857143 -0.20000000       0.029
   0.50000000  0.42857143  0.20000000       0.029
   0.50000000  0.42857143 -0.20000000       0.029
   0.00000000  0.00000000  0.40000000       0.029
   0.50000000  0.00000000  0.40000000       0.029
   0.00000000  0.14285714  0.40000000       0.029
   0.00000000  0.14285714 -0.40000000       0.029
   0.50000000  0.14285714  0.40000000       0.029
   0.50000000  0.14285714 -0.40000000       0.029
   0.00000000  0.28571429  0.40000000       0.029
   0.00000000  0.28571429 -0.40000000       0.029
   0.50000000  0.28571429  0.40000000       0.029
   0.50000000  0.28571429 -0.40000000       0.029
   0.00000000  0.42857143  0.40000000       0.029
   0.00000000  0.42857143 -0.40000000       0.029
   0.50000000  0.42857143  0.40000000       0.029
   0.50000000  0.42857143 -0.40000000       0.029

 position of ions in fractional coordinates (direct lattice) 
   0.33513947  0.70077395  0.21028174
   0.66485995  0.29923369  0.71027880
   0.83514287  0.79921136  0.21029140
   0.16485698  0.20079333  0.71029421
   0.41048284  0.61816014  0.39700464
   0.58951682  0.38184304  0.89700297
   0.91048757  0.88183252  0.39701115
   0.08951203  0.11816875  0.89701305
   0.31895091  0.95028623  0.92131575
   0.68104885  0.04972258  0.42131233
   0.81895439  0.54969806  0.92132572
   0.18104522  0.45030945  0.42132929
   0.37357222  0.47789629  0.53746049
   0.62642732  0.52210596  0.03745946
   0.87357616  0.02209941  0.53746426
   0.12642331  0.97790059  0.03746579
   0.47194269  0.46294399  0.32280086
   0.52805633  0.53705902  0.82280134
   0.97194561  0.03705137  0.32280359
   0.02805439  0.96295077  0.82280344
   0.44541308  0.85302278  0.46253022
   0.55458733  0.14697852  0.96252739
   0.94541713  0.64697383  0.46253886
   0.05458177  0.35302686  0.96254054
   0.37329654  0.89168180  0.04091096
   0.62670330  0.10832472  0.54090788
   0.87329829  0.60828399  0.04092730
   0.12670126  0.39171955  0.54092991
   0.24573160  0.60252355  0.20706993
   0.75426756  0.39748812  0.70706602
   0.74573646  0.89747502  0.20707321
   0.25426355  0.10253315  0.70707720

 position of ions in cartesian coordinates  (Angst):
   4.40741914  2.74913621  1.21164337
   8.74357321  1.17389375  4.09262644
  10.98296382  3.13530616  1.21169907
   2.16803416  0.78771224  4.09271522
   5.39825986  2.42504225  2.28754074
   7.75273569  1.49797023  5.16853109
  11.97382209  3.45942900  2.28757823
   1.17717269  0.46357601  5.16858919
   4.19452344  3.72797287  5.30862135
   8.95647340  0.19506169  2.42760164
  10.77006915  2.15646549  5.30867882
   2.38092565  1.76656395  2.42769936
   4.91284832  1.87478714  3.09684732
   8.23814574  2.04822169  0.21584139
  11.48840010  0.08669600  3.09686908
   1.66259297  3.83630400  0.21587789
   6.20651838  1.81612928  1.85997857
   6.94446882  2.10688253  4.74098133
  12.78205678  0.14535254  1.85999429
   0.36894322  3.77765588  4.74099344
   5.85762740  3.34640838  2.66509913
   7.29337796  0.57659672  5.54608280
  12.43318067  2.53807833  2.66514894
   0.71780489  1.38492438  5.54615861
   4.90922284  3.49806769  0.23572895
   8.24177516  0.42495788  3.11671120
  11.48474579  2.38629810  0.23582311
   1.66624824  1.53671580  3.11683815
   3.23161621  2.36369990  1.19313692
   9.91937265  1.55934591  4.07411440
   9.80718018  3.52079449  1.19315582
   3.34381995  0.40223756  4.07417882



--------------------------------------------------------------------------------------------------------


 k-point   1 :   0.0000 0.0000 0.0000  plane waves:   21287
 k-point   2 :   0.5000 0.0000 0.0000  plane waves:   21272
 k-point   3 :   0.0000 0.1429 0.0000  plane waves:   21304
 k-point   4 :   0.5000 0.1429 0.0000  plane waves:   21332
 k-point   5 :   0.0000 0.2857 0.0000  plane waves:   21316
 k-point   6 :   0.5000 0.2857 0.0000  plane waves:   21374
 k-point   7 :   0.0000 0.4286 0.0000  plane waves:   21354
 k-point   8 :   0.5000 0.4286 0.0000  plane waves:   21370
 k-point   9 :   0.0000 0.0000 0.2000  plane waves:   21292
 k-point  10 :   0.5000 0.0000 0.2000  plane waves:   21294
 k-point  11 :   0.0000 0.1429 0.2000  plane waves:   21323
 k-point  12 :   0.0000 0.1429-0.2000  plane waves:   21323
 k-point  13 :   0.5000 0.1429 0.2000  plane waves:   21314
 k-point  14 :   0.5000 0.1429-0.2000  plane waves:   21314
 k-point  15 :   0.0000 0.2857 0.2000  plane waves:   21354
 k-point  16 :   0.0000 0.2857-0.2000  plane waves:   21354
 k-point  17 :   0.5000 0.2857 0.2000  plane waves:   21334
 k-point  18 :   0.5000 0.2857-0.2000  plane waves:   21334
 k-point  19 :   0.0000 0.4286 0.2000  plane waves:   21374
 k-point  20 :   0.0000 0.4286-0.2000  plane waves:   21374
 k-point  21 :   0.5000 0.4286 0.2000  plane waves:   21390
 k-point  22 :   0.5000 0.4286-0.2000  plane waves:   21390
 k-point  23 :   0.0000 0.0000 0.4000  plane waves:   21366
 k-point  24 :   0.5000 0.0000 0.4000  plane waves:   21338
 k-point  25 :   0.0000 0.1429 0.4000  plane waves:   21323
 k-point  26 :   0.0000 0.1429-0.4000  plane waves:   21323
 k-point  27 :   0.5000 0.1429 0.4000  plane waves:   21330
 k-point  28 :   0.5000 0.1429-0.4000  plane waves:   21330
 k-point  29 :   0.0000 0.2857 0.4000  plane waves:   21338
 k-point  30 :   0.0000 0.2857-0.4000  plane waves:   21338
 k-point  31 :   0.5000 0.2857 0.4000  plane waves:   21356
 k-point  32 :   0.5000 0.2857-0.4000  plane waves:   21356
 k-point  33 :   0.0000 0.4286 0.4000  plane waves:   21358
 k-point  34 :   0.0000 0.4286-0.4000  plane waves:   21358
 k-point  35 :   0.5000 0.4286 0.4000  plane waves:   21352
 k-point  36 :   0.5000 0.4286-0.4000  plane waves:   21352

 maximum and minimum number of plane-waves per node :       726      610

 maximum number of plane-waves:     21390
 maximum index in each direction: 
   IXMAX=   33   IYMAX=   10   IZMAX=   15
   IXMIN=  -34   IYMIN=  -10   IZMIN=  -15


 parallel 3D FFT for wavefunctions:
    minimum data exchange during FFTs selected (reduces bandwidth)
 parallel 3D FFT for charge:
    minimum data exchange during FFTs selected (reduces bandwidth)


 total amount of memory used by VASP MPI-rank0    60691. kBytes
=======================================================================

   base      :      30000. kBytes
   nonl-proj :       5404. kBytes
   fftplans  :       1317. kBytes
   grid      :       2349. kBytes
   one-center:          3. kBytes
   wavefun   :      21618. kBytes

     INWAV:  cpu time      0.0001: real time      0.0003
 Broyden mixing: mesh for mixing (old mesh)
   NGX = 67   NGY = 21   NGZ = 29
  (NGX  =280   NGY  = 80   NGZ  =120)
  gives a total of  40803 points

 initial charge density was supplied:
 charge density of overlapping atoms calculated
 number of electron      96.0000000 magnetization 
 keeping initial charge density in first step


--------------------------------------------------------------------------------------------------------


 Maximum index for augmentation-charges          442 (set IRDMAX)


--------------------------------------------------------------------------------------------------------


 First call to EWALD:  gamma=   0.266
 Maximum number of real-space cells 2x 4x 3
 Maximum number of reciprocal cells 5x 2x 2

    FEWALD:  cpu time      0.0021: real time      0.0021


--------------------------------------- Ionic step        1  -------------------------------------------




--------------------------------------- Iteration      1(   1)  ---------------------------------------


    POTLOK:  cpu time      0.0437: real time      0.0448
    SETDIJ:  cpu time      0.0052: real time      0.0054
    TRIAL :  cpu time      1.3192: real time      1.3267
    CORREC:  cpu time      0.0020: real time      0.0022
    --------------------------------------------
      LOOP:  cpu time      1.3819: real time      1.3909

 eigenvalue-minimisations  :  4896
 total energy-change (2. order) : 0.8753652E+03  (-0.7244298E+04)
 number of electron      96.0000000 magnetization 
 augmentation part       96.0000000 magnetization 

 Free energy of the ion-electron system (eV)
  ---------------------------------------------------
  alpha Z        PSCENC =        88.10770154
  Ewald energy   TEWEN  =     -2268.65530227
  -Hartree energ DENC   =     -2118.41104658
  -exchange      EXHF   =         0.00000000
  -V(xc)+E(xc)   XCENC  =       305.27357080
  PAW double counting   =      3704.44153121    -3672.16213646
  entropy T*S    EENTRO =        -0.00026510
  eigenvalues    EBANDS =         0.84949766
  atomic energy  EATOM  =      4835.92162954
  ---------------------------------------------------
  free energy    TOTEN  =       875.36518035 eV

  energy without entropy =      875.36544544  energy(sigma->0) =      875.36531290


--------------------------------------------------------------------------------------------------------




--------------------------------------- Iteration      1(   2)  ---------------------------------------


    TRIAL :  cpu time      1.5668: real time      1.5675
    CORREC:  cpu time      0.0004: real time      0.0004
    --------------------------------------------
      LOOP:  cpu time      1.5798: real time      1.5961

 eigenvalue-minimisations  :  6576
 total energy-change (2. order) :-0.9186883E+03  (-0.8598898E+03)
 number of electron      96.0000000 magnetization 
 augmentation part       96.0000000 magnetization 

 Free energy of the ion-electron system (eV)
  ---------------------------------------------------
  alpha Z        PSCENC =        88.10770154
  Ewald energy   TEWEN  =     -2268.65530227
  -Hartree energ DENC   =     -2118.41104658
  -exchange      EXHF   =         0.00000000
  -V(xc)+E(xc)   XCENC  =       305.27357080
  PAW double counting   =      3704.44153121    -3672.16213646
  entropy T*S    EENTRO =        -0.00000000
  eigenvalues    EBANDS =      -917.83903283
  atomic energy  EATOM  =      4835.92162954
  ---------------------------------------------------
  free energy    TOTEN  =       -43.32308504 eV

  energy without entropy =      -43.32308504  energy(sigma->0) =      -43.32308504


--------------------------------------------------------------------------------------------------------




--------------------------------------- Iteration      1(   3)  ---------------------------------------


    TRIAL :  cpu time      1.4758: real time      1.4761
    CORREC:  cpu time      0.0003: real time      0.0003
    --------------------------------------------
      LOOP:  cpu time      1.4875: real time      1.5048

 eigenvalue-minimisations  :  6112
 total energy-change (2. order) :-0.1558008E+03  (-0.1535507E+03)
 number of electron      96.0000000 magnetization 
 augmentation part       96.0000000 magnetization 

 Free energy of the ion-electron system (eV)
  ---------------------------------------------------
  alpha Z        PSCENC =        88.10770154
  Ewald energy   TEWEN  =     -2268.65530227
  -Hartree energ DENC   =     -2118.41104658
  -exchange      EXHF   =         0.00000000
  -V(xc)+E(xc)   XCENC  =       305.27357080
  PAW double counting   =      3704.44153121    -3672.16213646
  entropy T*S    EENTRO =        -0.00000000
  eigenvalues    EBANDS =     -1073.63978340
  atomic energy  EATOM  =      4835.92162954
  ---------------------------------------------------
  free energy    TOTEN  =      -199.12383561 eV

  energy without entropy =     -199.12383561  energy(sigma->0) =     -199.12383561


--------------------------------------------------------------------------------------------------------




--------------------------------------- Iteration      1(   4)  ---------------------------------------


    TRIAL :  cpu time      1.4157: real time      1.4163
    CORREC:  cpu time      0.0004: real time      0.0004
    --------------------------------------------
      LOOP:  cpu time      1.4461: real time      1.4469

 eigenvalue-minimisations  :  6056
 total energy-change (2. order) :-0.5727657E+01  (-0.5700939E+01)
 number of electron      96.0000000 magnetization 
 augmentation part       96.0000000 magnetization 

 Free energy of the ion-electron system (eV)
  ---------------------------------------------------
  alpha Z        PSCENC =        88.10770154
  Ewald energy   TEWEN  =     -2268.65530227
  -Hartree energ DENC   =     -2118.41104658
  -exchange      EXHF   =         0.00000000
  -V(xc)+E(xc)   XCENC  =       305.27357080
  PAW double counting   =      3704.44153121    -3672.16213646
  entropy T*S    EENTRO =        -0.00000000
  eigenvalues    EBANDS =     -1079.36744066
  atomic energy  EATOM  =      4835.92162954
  ---------------------------------------------------
  free energy    TOTEN  =      -204.85149287 eV

  energy without entropy =     -204.85149287  energy(sigma->0) =     -204.85149287


--------------------------------------------------------------------------------------------------------




--------------------------------------- Iteration      1(   5)  ---------------------------------------


    TRIAL :  cpu time      1.4851: real time      1.4856
    CORREC:  cpu time      0.0004: real time      0.0004
    CHARGE:  cpu time      0.0582: real time      0.0588
    --------------------------------------------
      LOOP:  cpu time      1.5565: real time      1.5754

 eigenvalue-minimisations  :  6392
 total energy-change (2. order) :-0.2157437E+00  (-0.2155777E+00)
 number of electron      96.0000001 magnetization 
 augmentation part        0.6564332 magnetization 

 Free energy of the ion-electron system (eV)
  ---------------------------------------------------
  alpha Z        PSCENC =        88.10770154
  Ewald energy   TEWEN  =     -2268.65530227
  -Hartree energ DENC   =     -2118.41104658
  -exchange      EXHF   =         0.00000000
  -V(xc)+E(xc)   XCENC  =       305.27357080
  PAW double counting   =      3704.44153121    -3672.16213646
  entropy T*S    EENTRO =        -0.00000000
  eigenvalues    EBANDS =     -1079.58318439
  atomic energy  EATOM  =      4835.92162954
  ---------------------------------------------------
  free energy    TOTEN  =      -205.06723660 eV

  energy without entropy =     -205.06723660  energy(sigma->0) =     -205.06723660


--------------------------------------------------------------------------------------------------------




--------------------------------------- Iteration      1(   6)  ---------------------------------------


    POTLOK:  cpu time      0.0211: real time      0.0211
    SETDIJ:  cpu time      0.0019: real time      0.0019
    TRIAL :  cpu time      0.7541: real time      0.7564
    CORREC:  cpu time      0.3801: real time      0.3808
    CHARGE:  cpu time      0.0445: real time      0.0445
    --------------------------------------------
      LOOP:  cpu time      1.2136: real time      1.2324

 eigenvalue-minimisations  :     0
 total energy-change (2. order) : 0.3394592E+02  (-0.1545013E+02)
 number of electron      96.0000000 magnetization 
 augmentation part        0.4618379 magnetization 

 Free energy of the ion-electron system (eV)
  ---------------------------------------------------
  alpha Z        PSCENC =        88.10770154
  Ewald energy   TEWEN  =     -2268.65530227
  -Hartree energ DENC   =     -2596.67429432
  -exchange      EXHF   =         0.00000000
  -V(xc)+E(xc)   XCENC  =       337.38808670
  PAW double counting   =     36998.02954042   -36971.95094701
  entropy T*S    EENTRO =        -0.00000000
  eigenvalues    EBANDS =      -593.28773112
  atomic energy  EATOM  =      4835.92162954
  ---------------------------------------------------
  free energy    TOTEN  =      -171.12131652 eV

  energy without entropy =     -171.12131652  energy(sigma->0) =     -171.12131652


--------------------------------------------------------------------------------------------------------




--------------------------------------- Iteration      1(   7)  ---------------------------------------


    POTLOK:  cpu time      0.0217: real time      0.0217
    SETDIJ:  cpu time      0.0012: real time      0.0012
    TRIAL :  cpu time      0.7164: real time      0.7167
    CORREC:  cpu time      0.3700: real time      0.3700
    CHARGE:  cpu time      0.0451: real time      0.0452
    --------------------------------------------
      LOOP:  cpu time      1.1705: real time      1.1843

 eigenvalue-minimisations  :     0
 total energy-change (2. order) :-0.1546273E+02  (-0.1876460E+01)
 number of electron      96.0000000 magnetization 
 augmentation part        0.3969487 magnetization 

 Free energy of the ion-electron system (eV)
  ---------------------------------------------------
  alpha Z        PSCENC =        88.10770154
  Ewald energy   TEWEN  =     -2268.65530227
  -Hartree energ DENC   =     -2358.72831277
  -exchange      EXHF   =         0.00000000
  -V(xc)+E(xc)   XCENC  =       322.66180748
  PAW double counting   =     49634.13474053   -49604.95940928
  entropy T*S    EENTRO =        -0.00000000
  eigenvalues    EBANDS =      -835.06690145
  atomic energy  EATOM  =      4835.92162954
  ---------------------------------------------------
  free energy    TOTEN  =      -186.58404668 eV

  energy without entropy =     -186.58404668  energy(sigma->0) =     -186.58404668


--------------------------------------------------------------------------------------------------------




--------------------------------------- Iteration      1(   8)  ---------------------------------------


    POTLOK:  cpu time      0.0214: real time      0.0214
    SETDIJ:  cpu time      0.0015: real time      0.0015
    TRIAL :  cpu time      0.7162: real time      0.7163
    CORREC:  cpu time      0.3721: real time      0.3724
    CHARGE:  cpu time      0.0453: real time      0.0453
    --------------------------------------------
      LOOP:  cpu time      1.1704: real time      1.1866

 eigenvalue-minimisations  :     0
 total energy-change (2. order) :-0.1888044E+01  (-0.7080710E+00)
 number of electron      96.0000000 magnetization 
 augmentation part        0.3980461 magnetization 

 Free energy of the ion-electron system (eV)
  ---------------------------------------------------
  alpha Z        PSCENC =        88.10770154
  Ewald energy   TEWEN  =     -2268.65530227
  -Hartree energ DENC   =     -2369.80364312
  -exchange      EXHF   =         0.00000000
  -V(xc)+E(xc)   XCENC  =       322.93370466
  PAW double counting   =     48262.80674559   -48233.35352236
  entropy T*S    EENTRO =        -0.00000000
  eigenvalues    EBANDS =      -826.42940405
  atomic energy  EATOM  =      4835.92162954
  ---------------------------------------------------
  free energy    TOTEN  =      -188.47209047 eV

  energy without entropy =     -188.47209047  energy(sigma->0) =     -188.47209047


--------------------------------------------------------------------------------------------------------




--------------------------------------- Iteration      1(   9)  ---------------------------------------


    POTLOK:  cpu time      0.0205: real time      0.0205
    SETDIJ:  cpu time      0.0018: real time      0.0018
    TRIAL :  cpu time      0.7189: real time      0.7189
    CORREC:  cpu time      0.3706: real time      0.3710
    CHARGE:  cpu time      0.0446: real time      0.0446
    --------------------------------------------
      LOOP:  cpu time      1.1716: real time      1.1854

 eigenvalue-minimisations  :     0
 total energy-change (2. order) :-0.7068426E+00  (-0.2040292E+00)
 number of electron      96.0000000 magnetization 
 augmentation part        0.4036391 magnetization 

 Free energy of the ion-electron system (eV)
  ---------------------------------------------------
  alpha Z        PSCENC =        88.10770154
  Ewald energy   TEWEN  =     -2268.65530227
  -Hartree energ DENC   =     -2362.24834778
  -exchange      EXHF   =         0.00000000
  -V(xc)+E(xc)   XCENC  =       322.56959875
  PAW double counting   =     48312.89188968   -48283.35952124
  entropy T*S    EENTRO =        -0.00000000
  eigenvalues    EBANDS =      -834.40658125
  atomic energy  EATOM  =      4835.92162954
  ---------------------------------------------------
  free energy    TOTEN  =      -189.17893303 eV

  energy without entropy =     -189.17893303  energy(sigma->0) =     -189.17893303


--------------------------------------------------------------------------------------------------------




--------------------------------------- Iteration      1(  10)  ---------------------------------------


    POTLOK:  cpu time      0.0211: real time      0.0211
    SETDIJ:  cpu time      0.0016: real time      0.0016
    TRIAL :  cpu time      0.7163: real time      0.7166
    CORREC:  cpu time      0.3694: real time      0.3694
    CHARGE:  cpu time      0.0451: real time      0.0451
    --------------------------------------------
      LOOP:  cpu time      1.1677: real time      1.1835

 eigenvalue-minimisations  :     0
 total energy-change (2. order) :-0.2033300E+00  (-0.5572320E-01)
 number of electron      96.0000000 magnetization 
 augmentation part        0.4084793 magnetization 

 Free energy of the ion-electron system (eV)
  ---------------------------------------------------
  alpha Z        PSCENC =        88.10770154
  Ewald energy   TEWEN  =     -2268.65530227
  -Hartree energ DENC   =     -2353.99739277
  -exchange      EXHF   =         0.00000000
  -V(xc)+E(xc)   XCENC  =       322.12392570
  PAW double counting   =     47381.05896057   -47351.52960119
  entropy T*S    EENTRO =        -0.00000000
  eigenvalues    EBANDS =      -842.41218416
  atomic energy  EATOM  =      4835.92162954
  ---------------------------------------------------
  free energy    TOTEN  =      -189.38226304 eV

  energy without entropy =     -189.38226304  energy(sigma->0) =     -189.38226304


--------------------------------------------------------------------------------------------------------




--------------------------------------- Iteration      1(  11)  ---------------------------------------


    POTLOK:  cpu time      0.0206: real time      0.0206
    SETDIJ:  cpu time      0.0022: real time      0.0022
    TRIAL :  cpu time      0.7144: real time      0.7149
    CORREC:  cpu time      0.3688: real time      0.3688
    CHARGE:  cpu time      0.0450: real time      0.0450
    --------------------------------------------
      LOOP:  cpu time      1.1641: real time      1.1811

 eigenvalue-minimisations  :     0
 total energy-change (2. order) :-0.5568249E-01  (-0.1229927E-01)
 number of electron      96.0000000 magnetization 
 augmentation part        0.4070751 magnetization 

 Free energy of the ion-electron system (eV)
  ---------------------------------------------------
  alpha Z        PSCENC =        88.10770154
  Ewald energy   TEWEN  =     -2268.65530227
  -Hartree energ DENC   =     -2354.72641415
  -exchange      EXHF   =         0.00000000
  -V(xc)+E(xc)   XCENC  =       322.09310126
  PAW double counting   =     46832.80431354   -46803.33346107
  entropy T*S    EENTRO =        -0.00000000
  eigenvalues    EBANDS =      -841.64951392
  atomic energy  EATOM  =      4835.92162954
  ---------------------------------------------------
  free energy    TOTEN  =      -189.43794552 eV

  energy without entropy =     -189.43794552  energy(sigma->0) =     -189.43794552


--------------------------------------------------------------------------------------------------------




--------------------------------------- Iteration      1(  12)  ---------------------------------------


    POTLOK:  cpu time      0.0206: real time      0.0206
    SETDIJ:  cpu time      0.0021: real time      0.0021
    TRIAL :  cpu time      0.7161: real time      0.7166
    CORREC:  cpu time      0.3698: real time      0.3698
    CHARGE:  cpu time      0.0451: real time      0.0451
    --------------------------------------------
      LOOP:  cpu time      1.1677: real time      1.1831

 eigenvalue-minimisations  :     0
 total energy-change (2. order) :-0.1229463E-01  (-0.2980642E-02)
 number of electron      96.0000000 magnetization 
 augmentation part        0.4063427 magnetization 

 Free energy of the ion-electron system (eV)
  ---------------------------------------------------
  alpha Z        PSCENC =        88.10770154
  Ewald energy   TEWEN  =     -2268.65530227
  -Hartree energ DENC   =     -2353.63405262
  -exchange      EXHF   =         0.00000000
  -V(xc)+E(xc)   XCENC  =       322.01478727
  PAW double counting   =     46983.54514259   -46954.06490096
  entropy T*S    EENTRO =        -0.00000000
  eigenvalues    EBANDS =      -842.68524525
  atomic energy  EATOM  =      4835.92162954
  ---------------------------------------------------
  free energy    TOTEN  =      -189.45024015 eV

  energy without entropy =     -189.45024015  energy(sigma->0) =     -189.45024015


--------------------------------------------------------------------------------------------------------




--------------------------------------- Iteration      1(  13)  ---------------------------------------


    POTLOK:  cpu time      0.0206: real time      0.0210
    SETDIJ:  cpu time      0.0028: real time      0.0028
    TRIAL :  cpu time      0.7211: real time      0.7212
    CORREC:  cpu time      0.3689: real time      0.3693
    CHARGE:  cpu time      0.0452: real time      0.0452
    --------------------------------------------
      LOOP:  cpu time      1.1728: real time      1.1887

 eigenvalue-minimisations  :     0
 total energy-change (2. order) :-0.2978825E-02  (-0.7697254E-03)
 number of electron      96.0000000 magnetization 
 augmentation part        0.4063972 magnetization 

 Free energy of the ion-electron system (eV)
  ---------------------------------------------------
  alpha Z        PSCENC =        88.10770154
  Ewald energy   TEWEN  =     -2268.65530227
  -Hartree energ DENC   =     -2353.77918596
  -exchange      EXHF   =         0.00000000
  -V(xc)+E(xc)   XCENC  =       322.02316603
  PAW double counting   =     47083.54434748   -47054.06219264
  entropy T*S    EENTRO =        -0.00000000
  eigenvalues    EBANDS =      -842.55338271
  atomic energy  EATOM  =      4835.92162954
  ---------------------------------------------------
  free energy    TOTEN  =      -189.45321898 eV

  energy without entropy =     -189.45321898  energy(sigma->0) =     -189.45321898


--------------------------------------------------------------------------------------------------------




--------------------------------------- Iteration      1(  14)  ---------------------------------------


    POTLOK:  cpu time      0.0205: real time      0.0205
    SETDIJ:  cpu time      0.0024: real time      0.0024
    TRIAL :  cpu time      0.7176: real time      0.7177
    CORREC:  cpu time      0.3699: real time      0.3704
    CHARGE:  cpu time      0.0446: real time      0.0446
    --------------------------------------------
      LOOP:  cpu time      1.1680: real time      1.1850

 eigenvalue-minimisations  :     0
 total energy-change (2. order) :-0.7711911E-03  (-0.2244028E-03)
 number of electron      96.0000000 magnetization 
 augmentation part        0.4065547 magnetization 

 Free energy of the ion-electron system (eV)
  ---------------------------------------------------
  alpha Z        PSCENC =        88.10770154
  Ewald energy   TEWEN  =     -2268.65530227
  -Hartree energ DENC   =     -2353.60018650
  -exchange      EXHF   =         0.00000000
  -V(xc)+E(xc)   XCENC  =       322.01067319
  PAW double counting   =     47113.80111339   -47084.31744793
  entropy T*S    EENTRO =        -0.00000000
  eigenvalues    EBANDS =      -842.72217114
  atomic energy  EATOM  =      4835.92162954
  ---------------------------------------------------
  free energy    TOTEN  =      -189.45399017 eV

  energy without entropy =     -189.45399017  energy(sigma->0) =     -189.45399017


--------------------------------------------------------------------------------------------------------




--------------------------------------- Iteration      1(  15)  ---------------------------------------


    POTLOK:  cpu time      0.0211: real time      0.0211
    SETDIJ:  cpu time      0.0016: real time      0.0016
    TRIAL :  cpu time      0.7140: real time      0.7144
    CORREC:  cpu time      0.3972: real time      0.3972
    CHARGE:  cpu time      0.0530: real time      0.0530
    --------------------------------------------
      LOOP:  cpu time      1.1989: real time      1.2169

 eigenvalue-minimisations  :     0
 total energy-change (2. order) :-0.2246490E-03  (-0.7524526E-04)
 number of electron      96.0000000 magnetization 
 augmentation part        0.4065538 magnetization 

 Free energy of the ion-electron system (eV)
  ---------------------------------------------------
  alpha Z        PSCENC =        88.10770154
  Ewald energy   TEWEN  =     -2268.65530227
  -Hartree energ DENC   =     -2353.74052051
  -exchange      EXHF   =         0.00000000
  -V(xc)+E(xc)   XCENC  =       322.01743892
  PAW double counting   =     47086.08794026   -47056.60616221
  entropy T*S    EENTRO =        -0.00000000
  eigenvalues    EBANDS =      -842.58694009
  atomic energy  EATOM  =      4835.92162954
  ---------------------------------------------------
  free energy    TOTEN  =      -189.45421482 eV

  energy without entropy =     -189.45421482  energy(sigma->0) =     -189.45421482


--------------------------------------------------------------------------------------------------------




--------------------------------------- Iteration      1(  16)  ---------------------------------------


    POTLOK:  cpu time      0.0204: real time      0.0204
    SETDIJ:  cpu time      0.0023: real time      0.0023
    TRIAL :  cpu time      0.7194: real time      0.7199
    CORREC:  cpu time      0.3684: real time      0.3684
    CHARGE:  cpu time      0.0451: real time      0.0451
    --------------------------------------------
      LOOP:  cpu time      1.1708: real time      1.1860

 eigenvalue-minimisations  :     0
 total energy-change (2. order) :-0.7534942E-04  (-0.2658638E-04)
 number of electron      96.0000000 magnetization 
 augmentation part        0.4064846 magnetization 

 Free energy of the ion-electron system (eV)
  ---------------------------------------------------
  alpha Z        PSCENC =        88.10770154
  Ewald energy   TEWEN  =     -2268.65530227
  -Hartree energ DENC   =     -2353.75879077
  -exchange      EXHF   =         0.00000000
  -V(xc)+E(xc)   XCENC  =       322.01940190
  PAW double counting   =     47068.49098198   -47039.00944864
  entropy T*S    EENTRO =        -0.00000000
  eigenvalues    EBANDS =      -842.57046345
  atomic energy  EATOM  =      4835.92162954
  ---------------------------------------------------
  free energy    TOTEN  =      -189.45429017 eV

  energy without entropy =     -189.45429017  energy(sigma->0) =     -189.45429017


--------------------------------------------------------------------------------------------------------




--------------------------------------- Iteration      1(  17)  ---------------------------------------


    POTLOK:  cpu time      0.0205: real time      0.0205
    SETDIJ:  cpu time      0.0026: real time      0.0026
    TRIAL :  cpu time      0.7476: real time      0.7481
    CORREC:  cpu time      0.3928: real time      0.3929
    CHARGE:  cpu time      0.0451: real time      0.0451
    --------------------------------------------
      LOOP:  cpu time      1.2222: real time      1.2385

 eigenvalue-minimisations  :     0
 total energy-change (2. order) :-0.2650811E-04  (-0.9347061E-05)
 number of electron      96.0000000 magnetization 
 augmentation part        0.4064184 magnetization 

 Free energy of the ion-electron system (eV)
  ---------------------------------------------------
  alpha Z        PSCENC =        88.10770154
  Ewald energy   TEWEN  =     -2268.65530227
  -Hartree energ DENC   =     -2353.75222469
  -exchange      EXHF   =         0.00000000
  -V(xc)+E(xc)   XCENC  =       322.01892178
  PAW double counting   =     47074.86589058   -47045.38369687
  entropy T*S    EENTRO =        -0.00000000
  eigenvalues    EBANDS =      -842.57723629
  atomic energy  EATOM  =      4835.92162954
  ---------------------------------------------------
  free energy    TOTEN  =      -189.45431668 eV

  energy without entropy =     -189.45431668  energy(sigma->0) =     -189.45431668


--------------------------------------------------------------------------------------------------------




--------------------------------------- Iteration      1(  18)  ---------------------------------------


    POTLOK:  cpu time      0.0203: real time      0.0207
    SETDIJ:  cpu time      0.0021: real time      0.0021
    TRIAL :  cpu time      0.7149: real time      0.7150
    CORREC:  cpu time      0.3689: real time      0.3693
    CHARGE:  cpu time      0.0442: real time      0.0442
    --------------------------------------------
      LOOP:  cpu time      1.1648: real time      1.1804

 eigenvalue-minimisations  :     0
 total energy-change (2. order) :-0.9031603E-05  (-0.2941113E-05)
 number of electron      96.0000000 magnetization 
 augmentation part        0.4063897 magnetization 

 Free energy of the ion-electron system (eV)
  ---------------------------------------------------
  alpha Z        PSCENC =        88.10770154
  Ewald energy   TEWEN  =     -2268.65530227
  -Hartree energ DENC   =     -2353.77860559
  -exchange      EXHF   =         0.00000000
  -V(xc)+E(xc)   XCENC  =       322.02066905
  PAW double counting   =     47084.06968281   -47054.58719190
  entropy T*S    EENTRO =        -0.00000000
  eigenvalues    EBANDS =      -842.55290889
  atomic energy  EATOM  =      4835.92162954
  ---------------------------------------------------
  free energy    TOTEN  =      -189.45432571 eV

  energy without entropy =     -189.45432571  energy(sigma->0) =     -189.45432571


--------------------------------------------------------------------------------------------------------




--------------------------------------- Iteration      1(  19)  ---------------------------------------


    POTLOK:  cpu time      0.0214: real time      0.0214
    SETDIJ:  cpu time      0.0014: real time      0.0014
    TRIAL :  cpu time      0.7178: real time      0.7178
    CORREC:  cpu time      0.3685: real time      0.3691
    CHARGE:  cpu time      0.0445: real time      0.0446
    --------------------------------------------
      LOOP:  cpu time      1.1663: real time      1.1829

 eigenvalue-minimisations  :     0
 total energy-change (2. order) :-0.2838518E-05  (-0.7682171E-06)
 number of electron      96.0000000 magnetization 
 augmentation part        0.4063887 magnetization 

 Free energy of the ion-electron system (eV)
  ---------------------------------------------------
  alpha Z        PSCENC =        88.10770154
  Ewald energy   TEWEN  =     -2268.65530227
  -Hartree energ DENC   =     -2353.77981547
  -exchange      EXHF   =         0.00000000
  -V(xc)+E(xc)   XCENC  =       322.02081925
  PAW double counting   =     47087.08310529   -47057.60051332
  entropy T*S    EENTRO =        -0.00000000
  eigenvalues    EBANDS =      -842.55195311
  atomic energy  EATOM  =      4835.92162954
  ---------------------------------------------------
  free energy    TOTEN  =      -189.45432855 eV

  energy without entropy =     -189.45432855  energy(sigma->0) =     -189.45432855


--------------------------------------------------------------------------------------------------------




--------------------------------------- Iteration      1(  20)  ---------------------------------------


    POTLOK:  cpu time      0.0213: real time      0.0213
    SETDIJ:  cpu time      0.0013: real time      0.0013
    TRIAL :  cpu time      0.7145: real time      0.7150
    CORREC:  cpu time      0.3681: real time      0.3682
    CHARGE:  cpu time      0.0444: real time      0.0444
    --------------------------------------------
      LOOP:  cpu time      1.1616: real time      1.1799

 eigenvalue-minimisations  :     0
 total energy-change (2. order) :-0.7802009E-06  (-0.2174838E-06)
 number of electron      96.0000000 magnetization 
 augmentation part        0.4063989 magnetization 

 Free energy of the ion-electron system (eV)
  ---------------------------------------------------
  alpha Z        PSCENC =        88.10770154
  Ewald energy   TEWEN  =     -2268.65530227
  -Hartree energ DENC   =     -2353.77055175
  -exchange      EXHF   =         0.00000000
  -V(xc)+E(xc)   XCENC  =       322.02029054
  PAW double counting   =     47085.67769766   -47056.19507981
  entropy T*S    EENTRO =        -0.00000000
  eigenvalues    EBANDS =      -842.56071478
  atomic energy  EATOM  =      4835.92162954
  ---------------------------------------------------
  free energy    TOTEN  =      -189.45432933 eV

  energy without entropy =     -189.45432933  energy(sigma->0) =     -189.45432933


--------------------------------------------------------------------------------------------------------




--------------------------------------- Iteration      1(  21)  ---------------------------------------


    POTLOK:  cpu time      0.0213: real time      0.0213
    SETDIJ:  cpu time      0.0016: real time      0.0016
    TRIAL :  cpu time      0.7148: real time      0.7154
    CORREC:  cpu time      0.3695: real time      0.3695
    CHARGE:  cpu time      0.0451: real time      0.0451
    --------------------------------------------
      LOOP:  cpu time      1.1814: real time      1.1821

 eigenvalue-minimisations  :     0
 total energy-change (2. order) :-0.2247616E-06  (-0.5774844E-07)
 number of electron      96.0000000 magnetization 
 augmentation part        0.4064005 magnetization 

 Free energy of the ion-electron system (eV)
  ---------------------------------------------------
  alpha Z        PSCENC =        88.10770154
  Ewald energy   TEWEN  =     -2268.65530227
  -Hartree energ DENC   =     -2353.77364124
  -exchange      EXHF   =         0.00000000
  -V(xc)+E(xc)   XCENC  =       322.02039641
  PAW double counting   =     47083.77214679   -47054.28962169
  entropy T*S    EENTRO =        -0.00000000
  eigenvalues    EBANDS =      -842.55763863
  atomic energy  EATOM  =      4835.92162954
  ---------------------------------------------------
  free energy    TOTEN  =      -189.45432955 eV

  energy without entropy =     -189.45432955  energy(sigma->0) =     -189.45432955


--------------------------------------------------------------------------------------------------------




--------------------------------------- Iteration      1(  22)  ---------------------------------------


    POTLOK:  cpu time      0.0204: real time      0.0204
    SETDIJ:  cpu time      0.0023: real time      0.0023
    TRIAL :  cpu time      0.7145: real time      0.7152
    CORREC:  cpu time      0.3688: real time      0.3688
    EDDIAG:  cpu time      0.3259: real time      0.3272
    CHARGE:  cpu time      0.0438: real time      0.0438
    --------------------------------------------
      LOOP:  cpu time      1.4877: real time      1.5061

 eigenvalue-minimisations  :     0
 total energy-change (2. order) :-0.6055052E-07  (-0.1895197E-07)
 number of electron      96.0000000 magnetization 
 augmentation part        0.4063998 magnetization 

 Free energy of the ion-electron system (eV)
  ---------------------------------------------------
  alpha Z        PSCENC =        88.10770154
  Ewald energy   TEWEN  =     -2268.65530227
  -Hartree energ DENC   =     -2353.77232992
  -exchange      EXHF   =         0.00000000
  -V(xc)+E(xc)   XCENC  =       322.02031536
  PAW double counting   =     47082.94638155   -47053.46386325
  entropy T*S    EENTRO =        -0.00000000
  eigenvalues    EBANDS =      -842.55886217
  atomic energy  EATOM  =      4835.92162954
  ---------------------------------------------------
  free energy    TOTEN  =      -189.45432961 eV

  energy without entropy =     -189.45432961  energy(sigma->0) =     -189.45432961


--------------------------------------------------------------------------------------------------------


  average scaling for gradient   0.8187


 average (electrostatic) potential at core
  the test charge radii are     0.5770  0.4325  0.5955
  (the norm of the test charge is              1.0000)
       1 -84.5140       2 -84.5140       3 -84.5140       4 -84.5140       5 -80.9759
       6 -80.9759       7 -80.9759       8 -80.9758       9 -42.0025      10 -42.0025
      11 -42.0026      12 -42.0026      13 -39.8438      14 -39.8438      15 -39.8438
      16 -39.8438      17 -40.1022      18 -40.1022      19 -40.1022      20 -40.1022
      21 -40.0251      22 -40.0251      23 -40.0252      24 -40.0252      25-115.5170
      26-115.5170      27-115.5170      28-115.5170      29-114.5791      30-114.5791
      31-114.5791      32-114.5792



 E-fermi :  -1.5407     XC(G=0):  -7.9480     alpha+bet : -6.4952

 Fermi energy:        -1.5407476813

 k-point     1 :       0.0000    0.0000    0.0000
  band No.  band energies     occupation 
      1     -22.8418      2.00000
      2     -22.8371      2.00000
      3     -22.5521      2.00000
      4     -22.5473      2.00000
      5     -20.5252      2.00000
      6     -20.5234      2.00000
      7     -20.1622      2.00000
      8     -20.1606      2.00000
      9     -13.7366      2.00000
     10     -13.7048      2.00000
     11     -13.6273      2.00000
     12     -13.6110      2.00000
     13     -10.6065      2.00000
     14     -10.4655      2.00000
     15      -9.8898      2.00000
     16      -9.7934      2.00000
     17      -7.9660      2.00000
     18      -7.7634      2.00000
     19      -6.9150      2.00000
     20      -6.9082      2.00000
     21      -6.8998      2.00000
     22      -6.6887      2.00000
     23      -6.5565      2.00000
     24      -6.4449      2.00000
     25      -6.2236      2.00000
     26      -6.2211      2.00000
     27      -6.1706      2.00000
     28      -6.0833      2.00000
     29      -5.1479      2.00000
     30      -4.9855      2.00000
     31      -4.8698      2.00000
     32      -4.7559      2.00000
     33      -4.4743      2.00000
     34      -4.2678      2.00000
     35      -4.2642      2.00000
     36      -4.2219      2.00000
     37      -4.2187      2.00000
     38      -4.0367      2.00000
     39      -3.9687      2.00000
     40      -3.6658      2.00000
     41      -3.1108      2.00000
     42      -3.0809      2.00000
     43      -2.7114      2.00000
     44      -2.6883      2.00000
     45      -1.9748      2.00000
     46      -1.7404      2.00000
     47      -1.6529      2.00000
     48      -1.5897      2.00000
     49       3.5237      0.00000
     50       3.5574      0.00000
[...]
     18      -7.8194      2.00000
     19      -7.1456      2.00000
     20      -7.1274      2.00000
     21      -6.9454      2.00000
     22      -6.8432      2.00000
     23      -6.7752      2.00000
     24      -6.7737      2.00000
     25      -6.6377      2.00000
     26      -6.6093      2.00000
     27      -6.4251      2.00000
     28      -6.4242      2.00000
     29      -5.1346      2.00000
     30      -5.1216      2.00000
     31      -5.0246      2.00000
     32      -4.9925      2.00000
     33      -4.6158      2.00000
     34      -4.5587      2.00000
     35      -4.3720      2.00000
     36      -4.3566      2.00000
     37      -4.3069      2.00000
     38      -4.2662      2.00000
     39      -3.8296      2.00000
     40      -3.8261      2.00000
     41      -2.8028      2.00000
     42      -2.7691      2.00000
     43      -2.6465      2.00000
     44      -2.6255      2.00000
     45      -1.8625      2.00000
     46      -1.8598      2.00000
     47      -1.6728      2.00000
     48      -1.6415      2.00000
     49       3.6410      0.00000
     50       3.6862      0.00000
     51       3.7168      0.00000
     52       3.7475      0.00000
     53       6.6841      0.00000
     54       6.7345      0.00000
     55       6.9801      0.00000
     56       7.0886      0.00000
     57       7.5220      0.00000
     58       7.6037      0.00000
     59       7.7164      0.00000
     60       7.7819      0.00000
     61       8.1128      0.00000
     62       8.3860      0.00000
     63       8.6628      0.00000
     64       8.6938      0.00000
     65       9.2592      0.00000
     66       9.3884      0.00000
     67       9.7006      0.00000
     68       9.8633      0.00000

 k-point    34 :       0.0000    0.4286   -0.4000
  band No.  band energies     occupation 
      1     -22.7646      2.00000
      2     -22.7462      2.00000
      3     -22.5510      2.00000
      4     -22.5273      2.00000
      5     -20.5716      2.00000
      6     -20.5432      2.00000
      7     -20.1894      2.00000
      8     -20.1654      2.00000
      9     -13.6373      2.00000
     10     -13.6352      2.00000
     11     -13.5512      2.00000
     12     -13.5507      2.00000
     13     -10.4101      2.00000
     14     -10.3623      2.00000
     15      -9.8073      2.00000
     16      -9.7587      2.00000
     17      -7.8685      2.00000
     18      -7.8194      2.00000
     19      -7.1456      2.00000
     20      -7.1274      2.00000
     21      -6.9455      2.00000
     22      -6.8431      2.00000
     23      -6.7752      2.00000
     24      -6.7737      2.00000
     25      -6.6377      2.00000
     26      -6.6093      2.00000
     27      -6.4251      2.00000
     28      -6.4242      2.00000
     29      -5.1346      2.00000
     30      -5.1216      2.00000
     31      -5.0246      2.00000
     32      -4.9925      2.00000
     33      -4.6158      2.00000
     34      -4.5587      2.00000
     35      -4.3720      2.00000
     36      -4.3566      2.00000
     37      -4.3069      2.00000
     38      -4.2662      2.00000
     39      -3.8296      2.00000
     40      -3.8261      2.00000
     41      -2.8028      2.00000
     42      -2.7691      2.00000
     43      -2.6466      2.00000
     44      -2.6255      2.00000
     45      -1.8625      2.00000
     46      -1.8598      2.00000
     47      -1.6728      2.00000
     48      -1.6415      2.00000
     49       3.6410      0.00000
     50       3.6862      0.00000
     51       3.7169      0.00000
     52       3.7475      0.00000
     53       6.6841      0.00000
     54       6.7345      0.00000
     55       6.9802      0.00000
     56       7.0886      0.00000
     57       7.5219      0.00000
     58       7.6037      0.00000
     59       7.7164      0.00000
     60       7.7819      0.00000
     61       8.1100      0.00000
     62       8.3873      0.00000
     63       8.6652      0.00000
     64       8.6990      0.00000
     65       9.2635      0.00000
     66       9.3497      0.00000
     67       9.6596      0.00000
     68       9.7314      0.00000

 k-point    35 :       0.5000    0.4286    0.4000
  band No.  band energies     occupation 
      1     -22.7646      2.00000
      2     -22.7462      2.00000
      3     -22.5510      2.00000
      4     -22.5273      2.00000
      5     -20.5716      2.00000
      6     -20.5431      2.00000
      7     -20.1893      2.00000
      8     -20.1654      2.00000
      9     -13.6499      2.00000
     10     -13.6142      2.00000
     11     -13.5738      2.00000
     12     -13.5363      2.00000
     13     -10.4112      2.00000
     14     -10.3610      2.00000
     15      -9.8076      2.00000
     16      -9.7585      2.00000
     17      -7.8709      2.00000
     18      -7.8178      2.00000
     19      -7.1586      2.00000
     20      -7.1178      2.00000
     21      -6.9017      2.00000
     22      -6.8628      2.00000
     23      -6.8569      2.00000
     24      -6.7635      2.00000
     25      -6.5561      2.00000
     26      -6.5190      2.00000
     27      -6.5094      2.00000
     28      -6.4584      2.00000
     29      -5.1802      2.00000
     30      -5.0925      2.00000
     31      -5.0900      2.00000
     32      -4.9623      2.00000
     33      -4.5160      2.00000
     34      -4.5126      2.00000
     35      -4.4190      2.00000
     36      -4.3735      2.00000
     37      -4.3120      2.00000
     38      -4.2652      2.00000
     39      -3.8768      2.00000
     40      -3.8096      2.00000
     41      -2.8023      2.00000
     42      -2.7679      2.00000
     43      -2.6494      2.00000
     44      -2.6279      2.00000
     45      -1.8671      2.00000
     46      -1.8464      2.00000
     47      -1.6779      2.00000
     48      -1.6384      2.00000
     49       3.6443      0.00000
     50       3.6965      0.00000
     51       3.6966      0.00000
     52       3.7570      0.00000
     53       6.6512      0.00000
     54       6.7936      0.00000
     55       6.8800      0.00000
     56       7.0477      0.00000
     57       7.5184      0.00000
     58       7.6794      0.00000
     59       7.7346      0.00000
     60       7.8991      0.00000
     61       8.1272      0.00000
     62       8.3353      0.00000
     63       8.6029      0.00000
     64       8.7660      0.00000
     65       9.2853      0.00000
     66       9.3912      0.00000
     67       9.5857      0.00000
     68       9.9717      0.00000

 k-point    36 :       0.5000    0.4286   -0.4000
  band No.  band energies     occupation 
      1     -22.7646      2.00000
      2     -22.7462      2.00000
      3     -22.5510      2.00000
      4     -22.5273      2.00000
      5     -20.5716      2.00000
      6     -20.5432      2.00000
      7     -20.1894      2.00000
      8     -20.1654      2.00000
      9     -13.6499      2.00000
     10     -13.6142      2.00000
     11     -13.5738      2.00000
     12     -13.5363      2.00000
     13     -10.4112      2.00000
     14     -10.3611      2.00000
     15      -9.8076      2.00000
     16      -9.7585      2.00000
     17      -7.8709      2.00000
     18      -7.8178      2.00000
     19      -7.1586      2.00000
     20      -7.1178      2.00000
     21      -6.9017      2.00000
     22      -6.8628      2.00000
     23      -6.8569      2.00000
     24      -6.7635      2.00000
     25      -6.5561      2.00000
     26      -6.5190      2.00000
     27      -6.5094      2.00000
     28      -6.4584      2.00000
     29      -5.1802      2.00000
     30      -5.0925      2.00000
     31      -5.0900      2.00000
     32      -4.9623      2.00000
     33      -4.5160      2.00000
     34      -4.5126      2.00000
     35      -4.4190      2.00000
     36      -4.3735      2.00000
     37      -4.3120      2.00000
     38      -4.2652      2.00000
     39      -3.8768      2.00000
     40      -3.8096      2.00000
     41      -2.8023      2.00000
     42      -2.7680      2.00000
     43      -2.6495      2.00000
     44      -2.6279      2.00000
     45      -1.8671      2.00000
     46      -1.8464      2.00000
     47      -1.6779      2.00000
     48      -1.6384      2.00000
     49       3.6442      0.00000
     50       3.6965      0.00000
     51       3.6966      0.00000
     52       3.7570      0.00000
     53       6.6512      0.00000
     54       6.7936      0.00000
     55       6.8800      0.00000
     56       7.0477      0.00000
     57       7.5184      0.00000
     58       7.6797      0.00000
     59       7.7347      0.00000
     60       7.8992      0.00000
     61       8.1285      0.00000
     62       8.3390      0.00000
     63       8.6086      0.00000
     64       8.7705      0.00000
     65       9.2861      0.00000
     66       9.4008      0.00000
     67       9.6191      0.00000
     68       9.9233      0.00000


--------------------------------------------------------------------------------------------------------


 soft charge-density along one line, spin component           1
         0         1         2         3         4         5         6         7         8         9
 total charge-density along one line

 pseudopotential strength for first ion, spin component:           1
 12.650  21.286   0.006  -0.013  -0.005   0.010  -0.023  -0.009
 21.286  35.818   0.009  -0.021  -0.008   0.017  -0.038  -0.015
  0.006   0.009  -3.161  -0.001  -0.000  -5.664  -0.001  -0.000
 -0.013  -0.021  -0.001  -3.159   0.001  -0.001  -5.661   0.002
 -0.005  -0.008  -0.000   0.001  -3.159  -0.000   0.002  -5.661
  0.010   0.017  -5.664  -0.001  -0.000 -10.127  -0.002  -0.001
 -0.023  -0.038  -0.001  -5.661   0.002  -0.002 -10.122   0.004
 -0.009  -0.015  -0.000   0.002  -5.661  -0.001   0.004 -10.123
 total augmentation occupancy for first ion, spin component:           1
  8.310  -3.116  -0.003  -0.993  -1.699  -0.011   0.480   0.787
 -3.116   1.281  -0.040   0.567   0.847   0.016  -0.247  -0.377
 -0.003  -0.040   4.453  -1.702   1.847  -1.451   0.695  -0.809
 -0.993   0.567  -1.702   5.665   0.035   0.696  -1.887   0.063
 -1.699   0.847   1.847   0.035   8.407  -0.808   0.062  -3.069
 -0.011   0.016  -1.451   0.696  -0.808   0.494  -0.283   0.347
  0.480  -0.247   0.695  -1.887   0.062  -0.283   0.654  -0.046
  0.787  -0.377  -0.809   0.063  -3.069   0.347  -0.046   1.164


------------------------ aborting loop because EDIFF is reached ----------------------------------------


    FORLOC:  cpu time      0.0044: real time      0.0044
    FORNL :  cpu time      0.5212: real time      0.5215
    FORCOR:  cpu time      0.0235: real time      0.0239
    OFIELD:  cpu time      0.0022: real time      0.0024

 VOLUME and BASIS-vectors are now :
 -----------------------------------------------------------------------------
  energy-cutoff  :     1000.00
  volume of cell :      297.27
      direct lattice vectors                 reciprocal lattice vectors
    13.151000000  0.000000000  0.000000000     0.076039845  0.000000000  0.000000000
     0.000000000  3.923000000  0.000000000     0.000000000  0.254906959  0.000000000
     0.000000000  0.000000000  5.762000000     0.000000000  0.000000000  0.173550850

  length of vectors
    13.151000000  3.923000000  5.762000000     0.076039845  0.254906959  0.173550850


 FORCES acting on ions:
    Electron-Ion                     Ewald-Force                    Non-Local-Force
 -----------------------------------------------------------------------------------------------
   -.945E+02 0.105E+02 -.551E+02   0.966E+02 -.140E+02 0.624E+02   -.198E+01 0.361E+01 -.748E+01
   0.945E+02 -.105E+02 -.551E+02   -.966E+02 0.140E+02 0.624E+02   0.198E+01 -.361E+01 -.748E+01
   -.945E+02 -.105E+02 -.551E+02   0.966E+02 0.140E+02 0.624E+02   -.198E+01 -.361E+01 -.748E+01
   0.945E+02 0.105E+02 -.551E+02   -.966E+02 -.140E+02 0.624E+02   0.198E+01 0.361E+01 -.748E+01
   -.908E+02 0.175E+02 -.672E+02   0.920E+02 -.184E+02 0.703E+02   -.134E+01 0.917E+00 -.322E+01
   0.908E+02 -.175E+02 -.672E+02   -.920E+02 0.184E+02 0.703E+02   0.134E+01 -.917E+00 -.322E+01
   -.908E+02 -.175E+02 -.672E+02   0.920E+02 0.184E+02 0.703E+02   -.134E+01 -.917E+00 -.322E+01
   0.908E+02 0.175E+02 -.672E+02   -.920E+02 -.184E+02 0.703E+02   0.134E+01 0.917E+00 -.322E+01
   0.224E+02 -.134E+02 0.430E+02   -.270E+02 0.150E+02 -.477E+02   0.456E+01 -.163E+01 0.467E+01
   -.224E+02 0.134E+02 0.430E+02   0.270E+02 -.150E+02 -.477E+02   -.456E+01 0.163E+01 0.467E+01
   0.224E+02 0.134E+02 0.430E+02   -.270E+02 -.150E+02 -.477E+02   0.456E+01 0.163E+01 0.467E+01
   -.224E+02 -.134E+02 0.430E+02   0.270E+02 0.150E+02 -.477E+02   -.456E+01 -.163E+01 0.467E+01
   -.106E+01 0.214E+02 -.391E+02   -.149E+01 -.243E+02 0.433E+02   0.255E+01 0.292E+01 -.428E+01
   0.106E+01 -.214E+02 -.391E+02   0.149E+01 0.243E+02 0.433E+02   -.255E+01 -.292E+01 -.428E+01
   -.106E+01 -.214E+02 -.391E+02   -.150E+01 0.243E+02 0.433E+02   0.255E+01 -.292E+01 -.428E+01
   0.106E+01 0.214E+02 -.391E+02   0.149E+01 -.243E+02 0.433E+02   -.255E+01 0.292E+01 -.428E+01
   -.416E+02 0.255E+02 0.120E+02   0.457E+02 -.286E+02 -.141E+02   -.411E+01 0.308E+01 0.207E+01
   0.416E+02 -.255E+02 0.120E+02   -.457E+02 0.286E+02 -.141E+02   0.411E+01 -.308E+01 0.207E+01
   -.416E+02 -.255E+02 0.120E+02   0.457E+02 0.286E+02 -.141E+02   -.411E+01 -.308E+01 0.207E+01
   0.416E+02 0.255E+02 0.120E+02   -.457E+02 -.286E+02 -.141E+02   0.411E+01 0.308E+01 0.207E+01
   -.278E+02 -.350E+02 -.225E+02   0.302E+02 0.397E+02 0.244E+02   -.240E+01 -.467E+01 -.198E+01
   0.278E+02 0.350E+02 -.225E+02   -.302E+02 -.397E+02 0.244E+02   0.240E+01 0.467E+01 -.198E+01
   -.278E+02 0.350E+02 -.225E+02   0.302E+02 -.397E+02 0.244E+02   -.240E+01 0.467E+01 -.198E+01
   0.278E+02 -.350E+02 -.225E+02   -.302E+02 0.397E+02 0.244E+02   0.240E+01 -.467E+01 -.198E+01
   -.180E+03 -.852E+02 0.110E+03   0.220E+03 0.102E+03 -.118E+03   -.402E+02 -.174E+02 0.892E+01
   0.180E+03 0.852E+02 0.110E+03   -.220E+03 -.102E+03 -.118E+03   0.402E+02 0.174E+02 0.892E+01
   -.180E+03 0.852E+02 0.110E+03   0.220E+03 -.102E+03 -.118E+03   -.402E+02 0.174E+02 0.892E+01
   0.180E+03 -.852E+02 0.110E+03   -.220E+03 0.102E+03 -.118E+03   0.402E+02 -.174E+02 0.892E+01
   0.195E+03 0.569E+02 0.153E+02   -.240E+03 -.702E+02 -.203E+02   0.445E+02 0.134E+02 0.515E+01
   -.195E+03 -.569E+02 0.153E+02   0.240E+03 0.702E+02 -.203E+02   -.445E+02 -.134E+02 0.515E+01
   0.195E+03 -.569E+02 0.153E+02   -.240E+03 0.702E+02 -.203E+02   0.445E+02 -.134E+02 0.515E+01
   -.195E+03 0.569E+02 0.153E+02   0.240E+03 -.702E+02 -.203E+02   -.445E+02 0.134E+02 0.515E+01
 -----------------------------------------------------------------------------------------------
   -.589E-04 -.309E-03 -.154E+02   -.568E-13 0.142E-12 0.139E-12   0.669E-04 0.320E-03 0.154E+02


 POSITION                                       TOTAL-FORCE (eV/Angst)
 -----------------------------------------------------------------------------------
      4.40742      2.74914      1.21164         0.008127      0.033103     -0.057647
      8.74357      1.17389      4.09263        -0.007994     -0.033083     -0.057688
     10.98296      3.13531      1.21170         0.008319     -0.033084     -0.057829
      2.16803      0.78771      4.09272        -0.008477      0.033109     -0.057783
      5.39826      2.42504      2.28754        -0.033476      0.020277     -0.071508
      7.75274      1.49797      5.16853         0.033446     -0.020254     -0.071501
     11.97382      3.45943      2.28758        -0.033978     -0.020127     -0.071666
      1.17717      0.46358      5.16859         0.033982      0.020206     -0.071706
      4.19452      3.72797      5.30862        -0.048010      0.011219     -0.025268
      8.95647      0.19506      2.42760         0.048043     -0.011233     -0.025286
     10.77007      2.15647      5.30868        -0.048144     -0.011286     -0.025371
      2.38093      1.76656      2.42770         0.048130      0.011267     -0.025371
      4.91285      1.87479      3.09685        -0.003463      0.000056     -0.018812
      8.23815      2.04822      0.21584         0.003470     -0.000063     -0.018822
     11.48840      0.08670      3.09687        -0.003444     -0.000030     -0.018752
      1.66259      3.83630      0.21588         0.003433      0.000048     -0.018754
      6.20652      1.81613      1.85998        -0.025041      0.017572      0.016487
      6.94447      2.10688      4.74098         0.025063     -0.017593      0.016484
     12.78206      0.14535      1.85999        -0.024957     -0.017584      0.016451
      0.36894      3.77766      4.74099         0.024932      0.017547      0.016449
      5.85763      3.34641      2.66510        -0.001503     -0.025663     -0.014360
      7.29338      0.57660      5.54608         0.001495      0.025662     -0.014354
     12.43318      2.53808      2.66515        -0.001268      0.025414     -0.014235
      0.71780      1.38492      5.54616         0.001300     -0.025454     -0.014223
      4.90922      3.49807      0.23573        -0.014338     -0.083661      0.089329
      8.24178      0.42496      3.11671         0.014307      0.083699      0.089391
     11.48475      2.38630      0.23582        -0.014305      0.083880      0.089543
      1.66625      1.53672      3.11684         0.014315     -0.083854      0.089527
      3.23162      2.36370      1.19314         0.029914      0.021104      0.081863
      9.91937      1.55935      4.07411        -0.030027     -0.021154      0.081857
      9.80718      3.52079      1.19316         0.029934     -0.021122      0.081786
      3.34382      0.40224      4.07418        -0.029785      0.021081      0.081770
 -----------------------------------------------------------------------------------
    total drift:                                0.000008      0.000011      0.000089


--------------------------------------------------------------------------------------------------------



  FREE ENERGIE OF THE ION-ELECTRON SYSTEM (eV)
  ---------------------------------------------------
  free  energy   TOTEN  =      -189.45432961 eV

  energy  without entropy=     -189.45432961  energy(sigma->0) =     -189.45432961



--------------------------------------------------------------------------------------------------------


    POTLOK:  cpu time      0.0269: real time      0.0269


--------------------------------------------------------------------------------------------------------


 stress matrix after NEB project (eV)
      0.00000      0.00000      0.00000
      0.00000      0.00000      0.00000
      0.00000      0.00000      0.00000
  FORCES: max atom, RMS     0.123525    0.070654
  FORCE total and by dimension    0.399678    0.089543
  Stress total and by dimension    0.000000    0.000000
 writing wavefunctions
     LOOP+:  cpu time     36.1949: real time     36.5900
    4ORBIT:  cpu time      0.0000: real time      0.0000

 total amount of memory used by VASP MPI-rank0    60691. kBytes
=======================================================================

   base      :      30000. kBytes
   nonl-proj :       5404. kBytes
   fftplans  :       1317. kBytes
   grid      :       2349. kBytes
   one-center:          3. kBytes
   wavefun   :      21618. kBytes

  
  
 General timing and accounting informations for this job:
 ========================================================
  
                  Total CPU time used (sec):       50.213
                            User time (sec):       47.483
                          System time (sec):        2.730
                         Elapsed time (sec):       53.728
  
                   Maximum memory used (kb):      227324.
                   Average memory used (kb):          N/A
  
                          Minor page faults:        25641
                          Major page faults:          660
                 Voluntary context switches:         4064
