 vasp.6.4.1 05Apr23 (build May 30 2023 08:45:49) gamma-only                      
 executed on        HPECrayEX_GCC date 2024.03.25  19:56:38
 running  512 mpi-ranks, with    1 threads/rank, on    4 nodes
 distrk:  each k-point on  512 cores,    1 groups
 distr:  one band on NCORE=   4 cores,  128 groups


--------------------------------------------------------------------------------------------------------


 INCAR:
   NPAR = 128
   ISMEAR = 0
   SIGMA = 0.01
   ALGO = C
   PREC = Accurate
   EDIFF = 1E-8
   ENCUT = 1000
   ISIF = 1
   IBRION = 1
   GGA = ML
   LUSE_VDW = .TRUE.
   ZAB_VDW = -1.8867
   AGGAC = 0.0000
   LASPH = .TRUE.
   LWAVE = .FALSE.
   LCHARG = .FALSE.

 POTCAR:    PAW_PBE C_h 06Feb2004                 
 POTCAR:    PAW_PBE H_h 06Feb2004                 
 POTCAR:    PAW_PBE O_h 06Feb2004                 
 -----------------------------------------------------------------------------
|                                                                             |
|               ----> ADVICE to this user running VASP <----                  |
|                                                                             |
|     You have switched on vdW-DFT.                                           |
|     This routine was written and supplied by Jiri Klimes. We recommend      |
|     that you carefully read and cite the following publications:            |
|       J. Klimes, D.R. Bowler, A. Michelides                                 |
|          J. Phys.: Cond Matt. 22 022201 (2010)                              |
|       J. Klimes, D.R. Bowler, A. Michelides                                 |
|          Phys. Rev. B. 83, 195131 (2011)                                    |
|     and references therein.                                                 |
|                                                                             |
 -----------------------------------------------------------------------------

 POTCAR:    PAW_PBE C_h 06Feb2004                 
   VRHFIN =C: s2p2                                                                                  
   LEXCH  = PE                                                                                      
   EATOM  =   147.1560 eV,   10.8157 Ry                                                             
                                                                                                    
   TITEL  = PAW_PBE C_h 06Feb2004                                                                   
   LULTRA =        F    use ultrasoft PP ?                                                          
   IUNSCR =        1    unscreen: 0-lin 1-nonlin 2-no                                               
   RPACOR =    0.800    partial core radius                                                         
   POMASS =   12.011; ZVAL   =    4.000    mass and valenz                                          
   RCORE  =    1.100    outmost cutoff radius                                                       
   RWIGS  =    1.630; RWIGS  =    0.863    wigner-seitz radius (au A)                               
   ENMAX  =  700.000; ENMIN  =  500.000 eV                                                          
   ICORE  =        2    local potential                                                             
   LCOR   =        T    correct aug charges                                                         
   LPAW   =        T    paw PP                                                                      
   EAUG   =  946.768                                                                                
   DEXC   =    0.000                                                                                
   RMAX   =    1.128    core radius for proj-oper                                                   
   RAUG   =    1.300    factor for augmentation sphere                                              
   RDEP   =    1.162    radius for radial grids                                                     
   RDEPT  =    1.088    core radius for aug-charge                                                  
                                                                                                    
   Atomic configuration                                                                             
    4 entries                                                                                       
     n  l   j            E        occ.                                                              
     1  0  0.50      -273.3789   2.0000                                                             
     2  0  0.50       -13.7508   2.0000                                                             
     2  1  0.50        -5.2854   2.0000                                                             
     3  2  1.50        -5.4423   0.0000                                                             
   Description                                                                                      
     l       E           TYP  RCUT    TYP  RCUT                                                     
     0    -13.7508458     23  1.100                                                                 
     0     -8.2022199     23  1.100                                                                 
     1     -5.2854383     23  1.100                                                                 
     1      1.1560700     23  1.100                                                                 
     2     -5.4423304      7  1.100                                                                 
  local pseudopotential read in
  partial core-charges read in
  partial kinetic energy density read in
  atomic valenz-charges read in
  non local Contribution for L=           0  read in
    real space projection operators read in
  non local Contribution for L=           0  read in
    real space projection operators read in
  non local Contribution for L=           1  read in
    real space projection operators read in
  non local Contribution for L=           1  read in
    real space projection operators read in
    PAW grid and wavefunctions read in

   number of l-projection  operators is LMAX  =           4
   number of lm-projection operators is LMMAX =           8

 POTCAR:    PAW_PBE H_h 06Feb2004                 
   VRHFIN =H: ultrasoft test                                                                        
   LEXCH  = PE                                                                                      
   EATOM  =    12.4884 eV,    0.9179 Ry                                                             
                                                                                                    
   TITEL  = PAW_PBE H_h 06Feb2004                                                                   
   LULTRA =        F    use ultrasoft PP ?                                                          
   IUNSCR =        0    unscreen: 0-lin 1-nonlin 2-no                                               
   RPACOR =    0.000    partial core radius                                                         
   POMASS =    1.000; ZVAL   =    1.000    mass and valenz                                          
   RCORE  =    0.800    outmost cutoff radius                                                       
   RWIGS  =    0.700; RWIGS  =    0.370    wigner-seitz radius (au A)                               
   ENMAX  =  700.000; ENMIN  =  350.000 eV                                                          
   RCLOC  =    0.701    cutoff for local pot                                                        
   LCOR   =        T    correct aug charges                                                         
   LPAW   =        T    paw PP                                                                      
   EAUG   = 1000.000                                                                                
   RMAX   =    0.819    core radius for proj-oper                                                   
   RAUG   =    1.000    factor for augmentation sphere                                              
   RDEP   =    0.817    radius for radial grids                                                     
   RDEPT  =    0.817    core radius for aug-charge                                                  
                                                                                                    
   Atomic configuration                                                                             
    2 entries                                                                                       
     n  l   j            E        occ.                                                              
     1  0  0.50        -6.4927   1.0000                                                             
     2  1  0.50        -3.4015   0.0000                                                             
   Description                                                                                      
     l       E           TYP  RCUT    TYP  RCUT                                                     
     0     -6.4927493     23  0.800                                                                 
     0      6.8029130     23  0.800                                                                 
     1     -6.8029130     23  0.800                                                                 
  local pseudopotential read in
  atomic valenz-charges read in
  non local Contribution for L=           0  read in
    real space projection operators read in
  non local Contribution for L=           0  read in
    real space projection operators read in
  non local Contribution for L=           1  read in
    real space projection operators read in
    PAW grid and wavefunctions read in

   number of l-projection  operators is LMAX  =           3
   number of lm-projection operators is LMMAX =           5

 POTCAR:    PAW_PBE O_h 06Feb2004                 
   VRHFIN =O: s2p4                                                                                  
   LEXCH  = PE                                                                                      
   EATOM  =   432.3788 eV,   31.7789 Ry                                                             
                                                                                                    
   TITEL  = PAW_PBE O_h 06Feb2004                                                                   
   LULTRA =        F    use ultrasoft PP ?                                                          
   IUNSCR =        1    unscreen: 0-lin 1-nonlin 2-no                                               
   RPACOR =    0.800    partial core radius                                                         
   POMASS =   16.000; ZVAL   =    6.000    mass and valenz                                          
   RCORE  =    1.100    outmost cutoff radius                                                       
   RWIGS  =    1.400; RWIGS  =    0.741    wigner-seitz radius (au A)                               
   ENMAX  =  700.000; ENMIN  =  500.000 eV                                                          
   ICORE  =        2    local potential                                                             
   LCOR   =        T    correct aug charges                                                         
   LPAW   =        T    paw PP                                                                      
   EAUG   =  888.804                                                                                
   DEXC   =    0.000                                                                                
   RMAX   =    1.128    core radius for proj-oper                                                   
   RAUG   =    1.300    factor for augmentation sphere                                              
   RDEP   =    1.125    radius for radial grids                                                     
   RDEPT  =    1.088    core radius for aug-charge                                                  
                                                                                                    
   Atomic configuration                                                                             
    4 entries                                                                                       
     n  l   j            E        occ.                                                              
     1  0  0.50      -514.6923   2.0000                                                             
     2  0  0.50       -23.9615   2.0000                                                             
     2  1  0.50        -9.0305   4.0000                                                             
     3  2  1.50        -9.5241   0.0000                                                             
   Description                                                                                      
     l       E           TYP  RCUT    TYP  RCUT                                                     
     0    -23.9615319     23  1.100                                                                 
     0    -25.3221145     23  1.100                                                                 
     1     -9.0304911     23  1.100                                                                 
     1     -5.4802209     23  1.100                                                                 
     2     -9.5240782      7  1.100                                                                 
  local pseudopotential read in
  partial core-charges read in
  partial kinetic energy density read in
  atomic valenz-charges read in
  non local Contribution for L=           0  read in
    real space projection operators read in
  non local Contribution for L=           0  read in
    real space projection operators read in
  non local Contribution for L=           1  read in
    real space projection operators read in
  non local Contribution for L=           1  read in
    real space projection operators read in
    PAW grid and wavefunctions read in

   number of l-projection  operators is LMAX  =           4
   number of lm-projection operators is LMMAX =           8

 -----------------------------------------------------------------------------
|                                                                             |
|               ----> ADVICE to this user running VASP <----                  |
|                                                                             |
|     You have a (more or less) 'large supercell' and for larger cells it     |
|     might be more efficient to use real-space projection operators.         |
|     Therefore, try LREAL= Auto in the INCAR file.                           |
|     Mind: For very accurate calculation, you might also keep the            |
|     reciprocal projection scheme (i.e. LREAL=.FALSE.).                      |
|                                                                             |
 -----------------------------------------------------------------------------

 -----------------------------------------------------------------------------
|                                                                             |
|               ----> ADVICE to this user running VASP <----                  |
|                                                                             |
|     You enforced a specific xc type in the INCAR file but a different       |
|     type was found in the POTCAR file.                                      |
|     I HOPE YOU KNOW WHAT YOU ARE DOING!                                     |
|                                                                             |
 -----------------------------------------------------------------------------

  PAW_PBE C_h 06Feb2004                 :
 energy of atom  1       EATOM= -147.1560
 kinetic energy error for atom=    0.0031 (will be added to EATOM!!)
  PAW_PBE H_h 06Feb2004                 :
 energy of atom  2       EATOM=  -12.4884
 kinetic energy error for atom=    0.0006 (will be added to EATOM!!)
  PAW_PBE O_h 06Feb2004                 :
 energy of atom  3       EATOM= -432.3788
 kinetic energy error for atom=    0.0171 (will be added to EATOM!!)


 POSCAR: super cell
  positions in direct lattice
  No initial velocities read in
 exchange correlation table for  LEXCH =       44
   RHO(1)=    0.500       N(1)  =     2000
   RHO(2)=  100.500       N(2)  =     4000



--------------------------------------------------------------------------------------------------------


 ion  position               nearest neighbor table
   1  0.041  0.466  0.487- 101 1.09  66 1.10  33 1.51  16 1.53
   2  0.541  0.466  0.487- 102 1.09  65 1.10  34 1.51  15 1.53
   3  0.041  0.966  0.487- 103 1.09  68 1.10  35 1.51  14 1.53
   4  0.541  0.966  0.487- 104 1.09  67 1.10  36 1.51  13 1.53
   5  0.041  0.466  0.987-  97 1.09  70 1.10  37 1.51  12 1.53
   6  0.541  0.466  0.987-  98 1.09  69 1.10  38 1.51  11 1.53
   7  0.041  0.966  0.987-  99 1.09  72 1.10  39 1.51  10 1.53
   8  0.541  0.966  0.987- 100 1.09  71 1.10  40 1.51   9 1.53
   9  0.459  0.034  0.013- 109 1.09  74 1.10  41 1.51   8 1.53
  10  0.959  0.034  0.013- 110 1.09  73 1.10  42 1.51   7 1.53
  11  0.459  0.534  0.013- 111 1.09  76 1.10  43 1.51   6 1.53
  12  0.959  0.534  0.013- 112 1.09  75 1.10  44 1.51   5 1.53
  13  0.459  0.034  0.513- 105 1.09  78 1.10  45 1.51   4 1.53
  14  0.959  0.034  0.513- 106 1.09  77 1.10  46 1.51   3 1.53
  15  0.459  0.534  0.513- 107 1.09  80 1.10  47 1.51   2 1.53
  16  0.959  0.534  0.513- 108 1.09  79 1.10  48 1.51   1 1.53
  17  0.041  0.284  0.237- 113 1.09  82 1.10  49 1.51  26 1.53
  18  0.541  0.284  0.237- 114 1.09  81 1.10  50 1.51  25 1.53
  19  0.041  0.784  0.237- 115 1.09  84 1.10  51 1.51  28 1.53
  20  0.541  0.784  0.237- 116 1.09  83 1.10  52 1.51  27 1.53
  21  0.041  0.284  0.737- 117 1.09  86 1.10  53 1.51  30 1.53
  22  0.541  0.284  0.737- 118 1.09  85 1.10  54 1.51  29 1.53
  23  0.041  0.784  0.737- 119 1.09  88 1.10  55 1.51  32 1.53
  24  0.541  0.784  0.737- 120 1.09  87 1.10  56 1.51  31 1.53
  25  0.459  0.216  0.263- 121 1.09  90 1.10  57 1.51  18 1.53
  26  0.959  0.216  0.263- 122 1.09  89 1.10  58 1.51  17 1.53
  27  0.459  0.716  0.263- 123 1.09  92 1.10  59 1.51  20 1.53
  28  0.959  0.716  0.263- 124 1.09  91 1.10  60 1.51  19 1.53
  29  0.459  0.216  0.763- 125 1.09  94 1.10  61 1.51  22 1.53
  30  0.959  0.216  0.763- 126 1.09  93 1.10  62 1.51  21 1.53
  31  0.459  0.716  0.763- 127 1.09  96 1.10  63 1.51  24 1.53
  32  0.959  0.716  0.763- 128 1.09  95 1.10  64 1.51  23 1.53
  33  0.129  0.483  0.383- 163 1.23 193 1.35   1 1.51
  34  0.629  0.483  0.383- 164 1.23 194 1.35   2 1.51
  35  0.129  0.983  0.383- 161 1.23 195 1.35   3 1.51
  36  0.629  0.983  0.383- 162 1.23 196 1.35   4 1.51
  37  0.129  0.483  0.883- 167 1.23 197 1.35   5 1.51
  38  0.629  0.483  0.883- 168 1.23 198 1.35   6 1.51
  39  0.129  0.983  0.883- 165 1.23 199 1.35   7 1.51
  40  0.629  0.983  0.883- 166 1.23 200 1.35   8 1.51
  41  0.371  0.017  0.117- 171 1.23 201 1.35   9 1.51
  42  0.871  0.017  0.117- 172 1.23 202 1.35  10 1.51
  43  0.371  0.517  0.117- 169 1.23 203 1.35  11 1.51
  44  0.871  0.517  0.117- 170 1.23 204 1.35  12 1.51
  45  0.371  0.017  0.617- 175 1.23 205 1.35  13 1.51
  46  0.871  0.017  0.617- 176 1.23 206 1.35  14 1.51
  47  0.371  0.517  0.617- 173 1.23 207 1.35  15 1.51
  48  0.871  0.517  0.617- 174 1.23 208 1.35  16 1.51
  49  0.129  0.267  0.133- 177 1.23 209 1.35  17 1.51
  50  0.629  0.267  0.133- 178 1.23 210 1.35  18 1.51
  51  0.129  0.767  0.133- 179 1.23 211 1.35  19 1.51
  52  0.629  0.767  0.133- 180 1.23 212 1.35  20 1.51
  53  0.129  0.267  0.633- 181 1.23 213 1.35  21 1.51
  54  0.629  0.267  0.633- 182 1.23 214 1.35  22 1.51
  55  0.129  0.767  0.633- 183 1.23 215 1.35  23 1.51
  56  0.629  0.767  0.633- 184 1.23 216 1.35  24 1.51
  57  0.371  0.233  0.367- 185 1.23 217 1.35  25 1.51
  58  0.871  0.233  0.367- 186 1.23 218 1.35  26 1.51
  59  0.371  0.733  0.367- 187 1.23 219 1.35  27 1.51
  60  0.871  0.733  0.367- 188 1.23 220 1.35  28 1.51
  61  0.371  0.233  0.867- 189 1.23 221 1.35  29 1.51
  62  0.871  0.233  0.867- 190 1.23 222 1.35  30 1.51
  63  0.371  0.733  0.867- 191 1.23 223 1.35  31 1.51
  64  0.871  0.733  0.867- 192 1.23 224 1.35  32 1.51
  65  0.489  0.416  0.453-   2 1.10
  66  0.989  0.416  0.453-   1 1.10
  67  0.489  0.916  0.453-   4 1.10
  68  0.989  0.916  0.453-   3 1.10
  69  0.489  0.416  0.953-   6 1.10
  70  0.989  0.416  0.953-   5 1.10
  71  0.489  0.916  0.953-   8 1.10
  72  0.989  0.916  0.953-   7 1.10
  73  0.011  0.084  0.047-  10 1.10
  74  0.511  0.084  0.047-   9 1.10
  75  0.011  0.584  0.047-  12 1.10
  76  0.511  0.584  0.047-  11 1.10
  77  0.011  0.084  0.547-  14 1.10
  78  0.511  0.084  0.547-  13 1.10
  79  0.011  0.584  0.547-  16 1.10
  80  0.511  0.584  0.547-  15 1.10
  81  0.489  0.334  0.203-  18 1.10
  82  0.989  0.334  0.203-  17 1.10
  83  0.489  0.834  0.203-  20 1.10
  84  0.989  0.834  0.203-  19 1.10
  85  0.489  0.334  0.703-  22 1.10
  86  0.989  0.334  0.703-  21 1.10
  87  0.489  0.834  0.703-  24 1.10
  88  0.989  0.834  0.703-  23 1.10
  89  0.011  0.166  0.297-  26 1.10
  90  0.511  0.166  0.297-  25 1.10
  91  0.011  0.666  0.297-  28 1.10
  92  0.511  0.666  0.297-  27 1.10
  93  0.011  0.166  0.797-  30 1.10
  94  0.511  0.166  0.797-  29 1.10
  95  0.011  0.666  0.797-  32 1.10
  96  0.511  0.666  0.797-  31 1.10
  97  0.091  0.448  0.076-   5 1.09
  98  0.591  0.448  0.076-   6 1.09
  99  0.091  0.948  0.076-   7 1.09
 100  0.591  0.948  0.076-   8 1.09
 101  0.091  0.448  0.576-   1 1.09
 102  0.591  0.448  0.576-   2 1.09
 103  0.091  0.948  0.576-   3 1.09
 104  0.591  0.948  0.576-   4 1.09
 105  0.409  0.052  0.424-  13 1.09
 106  0.909  0.052  0.424-  14 1.09
 107  0.409  0.552  0.424-  15 1.09
 108  0.909  0.552  0.424-  16 1.09
 109  0.409  0.052  0.924-   9 1.09
 110  0.909  0.052  0.924-  10 1.09
 111  0.409  0.552  0.924-  11 1.09
 112  0.909  0.552  0.924-  12 1.09
 113  0.091  0.302  0.326-  17 1.09
 114  0.591  0.302  0.326-  18 1.09
 115  0.091  0.802  0.326-  19 1.09
 116  0.591  0.802  0.326-  20 1.09
 117  0.091  0.302  0.826-  21 1.09
 118  0.591  0.302  0.826-  22 1.09
 119  0.091  0.802  0.826-  23 1.09
 120  0.591  0.802  0.826-  24 1.09
 121  0.409  0.198  0.174-  25 1.09
 122  0.909  0.198  0.174-  26 1.09
 123  0.409  0.698  0.174-  27 1.09
 124  0.909  0.698  0.174-  28 1.09
 125  0.409  0.198  0.674-  29 1.09
 126  0.909  0.198  0.674-  30 1.09
 127  0.409  0.698  0.674-  31 1.09
 128  0.909  0.698  0.674-  32 1.09
 129  0.271  0.440  0.308- 193 0.99
 130  0.771  0.440  0.308- 194 1.00
 131  0.271  0.940  0.308- 195 1.00
 132  0.771  0.940  0.308- 196 1.00
 133  0.271  0.440  0.808- 197 1.00
 134  0.771  0.440  0.808- 198 1.00
 135  0.271  0.940  0.808- 199 1.00
 136  0.771  0.940  0.808- 200 1.00
 137  0.229  0.060  0.192- 201 1.00
 138  0.729  0.060  0.192- 202 1.00
 139  0.229  0.560  0.192- 203 1.00
 140  0.729  0.560  0.192- 204 1.00
 141  0.229  0.060  0.692- 205 1.00
 142  0.729  0.060  0.692- 206 1.00
 143  0.229  0.560  0.692- 207 1.00
 144  0.729  0.560  0.692- 208 1.00
 145  0.271  0.310  0.058- 209 1.00
 146  0.771  0.310  0.058- 210 1.00
 147  0.271  0.810  0.058- 211 1.00
 148  0.771  0.810  0.058- 212 1.00
 149  0.271  0.310  0.558- 213 1.00
 150  0.771  0.310  0.558- 214 1.00
 151  0.271  0.810  0.558- 215 1.00
 152  0.771  0.810  0.558- 216 1.00
 153  0.229  0.190  0.442- 217 1.00
 154  0.729  0.190  0.442- 218 1.00
 155  0.229  0.690  0.442- 219 1.00
 156  0.729  0.690  0.442- 220 1.00
 157  0.229  0.190  0.942- 221 1.00
 158  0.729  0.190  0.942- 222 1.00
 159  0.229  0.690  0.942- 223 1.00
 160  0.729  0.690  0.942- 224 1.00
 161  0.122  0.038  0.307-  35 1.23
 162  0.622  0.038  0.307-  36 1.23
 163  0.122  0.538  0.307-  33 1.23
 164  0.622  0.538  0.307-  34 1.23
 165  0.122  0.038  0.807-  39 1.23
 166  0.622  0.038  0.807-  40 1.23
 167  0.122  0.538  0.807-  37 1.23
 168  0.622  0.538  0.807-  38 1.23
 169  0.378  0.462  0.193-  43 1.23
 170  0.878  0.462  0.193-  44 1.23
 171  0.378  0.962  0.193-  41 1.23
 172  0.878  0.962  0.193-  42 1.23
 173  0.378  0.462  0.693-  47 1.23
 174  0.878  0.462  0.693-  48 1.23
 175  0.378  0.962  0.693-  45 1.23
 176  0.878  0.962  0.693-  46 1.23
 177  0.122  0.212  0.057-  49 1.23
 178  0.622  0.212  0.057-  50 1.23
 179  0.122  0.712  0.057-  51 1.23
 180  0.622  0.712  0.057-  52 1.23
 181  0.122  0.212  0.557-  53 1.23
 182  0.622  0.212  0.557-  54 1.23
 183  0.122  0.712  0.557-  55 1.23
 184  0.622  0.712  0.557-  56 1.23
 185  0.378  0.288  0.443-  57 1.23
 186  0.878  0.288  0.443-  58 1.23
 187  0.378  0.788  0.443-  59 1.23
 188  0.878  0.788  0.443-  60 1.23
 189  0.378  0.288  0.943-  61 1.23
 190  0.878  0.288  0.943-  62 1.23
 191  0.378  0.788  0.943-  63 1.23
 192  0.878  0.788  0.943-  64 1.23
 193  0.216  0.429  0.380- 129 0.99  33 1.35
 194  0.716  0.429  0.381- 130 1.00  34 1.35
 195  0.216  0.929  0.381- 131 1.00  35 1.35
 196  0.716  0.929  0.381- 132 1.00  36 1.35
 197  0.216  0.429  0.881- 133 1.00  37 1.35
 198  0.716  0.429  0.881- 134 1.00  38 1.35
 199  0.216  0.929  0.881- 135 1.00  39 1.35
 200  0.716  0.929  0.881- 136 1.00  40 1.35
 201  0.284  0.071  0.119- 137 1.00  41 1.35
 202  0.784  0.071  0.119- 138 1.00  42 1.35
 203  0.284  0.571  0.119- 139 1.00  43 1.35
 204  0.784  0.571  0.119- 140 1.00  44 1.35
 205  0.284  0.071  0.619- 141 1.00  45 1.35
 206  0.784  0.071  0.619- 142 1.00  46 1.35
 207  0.284  0.571  0.619- 143 1.00  47 1.35
 208  0.784  0.571  0.619- 144 1.00  48 1.35
 209  0.216  0.321  0.131- 145 1.00  49 1.35
 210  0.716  0.321  0.131- 146 1.00  50 1.35
 211  0.216  0.821  0.131- 147 1.00  51 1.35
 212  0.716  0.821  0.131- 148 1.00  52 1.35
 213  0.216  0.321  0.631- 149 1.00  53 1.35
 214  0.716  0.321  0.631- 150 1.00  54 1.35
 215  0.216  0.821  0.631- 151 1.00  55 1.35
 216  0.716  0.821  0.631- 152 1.00  56 1.35
 217  0.284  0.179  0.369- 153 1.00  57 1.35
 218  0.784  0.179  0.369- 154 1.00  58 1.35
 219  0.284  0.679  0.369- 155 1.00  59 1.35
 220  0.784  0.679  0.369- 156 1.00  60 1.35
 221  0.284  0.179  0.869- 157 1.00  61 1.35
 222  0.784  0.179  0.869- 158 1.00  62 1.35
 223  0.284  0.679  0.869- 159 1.00  63 1.35
 224  0.784  0.679  0.869- 160 1.00  64 1.35

  LATTYP: Found a simple monoclinic cell.
 ALAT       =    10.2046250393
 B/A-ratio  =     1.7017524657
 C/A-ratio  =     1.0962105615
 COS(beta)  =    -0.0530312588
  
  Lattice vectors:
  
 A1 = (  -0.4180952641,   0.0000009800,  10.1960565192)
 A2 = (  -0.0000003170, -17.3657458226,  -0.0000013285)
 A3 = (  11.1856024325,   0.0000004103,  -0.1350561768)


Analysis of symmetry for initial positions (statically):
=====================================================================
 Subroutine PRICEL returns:
 Original cell was already a primitive cell.
 

 Routine SETGRP: Setting up the symmetry group for a 
 simple monoclinic supercell.


 Subroutine GETGRP returns: Found  1 space group operations
 (whereof  1 operations were pure point group operations)
 out of a pool of  4 trial point group operations.


The static configuration has the point symmetry C_1 .


Analysis of symmetry for dynamics (positions and initial velocities):
=====================================================================
 Subroutine PRICEL returns:
 Original cell was already a primitive cell.
 

 Routine SETGRP: Setting up the symmetry group for a 
 simple monoclinic supercell.


 Subroutine GETGRP returns: Found  1 space group operations
 (whereof  1 operations were pure point group operations)
 out of a pool of  4 trial point group operations.


The dynamic configuration has the point symmetry C_1 .


 Subroutine INISYM returns: Found  1 space group operations
 (whereof  1 operations are pure point group operations),
 and found     1 'primitive' translations


----------------------------------------------------------------------------------------

                                     Primitive cell                                     

  volume of cell :    1979.5660

  direct lattice vectors                    reciprocal lattice vectors
    11.185602433  0.000000410 -0.135056177     0.089444923 -0.000000002  0.003667741
     0.000000317 17.365745823  0.000001329    -0.000000002  0.057584627 -0.000000006
    -0.418095264  0.000000980 10.196056519     0.001184781 -0.000000008  0.098125716

  length of vectors
    11.186417744 17.365745823 10.204625039     0.089520091  0.057584627  0.098132869

  position of ions in fractional coordinates (direct lattice)
     0.041066693  0.465913599  0.486755121
     0.541066693  0.465913599  0.486755121
     0.041066693  0.965913599  0.486755121
     0.541066693  0.965913599  0.486755121
     0.041066693  0.465913599  0.986755121
     0.541066693  0.465913599  0.986755121
     0.041066693  0.965913599  0.986755121
     0.541066693  0.965913599  0.986755121
     0.458937595  0.034083142  0.013248319
     0.958937595  0.034083142  0.013248319
     0.458937595  0.534083142  0.013248319
     0.958937595  0.534083142  0.013248319
     0.458937595  0.034083142  0.513248319
     0.958937595  0.034083142  0.513248319
     0.458937595  0.534083142  0.513248319
     0.958937595  0.534083142  0.513248319
     0.041066497  0.284082731  0.236755280
     0.541066497  0.284082731  0.236755280
     0.041066497  0.784082731  0.236755280
     0.541066497  0.784082731  0.236755280
     0.041066497  0.284082731  0.736755280
     0.541066497  0.284082731  0.736755280
     0.041066497  0.784082731  0.736755280
     0.541066497  0.784082731  0.736755280
     0.458937306  0.215913208  0.263248391
     0.958937306  0.215913208  0.263248391
     0.458937306  0.715913208  0.263248391
     0.958937306  0.715913208  0.263248391
     0.458937306  0.215913208  0.763248391
     0.958937306  0.215913208  0.763248391
     0.458937306  0.715913208  0.763248391
     0.958937306  0.715913208  0.763248391
     0.129261624  0.483031071  0.382986048
     0.629261624  0.483031071  0.382986048
     0.129261624  0.983031071  0.382986048
     0.629261624  0.983031071  0.382986048
     0.129261624  0.483031071  0.882986048
     0.629261624  0.483031071  0.882986048
     0.129261624  0.983031071  0.882986048
     0.629261624  0.983031071  0.882986048
     0.370742603  0.016965722  0.117017195
     0.870742603  0.016965722  0.117017195
     0.370742603  0.516965722  0.117017195
     0.870742603  0.516965722  0.117017195
     0.370742603  0.016965722  0.617017195
     0.870742603  0.016965722  0.617017195
     0.370742603  0.516965722  0.617017195
     0.870742603  0.516965722  0.617017195
     0.129261426  0.266965243  0.132986286
     0.629261426  0.266965243  0.132986286
     0.129261426  0.766965243  0.132986286
     0.629261426  0.766965243  0.132986286
     0.129261426  0.266965243  0.632986286
     0.629261426  0.266965243  0.632986286
     0.129261426  0.766965243  0.632986286
     0.629261426  0.766965243  0.632986286
     0.370742347  0.233030619  0.367017344
     0.870742347  0.233030619  0.367017344
     0.370742347  0.733030619  0.367017344
     0.870742347  0.733030619  0.367017344
     0.370742347  0.233030619  0.867017344
     0.870742347  0.233030619  0.867017344
     0.370742347  0.733030619  0.867017344
     0.870742347  0.733030619  0.867017344
     0.488530297  0.415686296  0.452986275
     0.988530297  0.415686296  0.452986275
     0.488530297  0.915686296  0.452986275
     0.988530297  0.915686296  0.452986275
     0.488530297  0.415686296  0.952986275
     0.988530297  0.415686296  0.952986275
     0.488530297  0.915686296  0.952986275
     0.988530297  0.915686296  0.952986275
     0.011473967  0.084310406  0.047017182
     0.511473967  0.084310406  0.047017182
     0.011473967  0.584310406  0.047017182
     0.511473967  0.584310406  0.047017182
     0.011473967  0.084310406  0.547017182
     0.511473967  0.084310406  0.547017182
     0.011473967  0.584310406  0.547017182
     0.511473967  0.584310406  0.547017182
     0.488530182  0.334310064  0.202986464
     0.988530182  0.334310064  0.202986464
     0.488530182  0.834310064  0.202986464
     0.988530182  0.834310064  0.202986464
     0.488530182  0.334310064  0.702986464
     0.988530182  0.334310064  0.702986464
     0.488530182  0.834310064  0.702986464
     0.988530182  0.834310064  0.702986464
     0.011473632  0.165685893  0.297017195
     0.511473632  0.165685893  0.297017195
     0.011473632  0.665685893  0.297017195
     0.511473632  0.665685893  0.297017195
     0.011473632  0.165685893  0.797017195
     0.511473632  0.165685893  0.797017195
     0.011473632  0.665685893  0.797017195
     0.511473632  0.665685893  0.797017195
     0.091441191  0.447582791  0.075840107
     0.591441191  0.447582791  0.075840107
     0.091441191  0.947582791  0.075840107
     0.591441191  0.947582791  0.075840107
     0.091441191  0.447582791  0.575840107
     0.591441191  0.447582791  0.575840107
     0.091441191  0.947582791  0.575840107
     0.591441191  0.947582791  0.575840107
     0.408563134  0.052413943  0.424163271
     0.908563134  0.052413943  0.424163271
     0.408563134  0.552413943  0.424163271
     0.908563134  0.552413943  0.424163271
     0.408563134  0.052413943  0.924163271
     0.908563134  0.052413943  0.924163271
     0.408563134  0.552413943  0.924163271
     0.908563134  0.552413943  0.924163271
     0.091440991  0.302413466  0.325840326
     0.591440991  0.302413466  0.325840326
     0.091440991  0.802413466  0.325840326
     0.591440991  0.802413466  0.325840326
     0.091440991  0.302413466  0.825840326
     0.591440991  0.302413466  0.825840326
     0.091440991  0.802413466  0.825840326
     0.591440991  0.802413466  0.825840326
     0.408562835  0.197582498  0.174163358
     0.908562835  0.197582498  0.174163358
     0.408562835  0.697582498  0.174163358
     0.908562835  0.697582498  0.174163358
     0.408562835  0.197582498  0.674163358
     0.908562835  0.197582498  0.674163358
     0.408562835  0.697582498  0.674163358
     0.908562835  0.697582498  0.674163358
     0.270543495  0.439737430  0.307838202
     0.770543495  0.439737430  0.307838202
     0.270543495  0.939737430  0.307838202
     0.770543495  0.939737430  0.307838202
     0.270543495  0.439737430  0.807838202
     0.770543495  0.439737430  0.807838202
     0.270543495  0.939737430  0.807838202
     0.770543495  0.939737430  0.807838202
     0.229460677  0.060259313  0.192165031
     0.729460677  0.060259313  0.192165031
     0.229460677  0.560259313  0.192165031
     0.729460677  0.560259313  0.192165031
     0.229460677  0.060259313  0.692165031
     0.729460677  0.060259313  0.692165031
     0.229460677  0.560259313  0.692165031
     0.729460677  0.560259313  0.692165031
     0.270543330  0.310258851  0.057838371
     0.770543330  0.310258851  0.057838371
     0.270543330  0.810258851  0.057838371
     0.770543330  0.810258851  0.057838371
     0.270543330  0.310258851  0.557838371
     0.770543330  0.310258851  0.557838371
     0.270543330  0.810258851  0.557838371
     0.770543330  0.810258851  0.557838371
     0.229460464  0.189736998  0.442165196
     0.729460464  0.189736998  0.442165196
     0.229460464  0.689736998  0.442165196
     0.729460464  0.689736998  0.442165196
     0.229460464  0.189736998  0.942165196
     0.729460464  0.189736998  0.942165196
     0.229460464  0.689736998  0.942165196
     0.729460464  0.689736998  0.942165196
     0.122444521  0.038484774  0.307365811
     0.622444521  0.038484774  0.307365811
     0.122444521  0.538484774  0.307365811
     0.622444521  0.538484774  0.307365811
     0.122444521  0.038484774  0.807365811
     0.622444521  0.038484774  0.807365811
     0.122444521  0.538484774  0.807365811
     0.622444521  0.538484774  0.807365811
     0.377559692  0.461512027  0.192637607
     0.877559692  0.461512027  0.192637607
     0.377559692  0.961512027  0.192637607
     0.877559692  0.961512027  0.192637607
     0.377559692  0.461512027  0.692637607
     0.877559692  0.461512027  0.692637607
     0.377559692  0.961512027  0.692637607
     0.877559692  0.961512027  0.692637607
     0.122444359  0.211511506  0.057366047
     0.622444359  0.211511506  0.057366047
     0.122444359  0.711511506  0.057366047
     0.622444359  0.711511506  0.057366047
     0.122444359  0.211511506  0.557366047
     0.622444359  0.211511506  0.557366047
     0.122444359  0.711511506  0.557366047
     0.622444359  0.711511506  0.557366047
     0.377559457  0.288484281  0.442637721
     0.877559457  0.288484281  0.442637721
     0.377559457  0.788484281  0.442637721
     0.877559457  0.788484281  0.442637721
     0.377559457  0.288484281  0.942637721
     0.877559457  0.288484281  0.942637721
     0.377559457  0.788484281  0.942637721
     0.877559457  0.788484281  0.942637721
     0.216282071  0.429443074  0.379821869
     0.716282071  0.429443074  0.380801819
     0.216282071  0.929443074  0.380801819
     0.716282071  0.929443074  0.380801819
     0.216282071  0.429443074  0.880801819
     0.716282071  0.429443074  0.880801819
     0.216282071  0.929443074  0.880801819
     0.716282071  0.929443074  0.880801819
     0.283722065  0.070553675  0.119201411
     0.783722065  0.070553675  0.119201411
     0.283722065  0.570553675  0.119201411
     0.783722065  0.570553675  0.119201411
     0.283722065  0.070553675  0.619201411
     0.783722065  0.070553675  0.619201411
     0.283722065  0.570553675  0.619201411
     0.783722065  0.570553675  0.619201411
     0.216281892  0.320553230  0.130801967
     0.716281892  0.320553230  0.130801967
     0.216281892  0.820553230  0.130801967
     0.716281892  0.820553230  0.130801967
     0.216281892  0.320553230  0.630801967
     0.716281892  0.320553230  0.630801967
     0.216281892  0.820553230  0.630801967
     0.716281892  0.820553230  0.630801967
     0.283721855  0.179442662  0.369201530
     0.783721855  0.179442662  0.369201530
     0.283721855  0.679442662  0.369201530
     0.783721855  0.679442662  0.369201530
     0.283721855  0.179442662  0.869201530
     0.783721855  0.179442662  0.869201530
     0.283721855  0.679442662  0.869201530
     0.783721855  0.679442662  0.869201530

  ion indices of the primitive-cell ions
   primitive index   ion index
                 1           1
                 2           2
                 3           3
                 4           4
                 5           5
                 6           6
                 7           7
                 8           8
                 9           9
                10          10
                11          11
                12          12
                13          13
                14          14
                15          15
                16          16
                17          17
                18          18
                19          19
                20          20
                21          21
                22          22
                23          23
                24          24
                25          25
                26          26
                27          27
                28          28
                29          29
                30          30
                31          31
                32          32
                33          33
                34          34
                35          35
                36          36
                37          37
                38          38
                39          39
                40          40
                41          41
                42          42
                43          43
                44          44
                45          45
                46          46
                47          47
                48          48
                49          49
                50          50
                51          51
                52          52
                53          53
                54          54
                55          55
                56          56
                57          57
                58          58
                59          59
                60          60
                61          61
                62          62
                63          63
                64          64
                65          65
                66          66
                67          67
                68          68
                69          69
                70          70
                71          71
                72          72
                73          73
                74          74
                75          75
                76          76
                77          77
                78          78
                79          79
                80          80
                81          81
                82          82
                83          83
                84          84
                85          85
                86          86
                87          87
                88          88
                89          89
                90          90
                91          91
                92          92
                93          93
                94          94
                95          95
                96          96
                97          97
                98          98
                99          99
               100         100
               101         101
               102         102
               103         103
               104         104
               105         105
               106         106
               107         107
               108         108
               109         109
               110         110
               111         111
               112         112
               113         113
               114         114
               115         115
               116         116
               117         117
               118         118
               119         119
               120         120
               121         121
               122         122
               123         123
               124         124
               125         125
               126         126
               127         127
               128         128
               129         129
               130         130
               131         131
               132         132
               133         133
               134         134
               135         135
               136         136
               137         137
               138         138
               139         139
               140         140
               141         141
               142         142
               143         143
               144         144
               145         145
               146         146
               147         147
               148         148
               149         149
               150         150
               151         151
               152         152
               153         153
               154         154
               155         155
               156         156
               157         157
               158         158
               159         159
               160         160
               161         161
               162         162
               163         163
               164         164
               165         165
               166         166
               167         167
               168         168
               169         169
               170         170
               171         171
               172         172
               173         173
               174         174
               175         175
               176         176
               177         177
               178         178
               179         179
               180         180
               181         181
               182         182
               183         183
               184         184
               185         185
               186         186
               187         187
               188         188
               189         189
               190         190
               191         191
               192         192
               193         193
               194         194
               195         195
               196         196
               197         197
               198         198
               199         199
               200         200
               201         201
               202         202
               203         203
               204         204
               205         205
               206         206
               207         207
               208         208
               209         209
               210         210
               211         211
               212         212
               213         213
               214         214
               215         215
               216         216
               217         217
               218         218
               219         219
               220         220
               221         221
               222         222
               223         223
               224         224

----------------------------------------------------------------------------------------



 KPOINTS: auto                                    

Automatic generation of k-mesh.
 Grid dimensions read from file:
 generate k-points for:    1    1    1

 Generating k-lattice:

  Cartesian coordinates                     Fractional coordinates (reciprocal lattice)
     0.089444923 -0.000000002  0.003667741     1.000000000 -0.000000000 -0.000000000
    -0.000000002  0.057584627 -0.000000006    -0.000000000  1.000000000 -0.000000000
     0.001184781 -0.000000008  0.098125716    -0.000000000  0.000000000  1.000000000

  Length of vectors
     0.089520091  0.057584627  0.098132869

  Shift w.r.t. Gamma in fractional coordinates (k-lattice)
     0.000000000  0.000000000  0.000000000

 
 Subroutine IBZKPT returns following result:
 ===========================================
 
 Found      1 irreducible k-points:
 
 Following reciprocal coordinates:
            Coordinates               Weight
  0.000000  0.000000  0.000000      1.000000
 
 Following cartesian coordinates:
            Coordinates               Weight
  0.000000  0.000000  0.000000      1.000000
 


--------------------------------------------------------------------------------------------------------




 Dimension of arrays:
   k-points           NKPTS =      1   k-points in BZ     NKDIM =      1   number of bands    NBANDS=    512
   number of dos      NEDOS =    301   number of ions     NIONS =    224
   non local maximal  LDIM  =      4   non local SUM 2l+1 LMDIM =      8
   total plane-waves  NPLWV = ******
   max r-space proj   IRMAX =      1   max aug-charges    IRDMAX=   8793
   dimension x,y,z NGX =   120 NGY =  180 NGZ =  108
   dimension x,y,z NGXF=   240 NGYF=  360 NGZF=  216
   support grid    NGXF=   240 NGYF=  360 NGZF=  216
   ions per type =              64  96  64
   NGX,Y,Z   is equivalent  to a cutoff of  17.83, 17.23, 17.59 a.u.
   NGXF,Y,Z  is equivalent  to a cutoff of  35.67, 34.46, 35.19 a.u.

 SYSTEM =  unknown system                          
 POSCAR =  super cell                              

 Startparameter for this run:
   NWRITE =      2    write-flag & timer
   PREC   = accura    normal or accurate (medium, high low for compatibility)
   ISTART =      0    job   : 0-new  1-cont  2-samecut
   ICHARG =      2    charge: 1-file 2-atom 10-const
   ISPIN  =      1    spin polarized calculation?
   LNONCOLLINEAR =      F non collinear calculations
   LSORBIT =      F    spin-orbit coupling
   INIWAV =      1    electr: 0-lowe 1-rand  2-diag
   LASPH  =      T    aspherical Exc in radial PAW
 Electronic Relaxation 1
   ENCUT  = 1000.0 eV  73.50 Ry    8.57 a.u.  28.84 44.78 26.31*2*pi/ulx,y,z
   ENINI  = 1000.0     initial cutoff
   ENAUG  = 1000.0 eV  augmentation charge cutoff
   NELM   =     60;   NELMIN=  2; NELMDL=  0     # of ELM steps 
   EDIFF  = 0.1E-07   stopping-criterion for ELM
   LREAL  =      F    real-space projection
   NLSPLINE    = F    spline interpolate recip. space projectors
   LCOMPAT=      F    compatible to vasp.4.4
   GGA_COMPAT  = T    GGA compatible to vasp.4.4-vasp.4.6
   LMAXPAW     = -100 max onsite density
   LMAXMIX     =    2 max onsite mixed and CHGCAR
   VOSKOWN=      0    Vosko Wilk Nusair interpolation
   ROPT   =    0.00000   0.00000   0.00000
 Ionic relaxation
   EDIFFG = 0.1E-06   stopping-criterion for IOM
   NSW    =      0    number of steps for IOM
   NBLOCK =      1;   KBLOCK =      1    inner block; outer block 
   IBRION =     -1    ionic relax: 0-MD 1-quasi-New 2-CG
   NFREE  =      0    steps in history (QN), initial steepest desc. (CG)
   ISIF   =      1    stress and relaxation
   IWAVPR =     10    prediction:  0-non 1-charg 2-wave 3-comb
   ISYM   =      2    0-nonsym 1-usesym 2-fastsym
   LCORR  =      T    Harris-Foulkes like correction to forces

   POTIM  = 0.5000    time-step for ionic-motion
   TEIN   =    0.0    initial temperature
   TEBEG  =    0.0;   TEEND  =   0.0 temperature during run
   SMASS  =  -3.00    Nose mass-parameter (am)
   estimated Nose-frequenzy (Omega)   =  0.10E-29 period in steps = 0.13E+47 mass=  -0.286E-26a.u.
   SCALEE = 1.0000    scale energy and forces
   NPACO  =    256;   APACO  = 10.0  distance and # of slots for P.C.
   PSTRESS=    0.0 pullay stress

  Mass of Ions in am
   POMASS =  12.01  1.00 16.00
  Ionic Valenz
   ZVAL   =   4.00  1.00  6.00
  Atomic Wigner-Seitz radii
   RWIGS  =  -1.00 -1.00 -1.00
  virtual crystal weights 
   VCA    =   1.00  1.00  1.00
   NELECT =     736.0000    total number of electrons
   NUPDOWN=      -1.0000    fix difference up-down

 DOS related values:
   EMIN   =  10.00;   EMAX   =-10.00  energy-range for DOS
   EFERMI =   0.00;   METHOD = LEGACY      
   ISMEAR =     0;   SIGMA  =   0.01  broadening in eV -4-tet -1-fermi 0-gaus

 Electronic relaxation 2 (details)
   IALGO  =     58    algorithm
   LDIAG  =      T    sub-space diagonalisation (order eigenvalues)
   LSUBROT=      F    optimize rotation matrix (better conditioning)
   TURBO    =      0    0=normal 1=particle mesh
   IRESTART =      0    0=no restart 2=restart with 2 vectors
   NREBOOT  =      0    no. of reboots
   NMIN     =      0    reboot dimension
   EREF     =   0.00    reference energy to select bands
   IMIX   =      4    mixing-type and parameters
     AMIX     =   0.40;   BMIX     =  1.00
     AMIX_MAG =   1.60;   BMIX_MAG =  1.00
     AMIN     =   0.10
     WC   =   100.;   INIMIX=   1;  MIXPRE=   1;  MAXMIX= -45

 Intra band minimization:
   WEIMIN = 0.0000     energy-eigenvalue tresh-hold
   EBREAK =  0.49E-11  absolut break condition
   DEPER  =   0.30     relativ break condition  

   TIME   =   0.40     timestep for ELM

  volume/ion in A,a.u.               =       8.84        59.64
  Fermi-wavevector in a.u.,A,eV,Ry     =   1.177183  2.224554 18.854418  1.385761
  Thomas-Fermi vector in A             =   2.313534

 Write flags
   LWAVE        =      F    write WAVECAR
   LDOWNSAMPLE  =      F    k-point downsampling of WAVECAR
   LCHARG       =      F    write CHGCAR
   LVTOT        =      F    write LOCPOT, total local potential
   LVHAR        =      F    write LOCPOT, Hartree potential only
   LELF         =      F    write electronic localiz. function (ELF)
   LORBIT       =      0    0 simple, 1 ext, 2 COOP (PROOUT), +10 PAW based schemes


 Dipole corrections
   LMONO  =      F    monopole corrections only (constant potential shift)
   LDIPOL =      F    correct potential (dipole corrections)
   IDIPOL =      0    1-x, 2-y, 3-z, 4-all directions 
   EPSILON=  1.0000000 bulk dielectric constant

 Exchange correlation treatment:
   GGA     =    ML    GGA type
   LEXCH   =    44    internal setting for exchange type
   LIBXC   =     F    Libxc                    
   VOSKOWN =     0    Vosko Wilk Nusair interpolation
   LHFCALC =     F    Hartree Fock is set to
   LHFONE  =     F    Hartree Fock one center treatment
   AEXX    =    0.0000 exact exchange contribution

 vdW DFT:
   LUSE_VDW   =     T    switch on vdW DFT
   IVDW_NL    =     1    kernel type
   LSPIN_VDW  =     F    use spin-polarized vdW DFT
   Zab_VDW    =******    correlation parameter
   PARAM1     =0.1234
   PARAM2     =1.0000
   PARAM3     =0.0000
   -- rVV10 --
   BPARAM     = 6.3000
   CPARAM     = 0.0093

 Linear response parameters
   LEPSILON=     F    determine dielectric tensor
   LRPA    =     F    only Hartree local field effects (RPA)
   LNABLA  =     F    use nabla operator in PAW spheres
   LVEL    =     F    velocity operator in full k-point grid
   CSHIFT  =0.1000    complex shift for real part using Kramers Kronig
   OMEGAMAX=  -1.0    maximum frequency
   DEG_THRESHOLD= 0.2000000E-02 threshold for treating states as degnerate
   RTIME   =   -0.100 relaxation time in fs
  (WPLASMAI=    0.000 imaginary part of plasma frequency in eV, 0.658/RTIME)
   DFIELD  = 0.0000000 0.0000000 0.0000000 field for delta impulse in time

  Optional k-point grid parameters
   LKPOINTS_OPT  =     F    use optional k-point grid
   KPOINTS_OPT_MODE=     1    mode for optional k-point grid

 Orbital magnetization related:
   ORBITALMAG=     F  switch on orbital magnetization
   LCHIMAG   =     F  perturbation theory with respect to B field
   DQ        =  0.001000  dq finite difference perturbation B field
   LLRAUG    =     F  two centre corrections for induced B field
   LBONE     =     F  B-component reconstruction in AE one-centre
   LVGVCALC  =     T  calculate vGv susceptibility
   LVGVAPPL  =     F  apply vGv susceptibility instead of pGv for G=0

 Random number generation:
   RANDOM_GENERATOR = DEFAULT
   PCG_SEED         = not used


--------------------------------------------------------------------------------------------------------


 Static calculation
 charge density and potential will be updated during run
 non-spin polarized calculation
 Conjugate gradient for all bands (Freysoldt, et al. PRB 79, 241103 (2009))
 preconditioned conjugated gradient                                        
 perform sub-space diagonalisation
    before iterative eigenvector-optimisation
 modified Broyden-mixing scheme, WC =      100.0
 initial mixing is a Kerker type mixing with AMIX =  0.4000 and BMIX =      1.0000
 Hartree-type preconditioning will be used
 using additional bands          144
 reciprocal scheme for non local part
 use partial core corrections
 no Harris-corrections to forces 
 use gradient corrections 
 use of overlap-Matrix (Vanderbilt PP)
 Gauss-broadening in eV      SIGMA  =   0.01


--------------------------------------------------------------------------------------------------------


  energy-cutoff  :     1000.00
  volume of cell :     1979.57
      direct lattice vectors                 reciprocal lattice vectors
    11.185602433  0.000000410 -0.135056177     0.089444923 -0.000000002  0.003667741
     0.000000317 17.365745823  0.000001329    -0.000000002  0.057584627 -0.000000006
    -0.418095264  0.000000980 10.196056519     0.001184781 -0.000000008  0.098125716

  length of vectors
    11.186417744 17.365745823 10.204625039     0.089520091  0.057584627  0.098132869



 k-points in units of 2pi/SCALE and weight: auto                                    
   0.00000000  0.00000000  0.00000000       1.000

 k-points in reciprocal lattice and weights: auto                                    
   0.00000000  0.00000000  0.00000000       1.000

 position of ions in fractional coordinates (direct lattice) 
   0.04106669  0.46591360  0.48675512
   0.54106669  0.46591360  0.48675512
   0.04106669  0.96591360  0.48675512
   0.54106669  0.96591360  0.48675512
   0.04106669  0.46591360  0.98675512
   0.54106669  0.46591360  0.98675512
   0.04106669  0.96591360  0.98675512
   0.54106669  0.96591360  0.98675512
   0.45893760  0.03408314  0.01324832
   0.95893760  0.03408314  0.01324832
   0.45893760  0.53408314  0.01324832
   0.95893760  0.53408314  0.01324832
   0.45893760  0.03408314  0.51324832
   0.95893760  0.03408314  0.51324832
   0.45893760  0.53408314  0.51324832
   0.95893760  0.53408314  0.51324832
   0.04106650  0.28408273  0.23675528
   0.54106650  0.28408273  0.23675528
   0.04106650  0.78408273  0.23675528
   0.54106650  0.78408273  0.23675528
   0.04106650  0.28408273  0.73675528
   0.54106650  0.28408273  0.73675528
   0.04106650  0.78408273  0.73675528
   0.54106650  0.78408273  0.73675528
   0.45893731  0.21591321  0.26324839
   0.95893731  0.21591321  0.26324839
   0.45893731  0.71591321  0.26324839
   0.95893731  0.71591321  0.26324839
   0.45893731  0.21591321  0.76324839
   0.95893731  0.21591321  0.76324839
   0.45893731  0.71591321  0.76324839
   0.95893731  0.71591321  0.76324839
   0.12926162  0.48303107  0.38298605
   0.62926162  0.48303107  0.38298605
   0.12926162  0.98303107  0.38298605
   0.62926162  0.98303107  0.38298605
   0.12926162  0.48303107  0.88298605
   0.62926162  0.48303107  0.88298605
   0.12926162  0.98303107  0.88298605
   0.62926162  0.98303107  0.88298605
   0.37074260  0.01696572  0.11701720
   0.87074260  0.01696572  0.11701720
   0.37074260  0.51696572  0.11701720
   0.87074260  0.51696572  0.11701720
   0.37074260  0.01696572  0.61701720
   0.87074260  0.01696572  0.61701720
   0.37074260  0.51696572  0.61701720
   0.87074260  0.51696572  0.61701720
   0.12926143  0.26696524  0.13298629
   0.62926143  0.26696524  0.13298629
   0.12926143  0.76696524  0.13298629
   0.62926143  0.76696524  0.13298629
   0.12926143  0.26696524  0.63298629
   0.62926143  0.26696524  0.63298629
   0.12926143  0.76696524  0.63298629
   0.62926143  0.76696524  0.63298629
   0.37074235  0.23303062  0.36701734
   0.87074235  0.23303062  0.36701734
   0.37074235  0.73303062  0.36701734
   0.87074235  0.73303062  0.36701734
   0.37074235  0.23303062  0.86701734
   0.87074235  0.23303062  0.86701734
   0.37074235  0.73303062  0.86701734
   0.87074235  0.73303062  0.86701734
   0.48853030  0.41568630  0.45298628
   0.98853030  0.41568630  0.45298628
   0.48853030  0.91568630  0.45298628
   0.98853030  0.91568630  0.45298628
   0.48853030  0.41568630  0.95298628
   0.98853030  0.41568630  0.95298628
   0.48853030  0.91568630  0.95298628
   0.98853030  0.91568630  0.95298628
   0.01147397  0.08431041  0.04701718
   0.51147397  0.08431041  0.04701718
   0.01147397  0.58431041  0.04701718
   0.51147397  0.58431041  0.04701718
   0.01147397  0.08431041  0.54701718
   0.51147397  0.08431041  0.54701718
   0.01147397  0.58431041  0.54701718
   0.51147397  0.58431041  0.54701718
   0.48853018  0.33431006  0.20298646
   0.98853018  0.33431006  0.20298646
   0.48853018  0.83431006  0.20298646
   0.98853018  0.83431006  0.20298646
   0.48853018  0.33431006  0.70298646
   0.98853018  0.33431006  0.70298646
   0.48853018  0.83431006  0.70298646
   0.98853018  0.83431006  0.70298646
   0.01147363  0.16568589  0.29701720
   0.51147363  0.16568589  0.29701720
   0.01147363  0.66568589  0.29701720
   0.51147363  0.66568589  0.29701720
   0.01147363  0.16568589  0.79701720
   0.51147363  0.16568589  0.79701720
   0.01147363  0.66568589  0.79701720
   0.51147363  0.66568589  0.79701720
   0.09144119  0.44758279  0.07584011
   0.59144119  0.44758279  0.07584011
   0.09144119  0.94758279  0.07584011
   0.59144119  0.94758279  0.07584011
   0.09144119  0.44758279  0.57584011
   0.59144119  0.44758279  0.57584011
   0.09144119  0.94758279  0.57584011
   0.59144119  0.94758279  0.57584011
   0.40856313  0.05241394  0.42416327
   0.90856313  0.05241394  0.42416327
   0.40856313  0.55241394  0.42416327
   0.90856313  0.55241394  0.42416327
   0.40856313  0.05241394  0.92416327
   0.90856313  0.05241394  0.92416327
   0.40856313  0.55241394  0.92416327
   0.90856313  0.55241394  0.92416327
   0.09144099  0.30241347  0.32584033
   0.59144099  0.30241347  0.32584033
   0.09144099  0.80241347  0.32584033
   0.59144099  0.80241347  0.32584033
   0.09144099  0.30241347  0.82584033
   0.59144099  0.30241347  0.82584033
   0.09144099  0.80241347  0.82584033
   0.59144099  0.80241347  0.82584033
   0.40856283  0.19758250  0.17416336
   0.90856283  0.19758250  0.17416336
   0.40856283  0.69758250  0.17416336
   0.90856283  0.69758250  0.17416336
   0.40856283  0.19758250  0.67416336
   0.90856283  0.19758250  0.67416336
   0.40856283  0.69758250  0.67416336
   0.90856283  0.69758250  0.67416336
   0.27054349  0.43973743  0.30783820
   0.77054349  0.43973743  0.30783820
   0.27054349  0.93973743  0.30783820
   0.77054349  0.93973743  0.30783820
   0.27054349  0.43973743  0.80783820
   0.77054349  0.43973743  0.80783820
   0.27054349  0.93973743  0.80783820
   0.77054349  0.93973743  0.80783820
   0.22946068  0.06025931  0.19216503
   0.72946068  0.06025931  0.19216503
   0.22946068  0.56025931  0.19216503
   0.72946068  0.56025931  0.19216503
   0.22946068  0.06025931  0.69216503
   0.72946068  0.06025931  0.69216503
   0.22946068  0.56025931  0.69216503
   0.72946068  0.56025931  0.69216503
   0.27054333  0.31025885  0.05783837
   0.77054333  0.31025885  0.05783837
   0.27054333  0.81025885  0.05783837
   0.77054333  0.81025885  0.05783837
   0.27054333  0.31025885  0.55783837
   0.77054333  0.31025885  0.55783837
   0.27054333  0.81025885  0.55783837
   0.77054333  0.81025885  0.55783837
   0.22946046  0.18973700  0.44216520
   0.72946046  0.18973700  0.44216520
   0.22946046  0.68973700  0.44216520
   0.72946046  0.68973700  0.44216520
   0.22946046  0.18973700  0.94216520
   0.72946046  0.18973700  0.94216520
   0.22946046  0.68973700  0.94216520
   0.72946046  0.68973700  0.94216520
   0.12244452  0.03848477  0.30736581
   0.62244452  0.03848477  0.30736581
   0.12244452  0.53848477  0.30736581
   0.62244452  0.53848477  0.30736581
   0.12244452  0.03848477  0.80736581
   0.62244452  0.03848477  0.80736581
   0.12244452  0.53848477  0.80736581
   0.62244452  0.53848477  0.80736581
   0.37755969  0.46151203  0.19263761
   0.87755969  0.46151203  0.19263761
   0.37755969  0.96151203  0.19263761
   0.87755969  0.96151203  0.19263761
   0.37755969  0.46151203  0.69263761
   0.87755969  0.46151203  0.69263761
   0.37755969  0.96151203  0.69263761
   0.87755969  0.96151203  0.69263761
   0.12244436  0.21151151  0.05736605
   0.62244436  0.21151151  0.05736605
   0.12244436  0.71151151  0.05736605
   0.62244436  0.71151151  0.05736605
   0.12244436  0.21151151  0.55736605
   0.62244436  0.21151151  0.55736605
   0.12244436  0.71151151  0.55736605
   0.62244436  0.71151151  0.55736605
   0.37755946  0.28848428  0.44263772
   0.87755946  0.28848428  0.44263772
   0.37755946  0.78848428  0.44263772
   0.87755946  0.78848428  0.44263772
   0.37755946  0.28848428  0.94263772
   0.87755946  0.28848428  0.94263772
   0.37755946  0.78848428  0.94263772
   0.87755946  0.78848428  0.94263772
   0.21628207  0.42944307  0.37982187
   0.71628207  0.42944307  0.38080182
   0.21628207  0.92944307  0.38080182
   0.71628207  0.92944307  0.38080182
   0.21628207  0.42944307  0.88080182
   0.71628207  0.42944307  0.88080182
   0.21628207  0.92944307  0.88080182
   0.71628207  0.92944307  0.88080182
   0.28372206  0.07055367  0.11920141
   0.78372206  0.07055367  0.11920141
   0.28372206  0.57055367  0.11920141
   0.78372206  0.57055367  0.11920141
   0.28372206  0.07055367  0.61920141
   0.78372206  0.07055367  0.61920141
   0.28372206  0.57055367  0.61920141
   0.78372206  0.57055367  0.61920141
   0.21628189  0.32055323  0.13080197
   0.71628189  0.32055323  0.13080197
   0.21628189  0.82055323  0.13080197
   0.71628189  0.82055323  0.13080197
   0.21628189  0.32055323  0.63080197
   0.71628189  0.32055323  0.63080197
   0.21628189  0.82055323  0.63080197
   0.71628189  0.82055323  0.63080197
   0.28372186  0.17944266  0.36920153
   0.78372186  0.17944266  0.36920153
   0.28372186  0.67944266  0.36920153
   0.78372186  0.67944266  0.36920153
   0.28372186  0.17944266  0.86920153
   0.78372186  0.17944266  0.86920153
   0.28372186  0.67944266  0.86920153
   0.78372186  0.67944266  0.86920153

 position of ions in cartesian coordinates  (Angst):
   0.25584584  8.09093763  4.95743703
   5.84864705  8.09093783  4.88990894
   0.25584600 16.77381054  4.95743770
   5.84864721 16.77381075  4.88990961
   0.04679821  8.09093812 10.05546529
   5.63959942  8.09093832  9.98793720
   0.04679836 16.77381103 10.05546596
   5.63959958 16.77381124  9.98793787
   5.12795443  0.59187938  0.07309830
  10.72075565  0.59187959  0.00557021
   5.12795459  9.27475229  0.07309896
  10.72075581  9.27475250  0.00557087
   4.91890680  0.59187987  5.17112656
  10.51170801  0.59188008  5.10359847
   4.91890696  9.27475278  5.17112722
  10.51170817  9.27475299  5.10359913
   0.36036734  4.93330875  2.40842431
   5.95316855  4.93330895  2.34089622
   0.36036750 13.61618166  2.40842497
   5.95316871 13.61618186  2.34089689
   0.15131971  4.93330924  7.50645257
   5.74412092  4.93330944  7.43892448
   0.15131986 13.61618215  7.50645323
   5.74412108 13.61618235  7.43892514
   5.02342741  3.74949434  2.62211344
  10.61622863  3.74949454  2.55458535
   5.02342757 12.43236725  2.62211411
  10.61622878 12.43236745  2.55458602
   4.81437978  3.74949483  7.72014170
  10.40718099  3.74949503  7.65261361
   4.81437994 12.43236774  7.72014237
  10.40718115 12.43236794  7.65261428
   1.28574464  8.38819523  3.88749045
   6.87854585  8.38819544  3.81996236
   1.28574479 17.07106814  3.88749112
   6.87854601 17.07106835  3.81996303
   1.07669700  8.38819572  8.98551871
   6.66949822  8.38819593  8.91799062
   1.07669716 17.07106863  8.98551938
   6.66949838 17.07106884  8.91799129
   4.09805503  0.29462268  1.14304288
   9.69085625  0.29462289  1.07551479
   4.09805519  8.97749559  1.14304354
   9.69085641  8.97749580  1.07551545
   3.88900740  0.29462317  6.24107114
   9.48180862  0.29462338  6.17354305
   3.88900756  8.97749608  6.24107180
   9.48180877  8.97749629  6.17354371
   1.39026607  4.63605074  1.33847849
   6.98306729  4.63605094  1.27095040
   1.39026623 13.31892365  1.33847915
   6.98306744 13.31892385  1.27095106
   1.18121844  4.63605123  6.43650675
   6.77401965  4.63605143  6.36897866
   1.18121860 13.31892414  6.43650741
   6.77401981 13.31892434  6.36897932
   3.99352836  4.04675101  3.69205885
   9.58632958  4.04675122  3.62453076
   3.99352852 12.72962392  3.69205951
   9.58632973 12.72962413  3.62453142
   3.78448073  4.04675150  8.79008711
   9.37728194  4.04675171  8.72255902
   3.78448089 12.72962441  8.79008777
   9.37728210 12.72962462  8.72255968
   5.27511439  7.21870320  4.55269518
  10.86791561  7.21870341  4.48516709
   5.27511455 15.90157611  4.55269584
  10.86791577 15.90157632  4.48516776
   5.06606676  7.21870369  9.65072344
  10.65886798  7.21870390  9.58319535
   5.06606692 15.90157660  9.65072410
  10.65886814 15.90157681  9.58319602
   0.10868560  1.46411313  0.47784033
   5.70148682  1.46411334  0.41031224
   0.10868576 10.14698604  0.47784099
   5.70148697 10.14698625  0.41031290
  -0.10036203  1.46411362  5.57586859
   5.49243918  1.46411383  5.50834050
  -0.10036187 10.14698653  5.57586925
   5.49243934 10.14698674  5.50834116
   5.37963682  5.80554400  2.00368289
  10.97243804  5.80554420  1.93615480
   5.37963698 14.48841691  2.00368355
  10.97243819 14.48841711  1.93615546
   5.17058919  5.80554449  7.10171114
  10.76339040  5.80554469  7.03418306
   5.17058935 14.48841740  7.10171181
  10.76339056 14.48841760  7.03418372
   0.00415806  2.87725940  3.02685474
   5.59695927  2.87725961  2.95932665
   0.00415821 11.56013231  3.02685541
   5.59695943 11.56013252  2.95932732
  -0.20488958  2.87725989  8.12488300
   5.38791164  2.87726010  8.05735491
  -0.20488942 11.56013280  8.12488367
   5.38791180 11.56013301  8.05735558
   0.99111656  7.77260909  0.76092091
   6.58391778  7.77260930  0.69339283
   0.99111672 16.45548201  0.76092158
   6.58391794 16.45548221  0.69339349
   0.78206893  7.77260958  5.85894917
   6.37487014  7.77260979  5.79142109
   0.78206909 16.45548250  5.85894984
   6.37487030 16.45548270  5.79142175
   4.39268415  0.91020779  4.26961378
   9.98548536  0.91020800  4.20208569
   4.39268431  9.59308071  4.26961444
   9.98548552  9.59308091  4.20208636
   4.18363652  0.91020828  9.36764204
   9.77643773  0.91020849  9.30011395
   4.18363667  9.59308120  9.36764270
   9.77643789  9.59308140  9.30011461
   0.88659037  5.25163574  3.30993711
   6.47939159  5.25163595  3.24240902
   0.88659053 13.93450865  3.30993778
   6.47939174 13.93450886  3.24240969
   0.67754274  5.25163623  8.40796537
   6.27034395  5.25163644  8.34043728
   0.67754290 13.93450914  8.40796604
   6.27034411 13.93450935  8.34043795
   4.49720463  3.43116778  1.72060077
  10.09000584  3.43116798  1.65307268
   4.49720479 12.11404069  1.72060143
  10.09000600 12.11404089  1.65307335
   4.28815700  3.43116827  6.81862903
   9.88095821  3.43116847  6.75110094
   4.28815715 12.11404118  6.81862969
   9.88095837 12.11404138  6.75110161
   2.89748642  7.63636885  3.10219772
   8.49028764  7.63636906  3.03466963
   2.89748658 16.31924176  3.10219838
   8.49028780 16.31924197  3.03467030
   2.68843879  7.63636934  8.20022598
   8.28124000  7.63636955  8.13269789
   2.68843895 16.31924225  8.20022664
   8.28124016 16.31924246  8.13269856
   2.48631264  1.04644820  1.92833552
   8.07911385  1.04644840  1.86080743
   2.48631280  9.72932111  1.92833618
   8.07911401  9.72932131  1.86080809
   2.27726500  1.04644869  7.02636378
   7.87006622  1.04644889  6.95883569
   2.27726516  9.72932160  7.02636444
   7.87006638  9.72932180  6.95883635
   3.00200828  5.38787651  0.55318516
   8.59480950  5.38787672  0.48565708
   3.00200844 14.07074942  0.55318583
   8.59480965 14.07074963  0.48565774
   2.79296065  5.38787700  5.65121342
   8.38576186  5.38787721  5.58368534
   2.79296081 14.07074991  5.65121409
   8.38576202 14.07075012  5.58368600
   2.38178641  3.29492501  4.47735153
   7.97458763  3.29492521  4.40982344
   2.38178657 11.97779792  4.47735219
   7.97458778 11.97779812  4.40982410
   2.17273878  3.29492550  9.57537979
   7.76553999  3.29492570  9.50785170
   2.17273894 11.97779841  9.57538045
   7.76554015 11.97779861  9.50785236
   1.24110755  0.66831715  3.11738234
   6.83390877  0.66831736  3.04985425
   1.24110771  9.35119007  3.11738301
   6.83390893  9.35119027  3.04985492
   1.03205992  0.66831764  8.21541060
   6.62486114  0.66831785  8.14788251
   1.03206008  9.35119056  8.21541127
   6.62486130  9.35119076  8.14788318
   4.14269188  8.01450090  1.91315277
   9.73549310  8.01450110  1.84562468
   4.14269204 16.69737381  1.91315344
   9.73549326 16.69737402  1.84562535
   3.93364425  8.01450139  7.01118103
   9.52644547  8.01450159  6.94365294
   3.93364441 16.69737430  7.01118170
   9.52644563 16.69737451  6.94365361
   1.34562951  3.67305516  0.56837087
   6.93843073  3.67305536  0.50084278
   1.34562967 12.35592807  0.56837154
   6.93843089 12.35592827  0.50084345
   1.13658188  3.67305565  5.66639913
   6.72938310  3.67305585  5.59887104
   1.13658204 12.35592856  5.66639980
   6.72938326 12.35592876  5.59887171
   4.03816534  5.00974529  4.46216787
   9.63096655  5.00974549  4.39463978
   4.03816550 13.69261820  4.46216853
   9.63096671 13.69261840  4.39464044
   3.82911771  5.00974578  9.56019613
   9.42191892  5.00974598  9.49266804
   3.82911786 13.69261869  9.56019679
   9.42191908 13.69261889  9.49266870
   2.26044367  7.45759973  3.84347558
   7.85283517  7.45759994  3.78593912
   2.26003412 16.14047264  3.85346787
   7.85283533 16.14047285  3.78593979
   2.05098633  7.45760022  8.95149547
   7.64378754  7.45760043  8.88396738
   2.05098648 16.14047313  8.95149613
   7.64378770 16.14047334  8.88396805
   3.12376470  1.22521742  1.17706600
   8.71656591  1.22521763  1.10953791
   3.12376486  9.90809033  1.17706666
   8.71656607  9.90809054  1.10953858
   2.91471707  1.22521791  6.27509426
   8.50751828  1.22521812  6.20756617
   2.91471722  9.90809082  6.27509492
   8.50751844  9.90809103  6.20756684
   2.36455568  5.56664613  1.30445447
   7.95735689  5.56664634  1.23692638
   2.36455583 14.24951904  1.30445513
   7.95735705 14.24951925  1.23692704
   2.15550804  5.56664662  6.40248273
   7.74830926  5.56664683  6.33495464
   2.15550820 14.24951953  6.40248339
   7.74830942 14.24951974  6.33495530
   3.01923852  3.11615614  3.72608152
   8.61203973  3.11615634  3.65855343
   3.01923868 11.79902905  3.72608218
   8.61203989 11.79902925  3.65855409
   2.81019089  3.11615663  8.82410978
   8.40299210  3.11615683  8.75658169
   2.81019104 11.79902954  8.82411044
   8.40299226 11.79902974  8.75658235



--------------------------------------------------------------------------------------------------------


 use parallel FFT for orbitals z direction half grid
 k-point   1 :   0.0000 0.0000 0.0000  plane waves:   71028

 maximum and minimum number of plane-waves per node :     17758    17756

 maximum number of plane-waves:     71028
 maximum index in each direction: 
   IXMAX=   28   IYMAX=   44   IZMAX=   26
   IXMIN=  -28   IYMIN=  -44   IZMIN=    0


 parallel 3D FFT for wavefunctions:
    minimum data exchange during FFTs selected (reduces bandwidth)
 parallel 3D FFT for charge:
    minimum data exchange during FFTs selected (reduces bandwidth)


 total amount of memory used by VASP MPI-rank0   143880. kBytes
=======================================================================

   base      :      30000. kBytes
   nonl-proj :      67182. kBytes
   fftplans  :      14737. kBytes
   grid      :      28425. kBytes
   one-center:         86. kBytes
   wavefun   :       3450. kBytes

     INWAV:  cpu time      0.0000: real time      0.0000
 Broyden mixing: mesh for mixing (old mesh)
   NGX = 57   NGY = 89   NGZ = 53
  (NGX  =240   NGY  =360   NGZ  =216)
  gives a total of 268869 points

 initial charge density was supplied:
 charge density of overlapping atoms calculated
 number of electron     736.0000000 magnetization 
 charge density for first step will be calculated from the start-wavefunctions


--------------------------------------------------------------------------------------------------------


 Maximum index for augmentation-charges          231 (set IRDMAX)


--------------------------------------------------------------------------------------------------------


 First call to EWALD:  gamma=   0.141
 Maximum number of real-space cells 3x 2x 3
 Maximum number of reciprocal cells 3x 4x 2

    FEWALD:  cpu time      0.0207: real time      0.0207


--------------------------------------- Ionic step        1  -------------------------------------------




--------------------------------------- Iteration      1(   1)  ---------------------------------------


vdW kernel read from vdw_kernel.bindat
  0.0000  0.2424  0.5071  0.7962  1.1119  1.4567  1.8333  2.2446  2.6937  3.1842
  3.7199  4.3049  4.9438  5.6415  6.4036  7.2358  8.1446  9.1372 10.2212 11.4050
 12.6979 14.1099 15.6519 17.3360 19.1751 21.1837 23.3773 25.7729 28.3892 31.2465
 34.3669 37.7748 41.4965 45.5611 50.0000

    POTLOK:  cpu time      2.9894: real time      2.9924
    SETDIJ:  cpu time      0.0776: real time      0.0779
    TRIAL :  cpu time     12.6206: real time     12.6273
    CORREC:  cpu time      0.0017: real time      0.0017
    --------------------------------------------
      LOOP:  cpu time     15.6923: real time     15.7237

 eigenvalue-minimisations  :  1024
 total energy-change (2. order) : 0.9926740E+04  (-0.6522276E+05)
 number of electron     736.0000000 magnetization 
 augmentation part      736.0000000 magnetization 

 Free energy of the ion-electron system (eV)
  ---------------------------------------------------
  alpha Z        PSCENC =       782.70629357
  Ewald energy   TEWEN  =    -21054.97688486
  -Hartree energ DENC   =    -14466.98928247
  -exchange      EXHF   =         0.00000000
  -V(xc)+E(xc)   XCENC  =      2213.81035838
  PAW double counting   =     29738.25994565   -29487.13700608
  entropy T*S    EENTRO =        -0.00000000
  eigenvalues    EBANDS =      3255.28464794
  atomic energy  EATOM  =     38945.78228465
  ---------------------------------------------------
  free energy    TOTEN  =      9926.74035678 eV

  energy without entropy =     9926.74035678  energy(sigma->0) =     9926.74035678


--------------------------------------------------------------------------------------------------------




--------------------------------------- Iteration      1(   2)  ---------------------------------------


    TRIAL :  cpu time      5.5487: real time      5.5516
    CORREC:  cpu time      0.0002: real time      0.0002
    --------------------------------------------
      LOOP:  cpu time      5.5635: real time      5.5795

 eigenvalue-minimisations  :  1792
 total energy-change (2. order) :-0.9763050E+04  (-0.9320904E+04)
 number of electron     736.0000000 magnetization 
 augmentation part      736.0000000 magnetization 

 Free energy of the ion-electron system (eV)
  ---------------------------------------------------
  alpha Z        PSCENC =       782.70629357
  Ewald energy   TEWEN  =    -21054.97688486
  -Hartree energ DENC   =    -14466.98928247
  -exchange      EXHF   =         0.00000000
  -V(xc)+E(xc)   XCENC  =      2213.81035838
  PAW double counting   =     29738.25994565   -29487.13700608
  entropy T*S    EENTRO =        -0.00000000
  eigenvalues    EBANDS =     -6507.76513346
  atomic energy  EATOM  =     38945.78228465
  ---------------------------------------------------
  free energy    TOTEN  =       163.69057538 eV

  energy without entropy =      163.69057538  energy(sigma->0) =      163.69057538


--------------------------------------------------------------------------------------------------------




--------------------------------------- Iteration      1(   3)  ---------------------------------------


    TRIAL :  cpu time      3.7946: real time      3.7961
    CORREC:  cpu time      0.0002: real time      0.0002
    --------------------------------------------
      LOOP:  cpu time      3.8077: real time      3.8252

 eigenvalue-minimisations  :  1408
 total energy-change (2. order) :-0.1450677E+04  (-0.1437621E+04)
 number of electron     736.0000000 magnetization 
 augmentation part      736.0000000 magnetization 

 Free energy of the ion-electron system (eV)
  ---------------------------------------------------
  alpha Z        PSCENC =       782.70629357
  Ewald energy   TEWEN  =    -21054.97688486
  -Hartree energ DENC   =    -14466.98928247
  -exchange      EXHF   =         0.00000000
  -V(xc)+E(xc)   XCENC  =      2213.81035838
  PAW double counting   =     29738.25994565   -29487.13700608
  entropy T*S    EENTRO =        -0.00000000
  eigenvalues    EBANDS =     -7958.44189337
  atomic energy  EATOM  =     38945.78228465
  ---------------------------------------------------
  free energy    TOTEN  =     -1286.98618453 eV

  energy without entropy =    -1286.98618453  energy(sigma->0) =    -1286.98618453


--------------------------------------------------------------------------------------------------------




--------------------------------------- Iteration      1(   4)  ---------------------------------------


    TRIAL :  cpu time      3.3329: real time      3.3349
    CORREC:  cpu time      0.0002: real time      0.0002
    --------------------------------------------
      LOOP:  cpu time      3.3618: real time      3.3640

 eigenvalue-minimisations  :  1280
[...]
      4.91891      0.59188      5.17113        -0.001212      0.000036     -0.002380
     10.51171      0.59188      5.10360        -0.001209      0.000030     -0.002382
      4.91891      9.27475      5.17113        -0.001228     -0.000229     -0.002542
     10.51171      9.27475      5.10360         0.002161      0.003975     -0.005828
      0.36037      4.93331      2.40842         0.000914     -0.000316      0.002912
      5.95317      4.93331      2.34090         0.001200      0.000032      0.002218
      0.36037     13.61618      2.40842         0.001171      0.000061      0.002379
      5.95317     13.61618      2.34090         0.001184      0.000027      0.002410
      0.15132      4.93331      7.50645         0.001361     -0.000071      0.002482
      5.74412      4.93331      7.43892         0.001225      0.000014      0.002375
      0.15132     13.61618      7.50645         0.001216      0.000041      0.002320
      5.74412     13.61618      7.43893         0.001181      0.000013      0.002302
      5.02343      3.74949      2.62211        -0.001170     -0.000034     -0.002332
     10.61623      3.74949      2.55459        -0.001205      0.000135     -0.002594
      5.02343     12.43237      2.62211        -0.001250      0.000011     -0.002402
     10.61623     12.43237      2.55459        -0.001313      0.000041     -0.002259
      4.81438      3.74949      7.72014        -0.001199     -0.000102     -0.002411
     10.40718      3.74950      7.65261        -0.001248     -0.000119     -0.002434
      4.81438     12.43237      7.72014        -0.001135     -0.000088     -0.002336
     10.40718     12.43237      7.65261        -0.001118     -0.000054     -0.002358
      1.28574      8.38820      3.88749         0.047965      0.003913     -0.099582
      6.87855      8.38820      3.81996         0.000407      0.001386     -0.001539
      1.28574     17.07107      3.88749         0.001069      0.000658     -0.000922
      6.87855     17.07107      3.81996         0.001001      0.000648     -0.000876
      1.07670      8.38820      8.98552         0.001372     -0.000295      0.000273
      6.66950      8.38820      8.91799         0.000264      0.000305      0.000017
      1.07670     17.07107      8.98552         0.001028      0.000603     -0.000800
      6.66950     17.07107      8.91799         0.000988      0.000610     -0.000797
      4.09806      0.29462      1.14304        -0.001160     -0.000514      0.000895
      9.69086      0.29462      1.07551        -0.001074     -0.000578      0.000861
      4.09806      8.97750      1.14304         0.005162     -0.011924      0.005151
      9.69086      8.97750      1.07552        -0.001223     -0.000141      0.000539
      3.88901      0.29462      6.24107        -0.001022     -0.000627      0.000867
      9.48181      0.29462      6.17354        -0.001061     -0.000638      0.000902
      3.88901      8.97750      6.24107         0.000325     -0.000536      0.001259
      9.48181      8.97750      6.17354        -0.002526     -0.002480      0.002980
      1.39027      4.63605      1.33848         0.002728      0.001347     -0.000540
      6.98307      4.63605      1.27095         0.000781     -0.000548     -0.000590
      1.39027     13.31892      1.33848         0.001069     -0.000837     -0.000985
      6.98307     13.31892      1.27095         0.000971     -0.000735     -0.000950
      1.18122      4.63605      6.43651        -0.000389     -0.002466     -0.001346
      6.77402      4.63605      6.36898         0.000725     -0.000995     -0.000959
      1.18122     13.31892      6.43651         0.001184     -0.000249     -0.000658
      6.77402     13.31892      6.36898         0.001036     -0.000378     -0.000712
      3.99353      4.04675      3.69206        -0.001052      0.001109      0.000936
      9.58633      4.04675      3.62453        -0.000916     -0.000170      0.000046
      3.99353     12.72962      3.69206        -0.000972      0.000508      0.000691
      9.58633     12.72962      3.62453        -0.000619      0.001024      0.000573
      3.78448      4.04675      8.79009        -0.000930      0.001006      0.001290
      9.37728      4.04675      8.72256        -0.001184      0.000689      0.001129
      3.78448     12.72962      8.79009        -0.001208      0.000482      0.001018
      9.37728     12.72962      8.72256        -0.001125      0.000791      0.001090
      5.27511      7.21870      4.55270         0.001016     -0.000443      0.000572
     10.86792      7.21870      4.48517         0.002639     -0.001537     -0.000147
      5.27511     15.90158      4.55270         0.001011     -0.000418      0.000712
     10.86792     15.90158      4.48517         0.001008     -0.000405      0.000713
      5.06607      7.21870      9.65072         0.001040     -0.000469      0.000830
     10.65887      7.21870      9.58320         0.000998     -0.000450      0.000717
      5.06607     15.90158      9.65072         0.001015     -0.000425      0.000720
     10.65887     15.90158      9.58320         0.001018     -0.000419      0.000721
      0.10869      1.46411      0.47784        -0.000989      0.000464     -0.000707
      5.70149      1.46411      0.41031        -0.001010      0.000441     -0.000712
      0.10869     10.14699      0.47784        -0.000956      0.000433     -0.000681
      5.70149     10.14699      0.41031        -0.000892      0.000365     -0.000954
     -0.10036      1.46411      5.57587        -0.001008      0.000407     -0.000718
      5.49244      1.46411      5.50834        -0.001013      0.000434     -0.000720
     -0.10036     10.14699      5.57587        -0.001178      0.000390     -0.000934
      5.49244     10.14699      5.50834        -0.001190      0.000558     -0.000703
      5.37964      5.80554      2.00368         0.000911      0.000593      0.000707
     10.97244      5.80554      1.93615         0.001185      0.000360      0.000785
      5.37964     14.48842      2.00368         0.001014      0.000434      0.000716
     10.97244     14.48842      1.93616         0.001017      0.000439      0.000718
      5.17059      5.80554      7.10171         0.001064      0.000381      0.000740
     10.76339      5.80554      7.03418         0.000942      0.000370      0.000787
      5.17059     14.48842      7.10171         0.001021      0.000439      0.000709
     10.76339     14.48842      7.03418         0.001002      0.000424      0.000714
      0.00416      2.87726      3.02685        -0.001040     -0.000482     -0.000703
      5.59696      2.87726      2.95933        -0.001021     -0.000445     -0.000708
      0.00416     11.56013      3.02686        -0.000845     -0.000571     -0.000763
      5.59696     11.56013      2.95933        -0.001048     -0.000453     -0.000789
     -0.20489      2.87726      8.12488        -0.000965     -0.000375     -0.000713
      5.38791      2.87726      8.05735        -0.001000     -0.000414     -0.000732
     -0.20489     11.56013      8.12488        -0.000971     -0.000394     -0.000635
      5.38791     11.56013      8.05736        -0.001030     -0.000426     -0.000650
      0.99112      7.77261      0.76092         0.000329      0.000835      0.000304
      6.58392      7.77261      0.69339         0.000013      0.000838      0.000237
      0.99112     16.45548      0.76092         0.000152      0.000898      0.000258
      6.58392     16.45548      0.69339         0.000150      0.000895      0.000260
      0.78207      7.77261      5.85895         0.000111     -0.000757      0.002277
      6.37487      7.77261      5.79142         0.000125      0.000925      0.000325
      0.78207     16.45548      5.85895         0.000148      0.000911      0.000268
      6.37487     16.45548      5.79142         0.000150      0.000903      0.000266
      4.39268      0.91021      4.26961        -0.000137     -0.000889     -0.000252
      9.98549      0.91021      4.20209        -0.000135     -0.000903     -0.000258
      4.39268      9.59308      4.26961        -0.000093     -0.000832     -0.000602
      9.98549      9.59308      4.20209         0.000262     -0.001123     -0.000162
      4.18364      0.91021      9.36764        -0.000144     -0.000896     -0.000251
      9.77644      0.91021      9.30011        -0.000148     -0.000905     -0.000254
      4.18364      9.59308      9.36764         0.000325     -0.000783     -0.000649
      9.77644      9.59308      9.30011        -0.000240     -0.000815     -0.000190
      0.88659      5.25164      3.30994         0.000082     -0.001009     -0.000476
      6.47939      5.25164      3.24241         0.000152     -0.000915      0.000261
      0.88659     13.93451      3.30994         0.000150     -0.000901      0.000255
      6.47939     13.93451      3.24241         0.000162     -0.000866      0.000253
      0.67754      5.25164      8.40797         0.000137     -0.000891      0.000293
      6.27034      5.25164      8.34044         0.000114     -0.000891      0.000269
      0.67754     13.93451      8.40797         0.000133     -0.000922      0.000255
      6.27034     13.93451      8.34044         0.000138     -0.000906      0.000259
      4.49720      3.43117      1.72060        -0.000171      0.000949     -0.000251
     10.09001      3.43117      1.65307        -0.000243      0.000783     -0.000190
      4.49720     12.11404      1.72060        -0.000140      0.000777     -0.000215
     10.09001     12.11404      1.65307        -0.000164      0.000899     -0.000273
      4.28816      3.43117      6.81863        -0.000108      0.000885     -0.000303
      9.88096      3.43117      6.75110        -0.000144      0.000900     -0.000272
      4.28816     12.11404      6.81863        -0.000149      0.000966     -0.000300
      9.88096     12.11404      6.75110        -0.000194      0.001004     -0.000296
      2.89749      7.63637      3.10220         0.142399      0.072183     -0.216809
      8.49029      7.63637      3.03467         0.001291      0.000562     -0.000629
      2.89749     16.31924      3.10220         0.001596      0.000638     -0.000352
      8.49029     16.31924      3.03467         0.001579      0.000639     -0.000341
      2.68844      7.63637      8.20023         0.001403      0.000616      0.000392
      8.28124      7.63637      8.13270         0.000982      0.000387      0.000360
      2.68844     16.31924      8.20023         0.001583      0.000645     -0.000308
      8.28124     16.31924      8.13270         0.001560      0.000645     -0.000299
      2.48631      1.04645      1.92834        -0.001555     -0.000577      0.000299
      8.07911      1.04645      1.86081        -0.001578     -0.000624      0.000312
      2.48631      9.72932      1.92834        -0.000856     -0.000698     -0.001009
      8.07911      9.72932      1.86081        -0.001751     -0.000641      0.000210
      2.27727      1.04645      7.02636        -0.001559     -0.000651      0.000354
      7.87007      1.04645      6.95884        -0.001605     -0.000641      0.000352
      2.27727      9.72932      7.02636        -0.001718     -0.000435      0.001064
      7.87007      9.72932      6.95884        -0.002031     -0.000875      0.001034
      3.00201      5.38788      0.55319         0.000954     -0.000763      0.000170
      8.59481      5.38788      0.48566         0.001502     -0.000625     -0.000212
      3.00201     14.07075      0.55319         0.001562     -0.000653     -0.000292
      8.59481     14.07075      0.48566         0.001504     -0.000609     -0.000247
      2.79296      5.38788      5.65121         0.002486     -0.001307     -0.001118
      8.38576      5.38788      5.58369         0.001428     -0.000791     -0.000325
      2.79296     14.07075      5.65121         0.001660     -0.000632     -0.000417
      8.38576     14.07075      5.58369         0.001568     -0.000595     -0.000342
      2.38179      3.29493      4.47735        -0.001246      0.000569     -0.000106
      7.97459      3.29493      4.40982        -0.001638      0.000602      0.000292
      2.38179     11.97780      4.47735        -0.001513      0.000671      0.000068
      7.97459     11.97780      4.40982        -0.001671      0.000746      0.000259
      2.17274      3.29493      9.57538        -0.001748      0.000730      0.000617
      7.76554      3.29493      9.50785        -0.001654      0.000659      0.000431
      2.17274     11.97780      9.57538        -0.001519      0.000491      0.000474
      7.76554     11.97780      9.50785        -0.001710      0.000628      0.000428
      1.24111      0.66832      3.11738        -0.000374     -0.001825      0.000697
      6.83391      0.66832      3.04985        -0.000325     -0.001810      0.000672
      1.24111      9.35119      3.11738        -0.024731      0.028947      0.019799
      6.83391      9.35119      3.04985         0.000000     -0.002067      0.001326
      1.03206      0.66832      8.21541        -0.000353     -0.001749      0.000588
      6.62486      0.66832      8.14788        -0.000313     -0.001759      0.000601
      1.03206      9.35119      8.21541        -0.000367     -0.001293     -0.000487
      6.62486      9.35119      8.14788         0.000292     -0.001438     -0.000326
      4.14269      8.01450      1.91315         0.011653      0.013274     -0.014037
      9.73549      8.01450      1.84562         0.000492      0.001699     -0.000064
      4.14269     16.69737      1.91315         0.000361      0.001716     -0.000609
      9.73549     16.69737      1.84563         0.000343      0.001749     -0.000625
      3.93364      8.01450      7.01118        -0.000177      0.001490     -0.001402
      9.52645      8.01450      6.94365         0.001272      0.002209     -0.001850
      3.93364     16.69737      7.01118         0.000322      0.001771     -0.000660
      9.52645     16.69737      6.94365         0.000340      0.001772     -0.000676
      1.34563      3.67306      0.56837        -0.000726      0.000635     -0.000031
      6.93843      3.67306      0.50084        -0.000230      0.001702      0.000457
      1.34563     12.35593      0.56837        -0.000456      0.001992      0.000628
      6.93843     12.35593      0.50084        -0.000230      0.001922      0.000661
      1.13658      3.67306      5.66640        -0.000193      0.002667      0.001492
      6.72938      3.67306      5.59887        -0.000219      0.001981      0.000814
      1.13658     12.35593      5.66640        -0.000442      0.001420      0.000613
      6.72938     12.35593      5.59887        -0.000263      0.001551      0.000567
      4.03817      5.00975      4.46217         0.000354     -0.001985     -0.000164
      9.63097      5.00975      4.39464         0.000352     -0.000974     -0.000050
      4.03817     13.69262      4.46217         0.000287     -0.001643     -0.000483
      9.63097     13.69262      4.39464         0.000246     -0.001892     -0.000581
      3.82912      5.00975      9.56020         0.000581     -0.002102     -0.001223
      9.42192      5.00975      9.49267         0.000391     -0.001794     -0.000886
      3.82912     13.69262      9.56020         0.000396     -0.001758     -0.000701
      9.42192     13.69262      9.49267         0.000395     -0.001921     -0.000832
      2.26044      7.45760      3.84348        -0.213764     -0.090328      0.316415
      7.85284      7.45760      3.78594        -0.001066      0.000648      0.003404
      2.26003     16.14047      3.85347        -0.001653      0.000847      0.003172
      7.85284     16.14047      3.78594        -0.001608      0.000830      0.003150
      2.05099      7.45760      8.95150        -0.001963      0.001096      0.002527
      7.64379      7.45760      8.88397        -0.000867      0.000865      0.002526
      2.05099     16.14047      8.95150        -0.001651      0.000852      0.003106
      7.64379     16.14047      8.88397        -0.001603      0.000837      0.003101
      3.12376      1.22522      1.17707         0.001728     -0.000982     -0.003169
      8.71657      1.22522      1.10954         0.001667     -0.000910     -0.003155
      3.12376      9.90809      1.17707        -0.001853      0.002478     -0.002416
      8.71657      9.90809      1.10954         0.001889     -0.001034     -0.003085
      2.91472      1.22522      6.27509         0.001613     -0.000864     -0.003130
      8.50752      1.22522      6.20757         0.001684     -0.000863     -0.003149
      2.91472      9.90809      6.27509         0.000822     -0.001207     -0.003929
      8.50752      9.90809      6.20757         0.003886     -0.001266     -0.004592
      2.36456      5.56665      1.30445        -0.002067     -0.002543      0.001670
      7.95736      5.56665      1.23693        -0.001459     -0.000861      0.003057
      2.36456     14.24952      1.30446        -0.001614     -0.000817      0.003148
      7.95736     14.24952      1.23693        -0.001527     -0.000806      0.003123
      2.15551      5.56665      6.40248        -0.001134      0.001620      0.001751
      7.74831      5.56665      6.33495        -0.001347     -0.000617      0.003061
      2.15551     14.24952      6.40248        -0.001871     -0.001063      0.003137
      7.74831     14.24952      6.33496        -0.001689     -0.000977      0.003115
      3.01924      3.11616      3.72608         0.001369      0.000739     -0.002912
      8.61204      3.11616      3.65855         0.001789      0.001198     -0.002890
      3.01924     11.79903      3.72608         0.001660      0.000872     -0.002899
      8.61204     11.79903      3.65855         0.001520      0.000477     -0.002908
      2.81019      3.11616      8.82411         0.001602      0.000728     -0.003368
      8.40299      3.11616      8.75658         0.001785      0.000877     -0.003261
      2.81019     11.79903      8.82411         0.001671      0.001069     -0.003363
      8.40299     11.79903      8.75658         0.001719      0.000819     -0.003267
 -----------------------------------------------------------------------------------
    total drift:                               -0.000034      0.000024     -0.000007


--------------------------------------------------------------------------------------------------------



  FREE ENERGIE OF THE ION-ELECTRON SYSTEM (eV)
  ---------------------------------------------------
  free  energy   TOTEN  =     -1198.70198644 eV

  energy  without entropy=    -1198.70198644  energy(sigma->0) =    -1198.70198644



--------------------------------------------------------------------------------------------------------


    POTLOK:  cpu time      2.3876: real time      2.3893


--------------------------------------------------------------------------------------------------------


     LOOP+:  cpu time    177.8085: real time    178.4456
    4ORBIT:  cpu time      0.0000: real time      0.0000

 total amount of memory used by VASP MPI-rank0   143880. kBytes
=======================================================================

   base      :      30000. kBytes
   nonl-proj :      67182. kBytes
   fftplans  :      14737. kBytes
   grid      :      28425. kBytes
   one-center:         86. kBytes
   wavefun   :       3450. kBytes

  
  
 General timing and accounting informations for this job:
 ========================================================
  
                  Total CPU time used (sec):      234.872
                            User time (sec):      233.349
                          System time (sec):        1.523
                         Elapsed time (sec):      249.727
  
                   Maximum memory used (kb):      452648.
                   Average memory used (kb):          N/A
  
                          Minor page faults:        53229
                          Major page faults:         1178
                 Voluntary context switches:        11815
