 vasp.6.4.1 05Apr23 (build Jun  6 2023 14:46:38) gamma-only                      
 executed on        HPECrayEX_GCC date 2024.08.21  00:53:00
 running  256 mpi-ranks, with    1 threads/rank, on    2 nodes
 distrk:  each k-point on  256 cores,    1 groups
 distr:  one band on NCORE=  64 cores,    4 groups


--------------------------------------------------------------------------------------------------------


 INCAR:
   ALGO = Conjugate
   NPAR = 4
   ISMEAR = 0
   SIGMA = 0.01
   PREC = Accurate
   EDIFF = 1E-7
   ENCUT = 1000
   ISIF = 0
   GGA = OR
   LUSE_VDW = .TRUE.
   AGGAC = 0.0000
   LASPH = .TRUE.
   LWAVE = .FALSE.
   LCHARG = .FALSE.

 POTCAR:    PAW_PBE H_h 06Feb2004                 
 POTCAR:    PAW_PBE N_h 06Feb2004                 
 -----------------------------------------------------------------------------
|                                                                             |
|               ----> ADVICE to this user running VASP <----                  |
|                                                                             |
|     You have switched on vdW-DFT.                                           |
|     This routine was written and supplied by Jiri Klimes. We recommend      |
|     that you carefully read and cite the following publications:            |
|       J. Klimes, D.R. Bowler, A. Michelides                                 |
|          J. Phys.: Cond Matt. 22 022201 (2010)                              |
|       J. Klimes, D.R. Bowler, A. Michelides                                 |
|          Phys. Rev. B. 83, 195131 (2011)                                    |
|     and references therein.                                                 |
|                                                                             |
 -----------------------------------------------------------------------------

 POTCAR:    PAW_PBE H_h 06Feb2004                 
   VRHFIN =H: ultrasoft test                                                                        
   LEXCH  = PE                                                                                      
   EATOM  =    12.4884 eV,    0.9179 Ry                                                             
                                                                                                    
   TITEL  = PAW_PBE H_h 06Feb2004                                                                   
   LULTRA =        F    use ultrasoft PP ?                                                          
   IUNSCR =        0    unscreen: 0-lin 1-nonlin 2-no                                               
   RPACOR =    0.000    partial core radius                                                         
   POMASS =    1.000; ZVAL   =    1.000    mass and valenz                                          
   RCORE  =    0.800    outmost cutoff radius                                                       
   RWIGS  =    0.700; RWIGS  =    0.370    wigner-seitz radius (au A)                               
   ENMAX  =  700.000; ENMIN  =  350.000 eV                                                          
   RCLOC  =    0.701    cutoff for local pot                                                        
   LCOR   =        T    correct aug charges                                                         
   LPAW   =        T    paw PP                                                                      
   EAUG   = 1000.000                                                                                
   RMAX   =    0.819    core radius for proj-oper                                                   
   RAUG   =    1.000    factor for augmentation sphere                                              
   RDEP   =    0.817    radius for radial grids                                                     
   RDEPT  =    0.817    core radius for aug-charge                                                  
                                                                                                    
   Atomic configuration                                                                             
    2 entries                                                                                       
     n  l   j            E        occ.                                                              
     1  0  0.50        -6.4927   1.0000                                                             
     2  1  0.50        -3.4015   0.0000                                                             
   Description                                                                                      
     l       E           TYP  RCUT    TYP  RCUT                                                     
     0     -6.4927493     23  0.800                                                                 
     0      6.8029130     23  0.800                                                                 
     1     -6.8029130     23  0.800                                                                 
  local pseudopotential read in
  atomic valenz-charges read in
  non local Contribution for L=           0  read in
    real space projection operators read in
  non local Contribution for L=           0  read in
    real space projection operators read in
  non local Contribution for L=           1  read in
    real space projection operators read in
    PAW grid and wavefunctions read in

   number of l-projection  operators is LMAX  =           3
   number of lm-projection operators is LMMAX =           5

 POTCAR:    PAW_PBE N_h 06Feb2004                 
   VRHFIN =N: s2p3                                                                                  
   LEXCH  = PE                                                                                      
   EATOM  =   264.5486 eV,   19.4438 Ry                                                             
                                                                                                    
   TITEL  = PAW_PBE N_h 06Feb2004                                                                   
   LULTRA =        F    use ultrasoft PP ?                                                          
   IUNSCR =        1    unscreen: 0-lin 1-nonlin 2-no                                               
   RPACOR =    0.800    partial core radius                                                         
   POMASS =   14.001; ZVAL   =    5.000    mass and valenz                                          
   RCORE  =    1.100    outmost cutoff radius                                                       
   RWIGS  =    1.480; RWIGS  =    0.783    wigner-seitz radius (au A)                               
   ENMAX  =  700.000; ENMIN  =  500.000 eV                                                          
   ICORE  =        2    local potential                                                             
   LCOR   =        T    correct aug charges                                                         
   LPAW   =        T    paw PP                                                                      
   EAUG   =  904.640                                                                                
   DEXC   =    0.000                                                                                
   RMAX   =    1.127    core radius for proj-oper                                                   
   RAUG   =    1.300    factor for augmentation sphere                                              
   RDEP   =    1.115    radius for radial grids                                                     
   RDEPT  =    1.106    core radius for aug-charge                                                  
                                                                                                    
   Atomic configuration                                                                             
    4 entries                                                                                       
     n  l   j            E        occ.                                                              
     1  0  0.50      -384.7179   2.0000                                                             
     2  0  0.50       -18.5828   2.0000                                                             
     2  1  0.50        -7.0898   3.0000                                                             
     3  2  1.50        -6.8029   0.0000                                                             
   Description                                                                                      
     l       E           TYP  RCUT    TYP  RCUT                                                     
     0    -18.5828117     23  1.100                                                                 
     0    -15.0750597     23  1.100                                                                 
     1     -7.0897851     23  1.100                                                                 
     1     -1.9663412     23  1.100                                                                 
     2     -6.8029130      7  1.100                                                                 
  local pseudopotential read in
  partial core-charges read in
  partial kinetic energy density read in
  kinetic energy density of atom read in
  atomic valenz-charges read in
  non local Contribution for L=           0  read in
    real space projection operators read in
  non local Contribution for L=           0  read in
    real space projection operators read in
  non local Contribution for L=           1  read in
    real space projection operators read in
  non local Contribution for L=           1  read in
    real space projection operators read in
    PAW grid and wavefunctions read in

   number of l-projection  operators is LMAX  =           4
   number of lm-projection operators is LMMAX =           8

 -----------------------------------------------------------------------------
|                                                                             |
|               ----> ADVICE to this user running VASP <----                  |
|                                                                             |
|     You enforced a specific xc type in the INCAR file but a different       |
|     type was found in the POTCAR file.                                      |
|     I HOPE YOU KNOW WHAT YOU ARE DOING!                                     |
|                                                                             |
 -----------------------------------------------------------------------------

  PAW_PBE H_h 06Feb2004                 :
 energy of atom  1       EATOM=  -12.4884
 kinetic energy error for atom=    0.0006 (will be added to EATOM!!)
  PAW_PBE N_h 06Feb2004                 :
 energy of atom  2       EATOM= -264.5486
 kinetic energy error for atom=    0.0081 (will be added to EATOM!!)


 POSCAR:  H  N
  positions in cartesian coordinates
  No initial velocities read in
 exchange correlation table for  LEXCH =       41
   RHO(1)=    0.500       N(1)  =     2000
   RHO(2)=  100.500       N(2)  =     4000

 VTST: version 4.1, (05/19/21)

 CHAIN: initializing optimizer
 
 OPT: Using VASP Dynamics algorithm
 CHAIN: Read ICHAIN            0

 POSCAR:  H  N
  positions in cartesian coordinates
  No initial velocities read in



--------------------------------------------------------------------------------------------------------


 ion  position               nearest neighbor table
   1  0.533  0.506  0.467-   4 1.02
   2  0.506  0.467  0.533-   4 1.02
   3  0.467  0.533  0.506-   4 1.02
   4  0.491  0.491  0.491-   3 1.02   2 1.02   1 1.02

  LATTYP: Found a simple cubic cell.
 ALAT       =    20.0000000000
  
  Lattice vectors:
  
 A1 = (  20.0000000000,   0.0000000000,   0.0000000000)
 A2 = (   0.0000000000,  20.0000000000,   0.0000000000)
 A3 = (   0.0000000000,   0.0000000000,  20.0000000000)


Analysis of symmetry for initial positions (statically):
=====================================================================
 Subroutine PRICEL returns:
 Original cell was already a primitive cell.
 

 Routine SETGRP: Setting up the symmetry group for a 
 simple cubic supercell.


 Subroutine GETGRP returns: Found  3 space group operations
 (whereof  3 operations were pure point group operations)
 out of a pool of 48 trial point group operations.


The static configuration has the point symmetry C_3 .


Analysis of symmetry for dynamics (positions and initial velocities):
=====================================================================
 Subroutine PRICEL returns:
 Original cell was already a primitive cell.
 

 Routine SETGRP: Setting up the symmetry group for a 
 simple cubic supercell.


 Subroutine GETGRP returns: Found  3 space group operations
 (whereof  3 operations were pure point group operations)
 out of a pool of 48 trial point group operations.


The dynamic configuration has the point symmetry C_3 .


 Subroutine INISYM returns: Found  3 space group operations
 (whereof  3 operations are pure point group operations),
 and found     1 'primitive' translations


----------------------------------------------------------------------------------------

                                     Primitive cell                                     

  volume of cell :    8000.0000

  direct lattice vectors                    reciprocal lattice vectors
    20.000000000  0.000000000  0.000000000     0.050000000  0.000000000  0.000000000
     0.000000000 20.000000000  0.000000000     0.000000000  0.050000000  0.000000000
     0.000000000  0.000000000 20.000000000     0.000000000  0.000000000  0.050000000

  length of vectors
    20.000000000 20.000000000 20.000000000     0.050000000  0.050000000  0.050000000

  position of ions in fractional coordinates (direct lattice)
     0.533163250  0.506474750  0.466836500
     0.506475750  0.466836250  0.533163500
     0.466836750  0.533163750  0.506475500
     0.491021750  0.491025250  0.491025500

  ion indices of the primitive-cell ions
   primitive index   ion index
                 1           1
                 2           2
                 3           3
                 4           4

----------------------------------------------------------------------------------------



 KPOINTS: auto                                    

Automatic generation of k-mesh.
 Grid dimensions read from file:
 generate k-points for:    1    1    1

 Generating k-lattice:

  Cartesian coordinates                     Fractional coordinates (reciprocal lattice)
     0.050000000  0.000000000  0.000000000     1.000000000  0.000000000  0.000000000
     0.000000000  0.050000000  0.000000000     0.000000000  1.000000000  0.000000000
     0.000000000  0.000000000  0.050000000     0.000000000  0.000000000  1.000000000

  Length of vectors
     0.050000000  0.050000000  0.050000000

  Shift w.r.t. Gamma in fractional coordinates (k-lattice)
     0.000000000  0.000000000  0.000000000

 
 Subroutine IBZKPT returns following result:
 ===========================================
 
 Found      1 irreducible k-points:
 
 Following reciprocal coordinates:
            Coordinates               Weight
  0.000000  0.000000  0.000000      1.000000
 
 Following cartesian coordinates:
            Coordinates               Weight
  0.000000  0.000000  0.000000      1.000000
 


--------------------------------------------------------------------------------------------------------




 Dimension of arrays:
   k-points           NKPTS =      1   k-points in BZ     NKDIM =      1   number of bands    NBANDS=      8
   number of dos      NEDOS =    301   number of ions     NIONS =      4
   non local maximal  LDIM  =      4   non local SUM 2l+1 LMDIM =      8
   total plane-waves  NPLWV = ******
   max r-space proj   IRMAX =      1   max aug-charges    IRDMAX=   8421
   dimension x,y,z NGX =   210 NGY =  210 NGZ =  210
   dimension x,y,z NGXF=   420 NGYF=  420 NGZF=  420
   support grid    NGXF=   420 NGYF=  420 NGZF=  420
   ions per type =               3   1
   NGX,Y,Z   is equivalent  to a cutoff of  17.46, 17.46, 17.46 a.u.
   NGXF,Y,Z  is equivalent  to a cutoff of  34.91, 34.91, 34.91 a.u.

 SYSTEM =  unknown system                          
 POSCAR =   H  N                                   

 Startparameter for this run:
   NWRITE =      2    write-flag & timer
   PREC   = accura    normal or accurate (medium, high low for compatibility)
   ISTART =      0    job   : 0-new  1-cont  2-samecut
   ICHARG =      2    charge: 1-file 2-atom 10-const
   ISPIN  =      1    spin polarized calculation?
   LNONCOLLINEAR =      F non collinear calculations
   LSORBIT =      F    spin-orbit coupling
   INIWAV =      1    electr: 0-lowe 1-rand  2-diag
   LASPH  =      T    aspherical Exc in radial PAW
 Electronic Relaxation 1
   ENCUT  = 1000.0 eV  73.50 Ry    8.57 a.u.  51.57 51.57 51.57*2*pi/ulx,y,z
   ENINI  = 1000.0     initial cutoff
   ENAUG  = 1000.0 eV  augmentation charge cutoff
   NELM   =     60;   NELMIN=  2; NELMDL= -5     # of ELM steps 
   EDIFF  = 0.1E-06   stopping-criterion for ELM
   LREAL  =      F    real-space projection
   NLSPLINE    = F    spline interpolate recip. space projectors
   LCOMPAT=      F    compatible to vasp.4.4
   GGA_COMPAT  = T    GGA compatible to vasp.4.4-vasp.4.6
   LMAXPAW     = -100 max onsite density
   LMAXMIX     =    2 max onsite mixed and CHGCAR
   VOSKOWN=      0    Vosko Wilk Nusair interpolation
   ROPT   =    0.00000   0.00000
 Ionic relaxation
   EDIFFG = 0.1E-05   stopping-criterion for IOM
   NSW    =      0    number of steps for IOM
   NBLOCK =      1;   KBLOCK =      1    inner block; outer block 
   IBRION =     -1    ionic relax: 0-MD 1-quasi-New 2-CG
   NFREE  =      0    steps in history (QN), initial steepest desc. (CG)
   ISIF   =      0    stress and relaxation
   IWAVPR =     10    prediction:  0-non 1-charg 2-wave 3-comb
   ISYM   =      2    0-nonsym 1-usesym 2-fastsym
   LCORR  =      T    Harris-Foulkes like correction to forces

   POTIM  = 0.5000    time-step for ionic-motion
   TEIN   =    0.0    initial temperature
   TEBEG  =    0.0;   TEEND  =   0.0 temperature during run
   SMASS  =  -3.00    Nose mass-parameter (am)
   estimated Nose-frequenzy (Omega)   =  0.10E-29 period in steps = 0.13E+47 mass=  -0.914E-26a.u.
   SCALEE = 1.0000    scale energy and forces
   NPACO  =    256;   APACO  = 10.0  distance and # of slots for P.C.
   PSTRESS=    0.0 pullay stress

  Mass of Ions in am
   POMASS =   1.00 14.00
  Ionic Valenz
   ZVAL   =   1.00  5.00
  Atomic Wigner-Seitz radii
   RWIGS  =  -1.00 -1.00
  virtual crystal weights 
   VCA    =   1.00  1.00
   NELECT =       8.0000    total number of electrons
   NUPDOWN=      -1.0000    fix difference up-down

 DOS related values:
   EMIN   =  10.00;   EMAX   =-10.00  energy-range for DOS
   EFERMI =   0.00;   METHOD = LEGACY      
   ISMEAR =     0;   SIGMA  =   0.01  broadening in eV -4-tet -1-fermi 0-gaus

 Electronic relaxation 2 (details)
   IALGO  =     58    algorithm
   LDIAG  =      T    sub-space diagonalisation (order eigenvalues)
   LSUBROT=      F    optimize rotation matrix (better conditioning)
   TURBO    =      0    0=normal 1=particle mesh
   IRESTART =      0    0=no restart 2=restart with 2 vectors
   NREBOOT  =      0    no. of reboots
   NMIN     =      0    reboot dimension
   EREF     =   0.00    reference energy to select bands
   IMIX   =      4    mixing-type and parameters
     AMIX     =   0.40;   BMIX     =  1.00
     AMIX_MAG =   1.60;   BMIX_MAG =  1.00
     AMIN     =   0.10
     WC   =   100.;   INIMIX=   1;  MIXPRE=   1;  MAXMIX= -45

 Intra band minimization:
   WEIMIN = 0.0000     energy-eigenvalue tresh-hold
   EBREAK =  0.31E-08  absolut break condition
   DEPER  =   0.30     relativ break condition  

   TIME   =   0.40     timestep for ELM

  volume/ion in A,a.u.               =    2000.00     13496.67
  Fermi-wavevector in a.u.,A,eV,Ry     =   0.163710  0.309367  0.364649  0.026801
  Thomas-Fermi vector in A             =   0.862763

 Write flags
   LWAVE        =      F    write WAVECAR
   LDOWNSAMPLE  =      F    k-point downsampling of WAVECAR
   LCHARG       =      F    write CHGCAR
   LVTOT        =      F    write LOCPOT, total local potential
   LVHAR        =      F    write LOCPOT, Hartree potential only
   LELF         =      F    write electronic localiz. function (ELF)
   LORBIT       =      0    0 simple, 1 ext, 2 COOP (PROOUT), +10 PAW based schemes


 Dipole corrections
   LMONO  =      F    monopole corrections only (constant potential shift)
   LDIPOL =      F    correct potential (dipole corrections)
   IDIPOL =      0    1-x, 2-y, 3-z, 4-all directions 
   EPSILON=  1.0000000 bulk dielectric constant

 Exchange correlation treatment:
   GGA     =    OR    GGA type
   LEXCH   =    41    internal setting for exchange type
   LIBXC   =     F    Libxc                    
   VOSKOWN =     0    Vosko Wilk Nusair interpolation
   LHFCALC =     F    Hartree Fock is set to
   LHFONE  =     F    Hartree Fock one center treatment
   AEXX    =    0.0000 exact exchange contribution

 vdW DFT:
   LUSE_VDW   =     T    switch on vdW DFT
   IVDW_NL    =     1    kernel type
   LSPIN_VDW  =     F    use spin-polarized vdW DFT
   Zab_VDW    =-.8491    correlation parameter
   PARAM1     =0.1234
   PARAM2     =1.0000
   PARAM3     =0.0000
   -- rVV10 --
   BPARAM     = 6.3000
   CPARAM     = 0.0093

 Linear response parameters
   LEPSILON=     F    determine dielectric tensor
   LRPA    =     F    only Hartree local field effects (RPA)
   LNABLA  =     F    use nabla operator in PAW spheres
   LVEL    =     F    velocity operator in full k-point grid
   CSHIFT  =0.1000    complex shift for real part using Kramers Kronig
   OMEGAMAX=  -1.0    maximum frequency
   DEG_THRESHOLD= 0.2000000E-02 threshold for treating states as degnerate
   RTIME   =   -0.100 relaxation time in fs
  (WPLASMAI=    0.000 imaginary part of plasma frequency in eV, 0.658/RTIME)
   DFIELD  = 0.0000000 0.0000000 0.0000000 field for delta impulse in time

  Optional k-point grid parameters
   LKPOINTS_OPT  =     F    use optional k-point grid
   KPOINTS_OPT_MODE=     1    mode for optional k-point grid

 Orbital magnetization related:
   ORBITALMAG=     F  switch on orbital magnetization
   LCHIMAG   =     F  perturbation theory with respect to B field
   DQ        =  0.001000  dq finite difference perturbation B field
   LLRAUG    =     F  two centre corrections for induced B field
   LBONE     =     F  B-component reconstruction in AE one-centre
   LVGVCALC  =     T  calculate vGv susceptibility
   LVGVAPPL  =     F  apply vGv susceptibility instead of pGv for G=0

 Random number generation:
   RANDOM_GENERATOR = DEFAULT
   PCG_SEED         = not used


--------------------------------------------------------------------------------------------------------


 Static calculation
 charge density and potential will be updated during run
 non-spin polarized calculation
 Conjugate gradient for all bands (Freysoldt, et al. PRB 79, 241103 (2009))
 preconditioned conjugated gradient                                        
 perform sub-space diagonalisation
    before iterative eigenvector-optimisation
 modified Broyden-mixing scheme, WC =      100.0
 initial mixing is a Kerker type mixing with AMIX =  0.4000 and BMIX =      1.0000
 Hartree-type preconditioning will be used
 using additional bands            4
 reciprocal scheme for non local part
 use partial core corrections
 no Harris-corrections to forces 
 use gradient corrections 
 use of overlap-Matrix (Vanderbilt PP)
 Gauss-broadening in eV      SIGMA  =   0.01


--------------------------------------------------------------------------------------------------------


  energy-cutoff  :     1000.00
  volume of cell :     8000.00
      direct lattice vectors                 reciprocal lattice vectors
    20.000000000  0.000000000  0.000000000     0.050000000  0.000000000  0.000000000
     0.000000000 20.000000000  0.000000000     0.000000000  0.050000000  0.000000000
     0.000000000  0.000000000 20.000000000     0.000000000  0.000000000  0.050000000

  length of vectors
    20.000000000 20.000000000 20.000000000     0.050000000  0.050000000  0.050000000



 k-points in units of 2pi/SCALE and weight: auto                                    
   0.00000000  0.00000000  0.00000000       1.000

 k-points in reciprocal lattice and weights: auto                                    
   0.00000000  0.00000000  0.00000000       1.000

 position of ions in fractional coordinates (direct lattice) 
   0.53316325  0.50647475  0.46683650
   0.50647575  0.46683625  0.53316350
   0.46683675  0.53316375  0.50647550
   0.49102175  0.49102525  0.49102550

 position of ions in cartesian coordinates  (Angst):
  10.66326500 10.12949500  9.33673000
  10.12951500  9.33672500 10.66327000
   9.33673500 10.66327500 10.12951000
   9.82043500  9.82050500  9.82051000



--------------------------------------------------------------------------------------------------------


 use parallel FFT for orbitals z direction half grid
 k-point   1 :   0.0000 0.0000 0.0000  plane waves:  287166

 maximum and minimum number of plane-waves per node :      4498     4479

 maximum number of plane-waves:    287166
 maximum index in each direction: 
   IXMAX=   51   IYMAX=   51   IZMAX=   51
   IXMIN=  -51   IYMIN=  -51   IZMIN=    0


 parallel 3D FFT for wavefunctions:
    minimum data exchange during FFTs selected (reduces bandwidth)
 parallel 3D FFT for charge:
    minimum data exchange during FFTs selected (reduces bandwidth)


 total amount of memory used by VASP MPI-rank0    73259. kBytes
=======================================================================

   base      :      30000. kBytes
   nonl-proj :        860. kBytes
   fftplans  :      15076. kBytes
   grid      :      26893. kBytes
   one-center:          1. kBytes
   wavefun   :        429. kBytes

     INWAV:  cpu time      0.0001: real time      0.0002
 Broyden mixing: mesh for mixing (old mesh)
   NGX =103   NGY =103   NGZ =103
  (NGX  =420   NGY  =420   NGZ  =420)
  gives a total of ****** points

 initial charge density was supplied:
 charge density of overlapping atoms calculated
 number of electron       8.0000000 magnetization 
 keeping initial charge density in first step


--------------------------------------------------------------------------------------------------------


 Maximum index for augmentation-charges            0 (set IRDMAX)


--------------------------------------------------------------------------------------------------------


 First call to EWALD:  gamma=   0.089
 Maximum number of real-space cells 3x 3x 3
 Maximum number of reciprocal cells 3x 3x 3

    FEWALD:  cpu time      0.0037: real time      0.0038


--------------------------------------- Ionic step        1  -------------------------------------------




--------------------------------------- Iteration      1(   1)  ---------------------------------------


vdW kernel read from vdw_kernel.bindat
  0.0000  0.2424  0.5071  0.7962  1.1119  1.4567  1.8333  2.2446  2.6937  3.1842
  3.7199  4.3049  4.9438  5.6415  6.4036  7.2358  8.1446  9.1372 10.2212 11.4050
 12.6979 14.1099 15.6519 17.3360 19.1751 21.1837 23.3773 25.7729 28.3892 31.2465
 34.3669 37.7748 41.4965 45.5611 50.0000

    POTLOK:  cpu time     14.8747: real time     14.8800
    SETDIJ:  cpu time      0.0737: real time      0.0737
    TRIAL :  cpu time      0.1523: real time      0.1533
    CORREC:  cpu time      0.0015: real time      0.0016
    --------------------------------------------
      LOOP:  cpu time     15.1081: real time     15.1148

 eigenvalue-minimisations  :    24
 total energy-change (2. order) : 0.7440583E+02  (-0.1501263E+03)
 number of electron       8.0000000 magnetization 
 augmentation part        8.0000000 magnetization 

 Free energy of the ion-electron system (eV)
  ---------------------------------------------------
  alpha Z        PSCENC =         0.02212312
  Ewald energy   TEWEN  =       172.96321032
  -Hartree energ DENC   =      -381.98205141
  -exchange      EXHF   =         0.00000000
  -V(xc)+E(xc)   XCENC  =        22.95969589
  PAW double counting   =       210.02489234     -208.47973962
  entropy T*S    EENTRO =        -0.00000000
  eigenvalues    EBANDS =       -46.02243109
  atomic energy  EATOM  =       304.92013109
  ---------------------------------------------------
  free energy    TOTEN  =        74.40583064 eV

  energy without entropy =       74.40583064  energy(sigma->0) =       74.40583064


--------------------------------------------------------------------------------------------------------




--------------------------------------- Iteration      1(   2)  ---------------------------------------


    TRIAL :  cpu time      0.1671: real time      0.1671
    CORREC:  cpu time      0.0001: real time      0.0001
    --------------------------------------------
      LOOP:  cpu time      0.1788: real time      0.1943

 eigenvalue-minimisations  :    32
 total energy-change (2. order) :-0.4042025E+02  (-0.4042025E+02)
 number of electron       8.0000000 magnetization 
 augmentation part        8.0000000 magnetization 

 Free energy of the ion-electron system (eV)
  ---------------------------------------------------
  alpha Z        PSCENC =         0.02212312
  Ewald energy   TEWEN  =       172.96321032
  -Hartree energ DENC   =      -381.98205141
  -exchange      EXHF   =         0.00000000
  -V(xc)+E(xc)   XCENC  =        22.95969589
  PAW double counting   =       210.02489234     -208.47973962
  entropy T*S    EENTRO =        -0.00000000
  eigenvalues    EBANDS =       -86.44268600
  atomic energy  EATOM  =       304.92013109
  ---------------------------------------------------
  free energy    TOTEN  =        33.98557573 eV

  energy without entropy =       33.98557573  energy(sigma->0) =       33.98557573


--------------------------------------------------------------------------------------------------------




--------------------------------------- Iteration      1(   3)  ---------------------------------------


    TRIAL :  cpu time      0.1361: real time      0.1361
    CORREC:  cpu time      0.0001: real time      0.0001
    --------------------------------------------
      LOOP:  cpu time      0.1501: real time      0.1647

 eigenvalue-minimisations  :    24
 total energy-change (2. order) :-0.4992283E+02  (-0.4992283E+02)
 number of electron       8.0000000 magnetization 
 augmentation part        8.0000000 magnetization 

 Free energy of the ion-electron system (eV)
  ---------------------------------------------------
  alpha Z        PSCENC =         0.02212312
  Ewald energy   TEWEN  =       172.96321032
  -Hartree energ DENC   =      -381.98205141
  -exchange      EXHF   =         0.00000000
  -V(xc)+E(xc)   XCENC  =        22.95969589
  PAW double counting   =       210.02489234     -208.47973962
  entropy T*S    EENTRO =        -0.00000000
  eigenvalues    EBANDS =      -136.36551883
  atomic energy  EATOM  =       304.92013109
  ---------------------------------------------------
  free energy    TOTEN  =       -15.93725710 eV

  energy without entropy =      -15.93725710  energy(sigma->0) =      -15.93725710


--------------------------------------------------------------------------------------------------------




--------------------------------------- Iteration      1(   4)  ---------------------------------------


    TRIAL :  cpu time      0.1025: real time      0.1025
    CORREC:  cpu time      0.0001: real time      0.0001
    --------------------------------------------
      LOOP:  cpu time      0.1307: real time      0.1310

 eigenvalue-minimisations  :    16
 total energy-change (2. order) :-0.5094615E+01  (-0.5094615E+01)
 number of electron       8.0000000 magnetization 
 augmentation part        8.0000000 magnetization 

 Free energy of the ion-electron system (eV)
  ---------------------------------------------------
  alpha Z        PSCENC =         0.02212312
  Ewald energy   TEWEN  =       172.96321032
  -Hartree energ DENC   =      -381.98205141
  -exchange      EXHF   =         0.00000000
  -V(xc)+E(xc)   XCENC  =        22.95969589
  PAW double counting   =       210.02489234     -208.47973962
  entropy T*S    EENTRO =        -0.00000000
  eigenvalues    EBANDS =      -141.46013421
  atomic energy  EATOM  =       304.92013109
  ---------------------------------------------------
  free energy    TOTEN  =       -21.03187247 eV

  energy without entropy =      -21.03187247  energy(sigma->0) =      -21.03187247


--------------------------------------------------------------------------------------------------------




--------------------------------------- Iteration      1(   5)  ---------------------------------------


    TRIAL :  cpu time      0.1710: real time      0.1710
    CORREC:  cpu time      0.0001: real time      0.0001
    CHARGE:  cpu time      2.1970: real time      2.1984
    --------------------------------------------
      LOOP:  cpu time      2.3845: real time      2.3988

 eigenvalue-minimisations  :    32
 total energy-change (2. order) :-0.1855021E+00  (-0.1855021E+00)
 number of electron       8.0000000 magnetization 
 augmentation part        0.0176778 magnetization 

 Free energy of the ion-electron system (eV)
  ---------------------------------------------------
  alpha Z        PSCENC =         0.02212312
  Ewald energy   TEWEN  =       172.96321032
  -Hartree energ DENC   =      -381.98205141
  -exchange      EXHF   =         0.00000000
  -V(xc)+E(xc)   XCENC  =        22.95969589
  PAW double counting   =       210.02489234     -208.47973962
  entropy T*S    EENTRO =        -0.00000000
  eigenvalues    EBANDS =      -141.64563632
  atomic energy  EATOM  =       304.92013109
  ---------------------------------------------------
  free energy    TOTEN  =       -21.21737459 eV

  energy without entropy =      -21.21737459  energy(sigma->0) =      -21.21737459


--------------------------------------------------------------------------------------------------------




--------------------------------------- Iteration      1(   6)  ---------------------------------------


    POTLOK:  cpu time     14.3337: real time     14.3374
    SETDIJ:  cpu time      0.0679: real time      0.0679
    TRIAL :  cpu time      0.0945: real time      0.0955
    CORREC:  cpu time     16.5873: real time     16.5926
    CHARGE:  cpu time      2.1834: real time      2.1842
    --------------------------------------------
      LOOP:  cpu time     33.2814: real time     33.3061

 eigenvalue-minimisations  :     0
 total energy-change (2. order) : 0.7712205E+01  (-0.3893019E+01)
 number of electron       8.0000000 magnetization 
 augmentation part        0.0034075 magnetization 

 Free energy of the ion-electron system (eV)
  ---------------------------------------------------
  alpha Z        PSCENC =         0.02212312
  Ewald energy   TEWEN  =       172.96321032
  -Hartree energ DENC   =      -472.48398235
  -exchange      EXHF   =         0.00000000
  -V(xc)+E(xc)   XCENC  =        27.95659934
  PAW double counting   =      1247.00205332    -1246.00509950
  entropy T*S    EENTRO =        -0.00000000
  eigenvalues    EBANDS =       -47.88020494
  atomic energy  EATOM  =       304.92013109
  ---------------------------------------------------
  free energy    TOTEN  =       -13.50516959 eV

  energy without entropy =      -13.50516959  energy(sigma->0) =      -13.50516959


--------------------------------------------------------------------------------------------------------




--------------------------------------- Iteration      1(   7)  ---------------------------------------


    POTLOK:  cpu time     14.3430: real time     14.3474
    SETDIJ:  cpu time      0.0676: real time      0.0676
    TRIAL :  cpu time      0.0697: real time      0.0697
    CORREC:  cpu time     16.5683: real time     16.5730
    CHARGE:  cpu time      2.1799: real time      2.1806
    --------------------------------------------
      LOOP:  cpu time     33.2577: real time     33.2679

 eigenvalue-minimisations  :     0
 total energy-change (2. order) :-0.3976910E+01  (-0.3184384E+00)
 number of electron       8.0000000 magnetization 
 augmentation part       -0.0060708 magnetization 

 Free energy of the ion-electron system (eV)
  ---------------------------------------------------
  alpha Z        PSCENC =         0.02212312
  Ewald energy   TEWEN  =       172.96321032
  -Hartree energ DENC   =      -425.86632530
  -exchange      EXHF   =         0.00000000
  -V(xc)+E(xc)   XCENC  =        25.45643260
  PAW double counting   =      2202.28602837    -2200.96109483
  entropy T*S    EENTRO =        -0.00000000
  eigenvalues    EBANDS =       -96.30258501
  atomic energy  EATOM  =       304.92013109
  ---------------------------------------------------
  free energy    TOTEN  =       -17.48207963 eV

  energy without entropy =      -17.48207963  energy(sigma->0) =      -17.48207963


--------------------------------------------------------------------------------------------------------




--------------------------------------- Iteration      1(   8)  ---------------------------------------


    POTLOK:  cpu time     14.3728: real time     14.3768
    SETDIJ:  cpu time      0.0675: real time      0.0675
    TRIAL :  cpu time      0.0698: real time      0.0698
    CORREC:  cpu time     16.5783: real time     16.5827
    CHARGE:  cpu time      2.2361: real time      2.2370
    --------------------------------------------
      LOOP:  cpu time     33.3378: real time     33.3631

 eigenvalue-minimisations  :     0
 total energy-change (2. order) :-0.3190310E+00  (-0.1462874E+00)
 number of electron       8.0000000 magnetization 
 augmentation part       -0.0070565 magnetization 

 Free energy of the ion-electron system (eV)
  ---------------------------------------------------
  alpha Z        PSCENC =         0.02212312
  Ewald energy   TEWEN  =       172.96321032
  -Hartree energ DENC   =      -424.13466851
  -exchange      EXHF   =         0.00000000
  -V(xc)+E(xc)   XCENC  =        25.41644200
  PAW double counting   =      2336.30242377    -2334.93803229
  entropy T*S    EENTRO =        -0.00000000
  eigenvalues    EBANDS =       -98.35274018
  atomic energy  EATOM  =       304.92013109
  ---------------------------------------------------
  free energy    TOTEN  =       -17.80111067 eV

  energy without entropy =      -17.80111067  energy(sigma->0) =      -17.80111067


--------------------------------------------------------------------------------------------------------




--------------------------------------- Iteration      1(   9)  ---------------------------------------


    POTLOK:  cpu time     14.2885: real time     14.2922
    SETDIJ:  cpu time      0.0677: real time      0.0677
    TRIAL :  cpu time      0.0700: real time      0.0700
    CORREC:  cpu time     16.5444: real time     16.5494
    CHARGE:  cpu time      2.1858: real time      2.1864
    --------------------------------------------
      LOOP:  cpu time     33.1745: real time     33.1946

 eigenvalue-minimisations  :     0
 total energy-change (2. order) :-0.1439975E+00  (-0.6575092E-01)
 number of electron       8.0000000 magnetization 
 augmentation part       -0.0067197 magnetization 

 Free energy of the ion-electron system (eV)
  ---------------------------------------------------
  alpha Z        PSCENC =         0.02212312
  Ewald energy   TEWEN  =       172.96321032
  -Hartree energ DENC   =      -422.50036609
  -exchange      EXHF   =         0.00000000
  -V(xc)+E(xc)   XCENC  =        25.36737330
  PAW double counting   =      2306.85778871    -2305.47509576
  entropy T*S    EENTRO =        -0.00000000
  eigenvalues    EBANDS =      -100.10027291
  atomic energy  EATOM  =       304.92013109
  ---------------------------------------------------
  free energy    TOTEN  =       -17.94510822 eV

  energy without entropy =      -17.94510822  energy(sigma->0) =      -17.94510822


--------------------------------------------------------------------------------------------------------




--------------------------------------- Iteration      1(  10)  ---------------------------------------


    POTLOK:  cpu time     14.2864: real time     14.2903
    SETDIJ:  cpu time      0.0677: real time      0.0677
    TRIAL :  cpu time      0.0698: real time      0.0698
    CORREC:  cpu time     16.6256: real time     16.6305
    CHARGE:  cpu time      2.1876: real time      2.1883
    --------------------------------------------
      LOOP:  cpu time     33.2519: real time     33.2752

 eigenvalue-minimisations  :     0
 total energy-change (2. order) :-0.6400829E-01  (-0.1687850E-01)
 number of electron       8.0000000 magnetization 
 augmentation part       -0.0067060 magnetization 

 Free energy of the ion-electron system (eV)
  ---------------------------------------------------
  alpha Z        PSCENC =         0.02212312
  Ewald energy   TEWEN  =       172.96321032
  -Hartree energ DENC   =      -422.22475926
  -exchange      EXHF   =         0.00000000
  -V(xc)+E(xc)   XCENC  =        25.35518262
  PAW double counting   =      2188.30828817    -2186.92768054
  entropy T*S    EENTRO =        -0.00000000
  eigenvalues    EBANDS =      -100.42561203
  atomic energy  EATOM  =       304.92013109
  ---------------------------------------------------
  free energy    TOTEN  =       -18.00911651 eV

  energy without entropy =      -18.00911651  energy(sigma->0) =      -18.00911651


--------------------------------------------------------------------------------------------------------




--------------------------------------- Iteration      1(  11)  ---------------------------------------


    POTLOK:  cpu time     14.3459: real time     14.3499
    SETDIJ:  cpu time      0.0677: real time      0.0677
    TRIAL :  cpu time      0.0699: real time      0.0699
    CORREC:  cpu time     16.6171: real time     16.6220
    CHARGE:  cpu time      2.1810: real time      2.1822
    --------------------------------------------
      LOOP:  cpu time     33.2948: real time     33.3216

 eigenvalue-minimisations  :     0
 total energy-change (2. order) :-0.1678371E-01  (-0.4431840E-02)
 number of electron       8.0000000 magnetization 
 augmentation part       -0.0064925 magnetization 

 Free energy of the ion-electron system (eV)
  ---------------------------------------------------
  alpha Z        PSCENC =         0.02212312
  Ewald energy   TEWEN  =       172.96321032
  -Hartree energ DENC   =      -421.73974847
  -exchange      EXHF   =         0.00000000
  -V(xc)+E(xc)   XCENC  =        25.31764114
  PAW double counting   =      2128.10336831    -2126.72525188
  entropy T*S    EENTRO =        -0.00000000
  eigenvalues    EBANDS =      -100.88737385
  atomic energy  EATOM  =       304.92013109
  ---------------------------------------------------
  free energy    TOTEN  =       -18.02590022 eV

  energy without entropy =      -18.02590022  energy(sigma->0) =      -18.02590022


--------------------------------------------------------------------------------------------------------




--------------------------------------- Iteration      1(  12)  ---------------------------------------


    POTLOK:  cpu time     14.3093: real time     14.3133
    SETDIJ:  cpu time      0.0689: real time      0.0689
    TRIAL :  cpu time      0.0696: real time      0.0696
    CORREC:  cpu time     16.6432: real time     16.6491
    CHARGE:  cpu time      2.1816: real time      2.1823
    --------------------------------------------
      LOOP:  cpu time     33.3021: real time     33.3131

 eigenvalue-minimisations  :     0
 total energy-change (2. order) :-0.4432687E-02  (-0.1473324E-02)
 number of electron       8.0000000 magnetization 
 augmentation part       -0.0062906 magnetization 

 Free energy of the ion-electron system (eV)
  ---------------------------------------------------
  alpha Z        PSCENC =         0.02212312
  Ewald energy   TEWEN  =       172.96321032
  -Hartree energ DENC   =      -421.79287833
  -exchange      EXHF   =         0.00000000
  -V(xc)+E(xc)   XCENC  =        25.31287590
  PAW double counting   =      2110.15609772    -2108.78131102
  entropy T*S    EENTRO =        -0.00000000
  eigenvalues    EBANDS =      -100.83058170
  atomic energy  EATOM  =       304.92013109
  ---------------------------------------------------
  free energy    TOTEN  =       -18.03033291 eV

  energy without entropy =      -18.03033291  energy(sigma->0) =      -18.03033291


--------------------------------------------------------------------------------------------------------




--------------------------------------- Iteration      1(  13)  ---------------------------------------


    POTLOK:  cpu time     14.2532: real time     14.2575
    SETDIJ:  cpu time      0.0677: real time      0.0677
    TRIAL :  cpu time      0.0709: real time      0.0709
    CORREC:  cpu time     16.5613: real time     16.5668
    CHARGE:  cpu time      2.2295: real time      2.2301
    --------------------------------------------
      LOOP:  cpu time     33.1942: real time     33.2216

 eigenvalue-minimisations  :     0
 total energy-change (2. order) :-0.1476973E-02  (-0.4819765E-03)
 number of electron       8.0000000 magnetization 
 augmentation part       -0.0062035 magnetization 

 Free energy of the ion-electron system (eV)
  ---------------------------------------------------
  alpha Z        PSCENC =         0.02212312
  Ewald energy   TEWEN  =       172.96321032
  -Hartree energ DENC   =      -421.88468262
  -exchange      EXHF   =         0.00000000
  -V(xc)+E(xc)   XCENC  =        25.31347362
  PAW double counting   =      2113.80280391    -2112.42991530
  entropy T*S    EENTRO =        -0.00000000
  eigenvalues    EBANDS =      -100.73895402
  atomic energy  EATOM  =       304.92013109
  ---------------------------------------------------
  free energy    TOTEN  =       -18.03180988 eV

  energy without entropy =      -18.03180988  energy(sigma->0) =      -18.03180988


--------------------------------------------------------------------------------------------------------




--------------------------------------- Iteration      1(  14)  ---------------------------------------


    POTLOK:  cpu time     14.3192: real time     14.3237
    SETDIJ:  cpu time      0.0672: real time      0.0675
    TRIAL :  cpu time      0.0699: real time      0.0699
    CORREC:  cpu time     16.5855: real time     16.5906
    CHARGE:  cpu time      2.1858: real time      2.1865
    --------------------------------------------
      LOOP:  cpu time     33.2410: real time     33.2678

 eigenvalue-minimisations  :     0
 total energy-change (2. order) :-0.4835580E-03  (-0.1568767E-03)
 number of electron       8.0000000 magnetization 
 augmentation part       -0.0061578 magnetization 

 Free energy of the ion-electron system (eV)
  ---------------------------------------------------
  alpha Z        PSCENC =         0.02212312
  Ewald energy   TEWEN  =       172.96321032
  -Hartree energ DENC   =      -421.85676010
  -exchange      EXHF   =         0.00000000
  -V(xc)+E(xc)   XCENC  =        25.31011346
  PAW double counting   =      2120.32268204    -2118.95000157
  entropy T*S    EENTRO =        -0.00000000
  eigenvalues    EBANDS =      -100.76379180
  atomic energy  EATOM  =       304.92013109
  ---------------------------------------------------
  free energy    TOTEN  =       -18.03229344 eV

  energy without entropy =      -18.03229344  energy(sigma->0) =      -18.03229344


--------------------------------------------------------------------------------------------------------




--------------------------------------- Iteration      1(  15)  ---------------------------------------


    POTLOK:  cpu time     14.2647: real time     14.2693
    SETDIJ:  cpu time      0.0676: real time      0.0676
    TRIAL :  cpu time      0.0697: real time      0.0697
    CORREC:  cpu time     16.5443: real time     16.5490
    CHARGE:  cpu time      2.1798: real time      2.1807
    --------------------------------------------
      LOOP:  cpu time     33.1551: real time     33.1658

 eigenvalue-minimisations  :     0
 total energy-change (2. order) :-0.1573128E-03  (-0.5268726E-04)
 number of electron       8.0000000 magnetization 
 augmentation part       -0.0061288 magnetization 

 Free energy of the ion-electron system (eV)
  ---------------------------------------------------
  alpha Z        PSCENC =         0.02212312
  Ewald energy   TEWEN  =       172.96321032
  -Hartree energ DENC   =      -421.92453832
  -exchange      EXHF   =         0.00000000
  -V(xc)+E(xc)   XCENC  =        25.31365212
  PAW double counting   =      2121.52530114    -2120.15290125
  entropy T*S    EENTRO =        -0.00000000
  eigenvalues    EBANDS =      -100.69942897
  atomic energy  EATOM  =       304.92013109
  ---------------------------------------------------
  free energy    TOTEN  =       -18.03245075 eV

  energy without entropy =      -18.03245075  energy(sigma->0) =      -18.03245075


--------------------------------------------------------------------------------------------------------




--------------------------------------- Iteration      1(  16)  ---------------------------------------


    POTLOK:  cpu time     14.3486: real time     14.3525
    SETDIJ:  cpu time      0.0677: real time      0.0677
    TRIAL :  cpu time      0.0701: real time      0.0701
    CORREC:  cpu time     16.5512: real time     16.5560
    CHARGE:  cpu time      2.1859: real time      2.1866
    --------------------------------------------
      LOOP:  cpu time     33.2384: real time     33.2617

 eigenvalue-minimisations  :     0
 total energy-change (2. order) :-0.5282342E-04  (-0.1696114E-04)
 number of electron       8.0000000 magnetization 
 augmentation part       -0.0061008 magnetization 

 Free energy of the ion-electron system (eV)
  ---------------------------------------------------
  alpha Z        PSCENC =         0.02212312
  Ewald energy   TEWEN  =       172.96321032
  -Hartree energ DENC   =      -421.92567119
  -exchange      EXHF   =         0.00000000
  -V(xc)+E(xc)   XCENC  =        25.31390362
  PAW double counting   =      2121.04222724    -2119.66971155
  entropy T*S    EENTRO =        -0.00000000
  eigenvalues    EBANDS =      -100.69871623
  atomic energy  EATOM  =       304.92013109
  ---------------------------------------------------
  free energy    TOTEN  =       -18.03250357 eV

  energy without entropy =      -18.03250357  energy(sigma->0) =      -18.03250357


--------------------------------------------------------------------------------------------------------




--------------------------------------- Iteration      1(  17)  ---------------------------------------


    POTLOK:  cpu time     14.3364: real time     14.3407
    SETDIJ:  cpu time      0.0676: real time      0.0676
    TRIAL :  cpu time      0.0696: real time      0.0696
    CORREC:  cpu time     16.6662: real time     16.6708
    CHARGE:  cpu time      2.1787: real time      2.1792
    --------------------------------------------
      LOOP:  cpu time     33.3312: real time     33.3580

 eigenvalue-minimisations  :     0
 total energy-change (2. order) :-0.1702873E-04  (-0.5415122E-05)
 number of electron       8.0000000 magnetization 
 augmentation part       -0.0060918 magnetization 

 Free energy of the ion-electron system (eV)
  ---------------------------------------------------
  alpha Z        PSCENC =         0.02212312
  Ewald energy   TEWEN  =       172.96321032
  -Hartree energ DENC   =      -421.93915113
  -exchange      EXHF   =         0.00000000
  -V(xc)+E(xc)   XCENC  =        25.31491452
  PAW double counting   =      2120.70998060    -2119.33747210
  entropy T*S    EENTRO =        -0.00000000
  eigenvalues    EBANDS =      -100.68625702
  atomic energy  EATOM  =       304.92013109
  ---------------------------------------------------
  free energy    TOTEN  =       -18.03252060 eV

  energy without entropy =      -18.03252060  energy(sigma->0) =      -18.03252060


--------------------------------------------------------------------------------------------------------




--------------------------------------- Iteration      1(  18)  ---------------------------------------


    POTLOK:  cpu time     14.2245: real time     14.2285
    SETDIJ:  cpu time      0.0692: real time      0.0694
    TRIAL :  cpu time      0.0699: real time      0.0699
    CORREC:  cpu time     16.4629: real time     16.4676
    CHARGE:  cpu time      2.1802: real time      2.1808
    --------------------------------------------
      LOOP:  cpu time     33.0354: real time     33.0451

 eigenvalue-minimisations  :     0
 total energy-change (2. order) :-0.5415143E-05  (-0.1768894E-05)
 number of electron       8.0000000 magnetization 
 augmentation part       -0.0060962 magnetization 

 Free energy of the ion-electron system (eV)
  ---------------------------------------------------
  alpha Z        PSCENC =         0.02212312
  Ewald energy   TEWEN  =       172.96321032
  -Hartree energ DENC   =      -421.94441118
  -exchange      EXHF   =         0.00000000
  -V(xc)+E(xc)   XCENC  =        25.31541528
  PAW double counting   =      2121.38460325    -2120.01209081
  entropy T*S    EENTRO =        -0.00000000
  eigenvalues    EBANDS =      -100.68150709
  atomic energy  EATOM  =       304.92013109
  ---------------------------------------------------
  free energy    TOTEN  =       -18.03252602 eV

  energy without entropy =      -18.03252602  energy(sigma->0) =      -18.03252602


--------------------------------------------------------------------------------------------------------




--------------------------------------- Iteration      1(  19)  ---------------------------------------


    POTLOK:  cpu time     14.2285: real time     14.2321
    SETDIJ:  cpu time      0.0676: real time      0.0676
    TRIAL :  cpu time      0.0696: real time      0.0696
    CORREC:  cpu time     16.5387: real time     16.5435
    CHARGE:  cpu time      2.1994: real time      2.2001
    --------------------------------------------
      LOOP:  cpu time     33.1193: real time     33.1439

 eigenvalue-minimisations  :     0
 total energy-change (2. order) :-0.1752976E-05  (-0.5112225E-06)
 number of electron       8.0000000 magnetization 
 augmentation part       -0.0060998 magnetization 

 Free energy of the ion-electron system (eV)
  ---------------------------------------------------
  alpha Z        PSCENC =         0.02212312
  Ewald energy   TEWEN  =       172.96321032
  -Hartree energ DENC   =      -421.93782149
  -exchange      EXHF   =         0.00000000
  -V(xc)+E(xc)   XCENC  =        25.31516654
  PAW double counting   =      2122.49301053    -2121.12043803
  entropy T*S    EENTRO =        -0.00000000
  eigenvalues    EBANDS =      -100.68790985
  atomic energy  EATOM  =       304.92013109
  ---------------------------------------------------
  free energy    TOTEN  =       -18.03252777 eV

  energy without entropy =      -18.03252777  energy(sigma->0) =      -18.03252777


--------------------------------------------------------------------------------------------------------




--------------------------------------- Iteration      1(  20)  ---------------------------------------


    POTLOK:  cpu time     14.2205: real time     14.2247
    SETDIJ:  cpu time      0.0678: real time      0.0678
    TRIAL :  cpu time      0.0690: real time      0.0690
    CORREC:  cpu time     16.5054: real time     16.5101
    CHARGE:  cpu time      2.1828: real time      2.1836
    --------------------------------------------
      LOOP:  cpu time     33.0599: real time     33.0859

 eigenvalue-minimisations  :     0
 total energy-change (2. order) :-0.4855519E-06  (-0.1372597E-06)
 number of electron       8.0000000 magnetization 
 augmentation part       -0.0061037 magnetization 

 Free energy of the ion-electron system (eV)
  ---------------------------------------------------
  alpha Z        PSCENC =         0.02212312
  Ewald energy   TEWEN  =       172.96321032
  -Hartree energ DENC   =      -421.94116610
  -exchange      EXHF   =         0.00000000
  -V(xc)+E(xc)   XCENC  =        25.31540387
  PAW double counting   =      2123.17086462    -2121.79829032
  entropy T*S    EENTRO =        -0.00000000
  eigenvalues    EBANDS =      -100.68480485
  atomic energy  EATOM  =       304.92013109
  ---------------------------------------------------
  free energy    TOTEN  =       -18.03252826 eV

  energy without entropy =      -18.03252826  energy(sigma->0) =      -18.03252826


--------------------------------------------------------------------------------------------------------




--------------------------------------- Iteration      1(  21)  ---------------------------------------


    POTLOK:  cpu time     14.2684: real time     14.2732
    SETDIJ:  cpu time      0.0676: real time      0.0676
    TRIAL :  cpu time      0.0696: real time      0.0696
    CORREC:  cpu time     16.5990: real time     16.6045
    CHARGE:  cpu time      2.1831: real time      2.1838
    --------------------------------------------
      LOOP:  cpu time     33.1993: real time     33.2280

 eigenvalue-minimisations  :     0
 total energy-change (2. order) :-0.1342974E-06  (-0.6248089E-07)
 number of electron       8.0000000 magnetization 
 augmentation part       -0.0061044 magnetization 

 Free energy of the ion-electron system (eV)
  ---------------------------------------------------
  alpha Z        PSCENC =         0.02212312
  Ewald energy   TEWEN  =       172.96321032
  -Hartree energ DENC   =      -421.93783179
  -exchange      EXHF   =         0.00000000
  -V(xc)+E(xc)   XCENC  =        25.31522019
  PAW double counting   =      2123.38150476    -2122.00890625
  entropy T*S    EENTRO =        -0.00000000
  eigenvalues    EBANDS =      -100.68797982
  atomic energy  EATOM  =       304.92013109
  ---------------------------------------------------
  free energy    TOTEN  =       -18.03252839 eV

  energy without entropy =      -18.03252839  energy(sigma->0) =      -18.03252839


--------------------------------------------------------------------------------------------------------




--------------------------------------- Iteration      1(  22)  ---------------------------------------


    POTLOK:  cpu time     14.2769: real time     14.2813
    SETDIJ:  cpu time      0.0677: real time      0.0677
    TRIAL :  cpu time      0.0698: real time      0.0698
    CORREC:  cpu time     16.5254: real time     16.5306
    EDDIAG:  cpu time      0.0388: real time      0.0392
    CHARGE:  cpu time      2.1795: real time      2.1801
    --------------------------------------------
      LOOP:  cpu time     33.1756: real time     33.1979

 eigenvalue-minimisations  :     0
 total energy-change (2. order) :-0.5802531E-07  (-0.1752256E-07)
 number of electron       8.0000000 magnetization 
 augmentation part       -0.0061047 magnetization 

 Free energy of the ion-electron system (eV)
  ---------------------------------------------------
  alpha Z        PSCENC =         0.02212312
  Ewald energy   TEWEN  =       172.96321032
  -Hartree energ DENC   =      -421.93918477
  -exchange      EXHF   =         0.00000000
  -V(xc)+E(xc)   XCENC  =        25.31528556
  PAW double counting   =      2123.25698421    -2121.88439430
  entropy T*S    EENTRO =        -0.00000000
  eigenvalues    EBANDS =      -100.68668367
  atomic energy  EATOM  =       304.92013109
  ---------------------------------------------------
  free energy    TOTEN  =       -18.03252845 eV

  energy without entropy =      -18.03252845  energy(sigma->0) =      -18.03252845


--------------------------------------------------------------------------------------------------------


  average scaling for gradient   1.1121


 average (electrostatic) potential at core
  the test charge radii are     0.4325  0.5902
  (the norm of the test charge is              1.0000)
       1 -47.1264       2 -47.1293       3 -47.1328       4-103.4463



 E-fermi :  -6.2436     XC(G=0):  -0.1145     alpha+bet : -0.0217

 Fermi energy:        -6.2435884044

 k-point     1 :       0.0000    0.0000    0.0000
  band No.  band energies     occupation 
      1     -21.2444      2.00000
      2     -11.3960      2.00000
      3     -11.3942      2.00000
      4      -6.3091      2.00000
      5      -1.1079      0.00000
      6       0.0652      0.00000
      7       0.1055      0.00000
      8       0.1056      0.00000


--------------------------------------------------------------------------------------------------------


 soft charge-density along one line, spin component           1
         0         1         2         3         4         5         6         7         8         9
 total charge-density along one line

 pseudopotential strength for first ion, spin component:           1
 -2.536  -5.393   0.001  -0.002   0.003
 -5.393 -11.443   0.002  -0.004   0.006
  0.001   0.002  -1.391  -0.003   0.004
 -0.002  -0.004  -0.003  -1.388  -0.008
  0.003   0.006   0.004  -0.008  -1.381
 total augmentation occupancy for first ion, spin component:           1
  3.643  -0.567  -0.084   0.140  -0.236
 -0.567   0.107   0.014  -0.021   0.038
 -0.084   0.014   0.006  -0.001   0.005
  0.140  -0.021  -0.001   0.010  -0.006
 -0.236   0.038   0.005  -0.006   0.017


------------------------ aborting loop because EDIFF is reached ----------------------------------------


    FORLOC:  cpu time      0.0191: real time      0.0191
    FORNL :  cpu time      0.0068: real time      0.0068
    FORCOR:  cpu time     14.9416: real time     14.9459
    OFIELD:  cpu time      0.0037: real time      0.0037

 VOLUME and BASIS-vectors are now :
 -----------------------------------------------------------------------------
  energy-cutoff  :     1000.00
  volume of cell :     8000.00
      direct lattice vectors                 reciprocal lattice vectors
    20.000000000  0.000000000  0.000000000     0.050000000  0.000000000  0.000000000
     0.000000000 20.000000000  0.000000000     0.000000000  0.050000000  0.000000000
     0.000000000  0.000000000 20.000000000     0.000000000  0.000000000  0.050000000

  length of vectors
    20.000000000 20.000000000 20.000000000     0.050000000  0.050000000  0.050000000


 FORCES acting on ions:
    Electron-Ion                     Ewald-Force                    Non-Local-Force
 -----------------------------------------------------------------------------------------------
   -.574E+02 -.197E+02 0.362E+02   0.633E+02 0.218E+02 -.398E+02   -.591E+01 -.208E+01 0.362E+01
   -.197E+02 0.362E+02 -.574E+02   0.218E+02 -.398E+02 0.633E+02   -.208E+01 0.362E+01 -.591E+01
   0.362E+02 -.574E+02 -.197E+02   -.398E+02 0.633E+02 0.218E+02   0.362E+01 -.591E+01 -.208E+01
   0.268E+02 0.267E+02 0.267E+02   -.453E+02 -.453E+02 -.453E+02   0.188E+02 0.188E+02 0.188E+02
 -----------------------------------------------------------------------------------------------
   -.144E+02 -.145E+02 -.145E+02   0.000E+00 0.711E-14 0.000E+00   0.144E+02 0.144E+02 0.144E+02


 POSITION                                       TOTAL-FORCE (eV/Angst)
 -----------------------------------------------------------------------------------
     10.66327     10.12950      9.33673         0.045391      0.020597     -0.016200
     10.12951      9.33673     10.66327         0.020597     -0.016200      0.045391
      9.33673     10.66327     10.12951        -0.016200      0.045391      0.020597
      9.82044      9.82050      9.82051        -0.049788     -0.049788     -0.049788
 -----------------------------------------------------------------------------------
    total drift:                                0.056100     -0.023774     -0.030066


--------------------------------------------------------------------------------------------------------



  FREE ENERGIE OF THE ION-ELECTRON SYSTEM (eV)
  ---------------------------------------------------
  free  energy   TOTEN  =       -18.03252845 eV

  energy  without entropy=      -18.03252845  energy(sigma->0) =      -18.03252845



--------------------------------------------------------------------------------------------------------


    POTLOK:  cpu time     14.3160: real time     14.3203


--------------------------------------------------------------------------------------------------------


 stress matrix after NEB project (eV)
      0.00000      0.00000      0.00000
      0.00000      0.00000      0.00000
      0.00000      0.00000      0.00000
  FORCES: max atom, RMS     0.086235    0.062605
  FORCE total and by dimension    0.125210    0.049788
  Stress total and by dimension    0.000000    0.000000
     LOOP+:  cpu time    611.9171: real time    612.3630
    4ORBIT:  cpu time      0.0000: real time      0.0000

 total amount of memory used by VASP MPI-rank0    73259. kBytes
=======================================================================

   base      :      30000. kBytes
   nonl-proj :        860. kBytes
   fftplans  :      15076. kBytes
   grid      :      26893. kBytes
   one-center:          1. kBytes
   wavefun   :        429. kBytes

  
  
 General timing and accounting informations for this job:
 ========================================================
  
                  Total CPU time used (sec):      634.062
                            User time (sec):      604.373
                          System time (sec):       29.689
                         Elapsed time (sec):      638.642
  
                   Maximum memory used (kb):      549372.
                   Average memory used (kb):          N/A
  
                          Minor page faults:      1589295
                          Major page faults:          333
                 Voluntary context switches:         6311
