 vasp.6.4.1 05Apr23 (build Jun  6 2023 14:46:38) gamma-only                      
 executed on        HPECrayEX_GCC date 2024.08.20  23:52:36
 running  256 mpi-ranks, with    1 threads/rank, on    2 nodes
 distrk:  each k-point on  128 cores,    2 groups
 distr:  one band on NCORE=  32 cores,    4 groups


--------------------------------------------------------------------------------------------------------


 INCAR:
   ALGO = Conjugate
   KPAR = 2
   NCORE = 32
   PREC = Accurate
   EDIFF = 1E-7
   ENCUT = 1000
   ISMEAR = 0
   SIGMA = 0.01
   ISIF = 0
   SYMPREC = 1E-7
   LWAVE = .FALSE.
   LCHARG = .FALSE.

 POTCAR:    PAW_PBE H_h 06Feb2004                 
 POTCAR:    PAW_PBE N_h 06Feb2004                 
 POTCAR:    PAW_PBE H_h 06Feb2004                 
   VRHFIN =H: ultrasoft test                                                                        
   LEXCH  = PE                                                                                      
   EATOM  =    12.4884 eV,    0.9179 Ry                                                             
                                                                                                    
   TITEL  = PAW_PBE H_h 06Feb2004                                                                   
   LULTRA =        F    use ultrasoft PP ?                                                          
   IUNSCR =        0    unscreen: 0-lin 1-nonlin 2-no                                               
   RPACOR =    0.000    partial core radius                                                         
   POMASS =    1.000; ZVAL   =    1.000    mass and valenz                                          
   RCORE  =    0.800    outmost cutoff radius                                                       
   RWIGS  =    0.700; RWIGS  =    0.370    wigner-seitz radius (au A)                               
   ENMAX  =  700.000; ENMIN  =  350.000 eV                                                          
   RCLOC  =    0.701    cutoff for local pot                                                        
   LCOR   =        T    correct aug charges                                                         
   LPAW   =        T    paw PP                                                                      
   EAUG   = 1000.000                                                                                
   RMAX   =    0.819    core radius for proj-oper                                                   
   RAUG   =    1.000    factor for augmentation sphere                                              
   RDEP   =    0.817    radius for radial grids                                                     
   RDEPT  =    0.817    core radius for aug-charge                                                  
                                                                                                    
   Atomic configuration                                                                             
    2 entries                                                                                       
     n  l   j            E        occ.                                                              
     1  0  0.50        -6.4927   1.0000                                                             
     2  1  0.50        -3.4015   0.0000                                                             
   Description                                                                                      
     l       E           TYP  RCUT    TYP  RCUT                                                     
     0     -6.4927493     23  0.800                                                                 
     0      6.8029130     23  0.800                                                                 
     1     -6.8029130     23  0.800                                                                 
  local pseudopotential read in
  atomic valenz-charges read in
  non local Contribution for L=           0  read in
    real space projection operators read in
  non local Contribution for L=           0  read in
    real space projection operators read in
  non local Contribution for L=           1  read in
    real space projection operators read in
    PAW grid and wavefunctions read in

   number of l-projection  operators is LMAX  =           3
   number of lm-projection operators is LMMAX =           5

 POTCAR:    PAW_PBE N_h 06Feb2004                 
   VRHFIN =N: s2p3                                                                                  
   LEXCH  = PE                                                                                      
   EATOM  =   264.5486 eV,   19.4438 Ry                                                             
                                                                                                    
   TITEL  = PAW_PBE N_h 06Feb2004                                                                   
   LULTRA =        F    use ultrasoft PP ?                                                          
   IUNSCR =        1    unscreen: 0-lin 1-nonlin 2-no                                               
   RPACOR =    0.800    partial core radius                                                         
   POMASS =   14.001; ZVAL   =    5.000    mass and valenz                                          
   RCORE  =    1.100    outmost cutoff radius                                                       
   RWIGS  =    1.480; RWIGS  =    0.783    wigner-seitz radius (au A)                               
   ENMAX  =  700.000; ENMIN  =  500.000 eV                                                          
   ICORE  =        2    local potential                                                             
   LCOR   =        T    correct aug charges                                                         
   LPAW   =        T    paw PP                                                                      
   EAUG   =  904.640                                                                                
   DEXC   =    0.000                                                                                
   RMAX   =    1.127    core radius for proj-oper                                                   
   RAUG   =    1.300    factor for augmentation sphere                                              
   RDEP   =    1.115    radius for radial grids                                                     
   RDEPT  =    1.106    core radius for aug-charge                                                  
                                                                                                    
   Atomic configuration                                                                             
    4 entries                                                                                       
     n  l   j            E        occ.                                                              
     1  0  0.50      -384.7179   2.0000                                                             
     2  0  0.50       -18.5828   2.0000                                                             
     2  1  0.50        -7.0898   3.0000                                                             
     3  2  1.50        -6.8029   0.0000                                                             
   Description                                                                                      
     l       E           TYP  RCUT    TYP  RCUT                                                     
     0    -18.5828117     23  1.100                                                                 
     0    -15.0750597     23  1.100                                                                 
     1     -7.0897851     23  1.100                                                                 
     1     -1.9663412     23  1.100                                                                 
     2     -6.8029130      7  1.100                                                                 
  local pseudopotential read in
  partial core-charges read in
  partial kinetic energy density read in
  kinetic energy density of atom read in
  atomic valenz-charges read in
  non local Contribution for L=           0  read in
    real space projection operators read in
  non local Contribution for L=           0  read in
    real space projection operators read in
  non local Contribution for L=           1  read in
    real space projection operators read in
  non local Contribution for L=           1  read in
    real space projection operators read in
    PAW grid and wavefunctions read in

   number of l-projection  operators is LMAX  =           4
   number of lm-projection operators is LMMAX =           8

  PAW_PBE H_h 06Feb2004                 :
 energy of atom  1       EATOM=  -12.4884
 kinetic energy error for atom=    0.0006 (will be added to EATOM!!)
  PAW_PBE N_h 06Feb2004                 :
 energy of atom  2       EATOM= -264.5486
 kinetic energy error for atom=    0.0081 (will be added to EATOM!!)


 POSCAR:  H  N
  positions in cartesian coordinates
  No initial velocities read in
 exchange correlation table for  LEXCH =        8
   RHO(1)=    0.500       N(1)  =     2000
   RHO(2)=  100.500       N(2)  =     4000

 VTST: version 4.1, (05/19/21)

 CHAIN: initializing optimizer
 
 OPT: Using VASP Dynamics algorithm
 CHAIN: Read ICHAIN            0

 POSCAR:  H  N
  positions in cartesian coordinates
  No initial velocities read in



--------------------------------------------------------------------------------------------------------


 ion  position               nearest neighbor table
   1  0.533  0.506  0.467-   4 1.02
   2  0.506  0.467  0.533-   4 1.02
   3  0.467  0.533  0.506-   4 1.02
   4  0.491  0.491  0.491-   3 1.02   2 1.02   1 1.02

  LATTYP: Found a simple cubic cell.
 ALAT       =    20.0000000000
  
  Lattice vectors:
  
 A1 = (  20.0000000000,   0.0000000000,   0.0000000000)
 A2 = (   0.0000000000,  20.0000000000,   0.0000000000)
 A3 = (   0.0000000000,   0.0000000000,  20.0000000000)


Analysis of symmetry for initial positions (statically):
=====================================================================
 Subroutine PRICEL returns:
 Original cell was already a primitive cell.
 

 Routine SETGRP: Setting up the symmetry group for a 
 simple cubic supercell.


 Subroutine GETGRP returns: Found  1 space group operations
 (whereof  1 operations were pure point group operations)
 out of a pool of 48 trial point group operations.


The static configuration has the point symmetry C_1 .


Analysis of symmetry for dynamics (positions and initial velocities):
=====================================================================
 Subroutine PRICEL returns:
 Original cell was already a primitive cell.
 

 Routine SETGRP: Setting up the symmetry group for a 
 simple cubic supercell.


 Subroutine GETGRP returns: Found  1 space group operations
 (whereof  1 operations were pure point group operations)
 out of a pool of 48 trial point group operations.


The dynamic configuration has the point symmetry C_1 .


 Subroutine INISYM returns: Found  1 space group operations
 (whereof  1 operations are pure point group operations),
 and found     1 'primitive' translations


----------------------------------------------------------------------------------------

                                     Primitive cell                                     

  volume of cell :    8000.0000

  direct lattice vectors                    reciprocal lattice vectors
    20.000000000  0.000000000  0.000000000     0.050000000  0.000000000  0.000000000
     0.000000000 20.000000000  0.000000000     0.000000000  0.050000000  0.000000000
     0.000000000  0.000000000 20.000000000     0.000000000  0.000000000  0.050000000

  length of vectors
    20.000000000 20.000000000 20.000000000     0.050000000  0.050000000  0.050000000

  position of ions in fractional coordinates (direct lattice)
     0.533163250  0.506474750  0.466836500
     0.506475750  0.466836250  0.533163500
     0.466836750  0.533163750  0.506475500
     0.491021750  0.491025250  0.491025500

  ion indices of the primitive-cell ions
   primitive index   ion index
                 1           1
                 2           2
                 3           3
                 4           4

----------------------------------------------------------------------------------------



 KPOINTS: auto                                    

Automatic generation of k-mesh.
 Grid dimensions read from file:
 generate k-points for:    1    1    1

 Generating k-lattice:

  Cartesian coordinates                     Fractional coordinates (reciprocal lattice)
     0.050000000  0.000000000  0.000000000     1.000000000  0.000000000  0.000000000
     0.000000000  0.050000000  0.000000000     0.000000000  1.000000000  0.000000000
     0.000000000  0.000000000  0.050000000     0.000000000  0.000000000  1.000000000

  Length of vectors
     0.050000000  0.050000000  0.050000000

  Shift w.r.t. Gamma in fractional coordinates (k-lattice)
     0.000000000  0.000000000  0.000000000

 
 Subroutine IBZKPT returns following result:
 ===========================================
 
 Found      1 irreducible k-points:
 
 Following reciprocal coordinates:
            Coordinates               Weight
  0.000000  0.000000  0.000000      1.000000
 
 Following cartesian coordinates:
            Coordinates               Weight
  0.000000  0.000000  0.000000      1.000000
 


--------------------------------------------------------------------------------------------------------




 Dimension of arrays:
   k-points           NKPTS =      1   k-points in BZ     NKDIM =      1   number of bands    NBANDS=      8
   number of dos      NEDOS =    301   number of ions     NIONS =      4
   non local maximal  LDIM  =      4   non local SUM 2l+1 LMDIM =      8
   total plane-waves  NPLWV = ******
   max r-space proj   IRMAX =      1   max aug-charges    IRDMAX=   8421
   dimension x,y,z NGX =   210 NGY =  210 NGZ =  210
   dimension x,y,z NGXF=   420 NGYF=  420 NGZF=  420
   support grid    NGXF=   420 NGYF=  420 NGZF=  420
   ions per type =               3   1
   NGX,Y,Z   is equivalent  to a cutoff of  17.46, 17.46, 17.46 a.u.
   NGXF,Y,Z  is equivalent  to a cutoff of  34.91, 34.91, 34.91 a.u.

 SYSTEM =  unknown system                          
 POSCAR =   H  N                                   

 Startparameter for this run:
   NWRITE =      2    write-flag & timer
   PREC   = accura    normal or accurate (medium, high low for compatibility)
   ISTART =      0    job   : 0-new  1-cont  2-samecut
   ICHARG =      2    charge: 1-file 2-atom 10-const
   ISPIN  =      1    spin polarized calculation?
   LNONCOLLINEAR =      F non collinear calculations
   LSORBIT =      F    spin-orbit coupling
   INIWAV =      1    electr: 0-lowe 1-rand  2-diag
   LASPH  =      F    aspherical Exc in radial PAW
 Electronic Relaxation 1
   ENCUT  = 1000.0 eV  73.50 Ry    8.57 a.u.  51.57 51.57 51.57*2*pi/ulx,y,z
   ENINI  = 1000.0     initial cutoff
   ENAUG  = 1000.0 eV  augmentation charge cutoff
   NELM   =     60;   NELMIN=  2; NELMDL= -5     # of ELM steps 
   EDIFF  = 0.1E-06   stopping-criterion for ELM
   LREAL  =      F    real-space projection
   NLSPLINE    = F    spline interpolate recip. space projectors
   LCOMPAT=      F    compatible to vasp.4.4
   GGA_COMPAT  = T    GGA compatible to vasp.4.4-vasp.4.6
   LMAXPAW     = -100 max onsite density
   LMAXMIX     =    2 max onsite mixed and CHGCAR
   VOSKOWN=      0    Vosko Wilk Nusair interpolation
   ROPT   =    0.00000   0.00000
 Ionic relaxation
   EDIFFG = 0.1E-05   stopping-criterion for IOM
   NSW    =      0    number of steps for IOM
   NBLOCK =      1;   KBLOCK =      1    inner block; outer block 
   IBRION =     -1    ionic relax: 0-MD 1-quasi-New 2-CG
   NFREE  =      0    steps in history (QN), initial steepest desc. (CG)
   ISIF   =      0    stress and relaxation
   IWAVPR =     10    prediction:  0-non 1-charg 2-wave 3-comb
   ISYM   =      2    0-nonsym 1-usesym 2-fastsym
   LCORR  =      T    Harris-Foulkes like correction to forces

   POTIM  = 0.5000    time-step for ionic-motion
   TEIN   =    0.0    initial temperature
   TEBEG  =    0.0;   TEEND  =   0.0 temperature during run
   SMASS  =  -3.00    Nose mass-parameter (am)
   estimated Nose-frequenzy (Omega)   =  0.10E-29 period in steps = 0.13E+47 mass=  -0.914E-26a.u.
   SCALEE = 1.0000    scale energy and forces
   NPACO  =    256;   APACO  = 10.0  distance and # of slots for P.C.
   PSTRESS=    0.0 pullay stress

  Mass of Ions in am
   POMASS =   1.00 14.00
  Ionic Valenz
   ZVAL   =   1.00  5.00
  Atomic Wigner-Seitz radii
   RWIGS  =  -1.00 -1.00
  virtual crystal weights 
   VCA    =   1.00  1.00
   NELECT =       8.0000    total number of electrons
   NUPDOWN=      -1.0000    fix difference up-down

 DOS related values:
   EMIN   =  10.00;   EMAX   =-10.00  energy-range for DOS
   EFERMI =   0.00;   METHOD = LEGACY      
   ISMEAR =     0;   SIGMA  =   0.01  broadening in eV -4-tet -1-fermi 0-gaus

 Electronic relaxation 2 (details)
   IALGO  =     58    algorithm
   LDIAG  =      T    sub-space diagonalisation (order eigenvalues)
   LSUBROT=      F    optimize rotation matrix (better conditioning)
   TURBO    =      0    0=normal 1=particle mesh
   IRESTART =      0    0=no restart 2=restart with 2 vectors
   NREBOOT  =      0    no. of reboots
   NMIN     =      0    reboot dimension
   EREF     =   0.00    reference energy to select bands
   IMIX   =      4    mixing-type and parameters
     AMIX     =   0.40;   BMIX     =  1.00
     AMIX_MAG =   1.60;   BMIX_MAG =  1.00
     AMIN     =   0.10
     WC   =   100.;   INIMIX=   1;  MIXPRE=   1;  MAXMIX= -45

 Intra band minimization:
   WEIMIN = 0.0000     energy-eigenvalue tresh-hold
   EBREAK =  0.31E-08  absolut break condition
   DEPER  =   0.30     relativ break condition  

   TIME   =   0.40     timestep for ELM

  volume/ion in A,a.u.               =    2000.00     13496.67
  Fermi-wavevector in a.u.,A,eV,Ry     =   0.163710  0.309367  0.364649  0.026801
  Thomas-Fermi vector in A             =   0.862763

 Write flags
   LWAVE        =      F    write WAVECAR
   LDOWNSAMPLE  =      F    k-point downsampling of WAVECAR
   LCHARG       =      F    write CHGCAR
   LVTOT        =      F    write LOCPOT, total local potential
   LVHAR        =      F    write LOCPOT, Hartree potential only
   LELF         =      F    write electronic localiz. function (ELF)
   LORBIT       =      0    0 simple, 1 ext, 2 COOP (PROOUT), +10 PAW based schemes


 Dipole corrections
   LMONO  =      F    monopole corrections only (constant potential shift)
   LDIPOL =      F    correct potential (dipole corrections)
   IDIPOL =      0    1-x, 2-y, 3-z, 4-all directions 
   EPSILON=  1.0000000 bulk dielectric constant

 Exchange correlation treatment:
   GGA     =    --    GGA type
   LEXCH   =     8    internal setting for exchange type
   LIBXC   =     F    Libxc                    
   VOSKOWN =     0    Vosko Wilk Nusair interpolation
   LHFCALC =     F    Hartree Fock is set to
   LHFONE  =     F    Hartree Fock one center treatment
   AEXX    =    0.0000 exact exchange contribution

 Linear response parameters
   LEPSILON=     F    determine dielectric tensor
   LRPA    =     F    only Hartree local field effects (RPA)
   LNABLA  =     F    use nabla operator in PAW spheres
   LVEL    =     F    velocity operator in full k-point grid
   CSHIFT  =0.1000    complex shift for real part using Kramers Kronig
   OMEGAMAX=  -1.0    maximum frequency
   DEG_THRESHOLD= 0.2000000E-02 threshold for treating states as degnerate
   RTIME   =   -0.100 relaxation time in fs
  (WPLASMAI=    0.000 imaginary part of plasma frequency in eV, 0.658/RTIME)
   DFIELD  = 0.0000000 0.0000000 0.0000000 field for delta impulse in time

  Optional k-point grid parameters
   LKPOINTS_OPT  =     F    use optional k-point grid
   KPOINTS_OPT_MODE=     1    mode for optional k-point grid

 Orbital magnetization related:
   ORBITALMAG=     F  switch on orbital magnetization
   LCHIMAG   =     F  perturbation theory with respect to B field
   DQ        =  0.001000  dq finite difference perturbation B field
   LLRAUG    =     F  two centre corrections for induced B field
   LBONE     =     F  B-component reconstruction in AE one-centre
   LVGVCALC  =     T  calculate vGv susceptibility
   LVGVAPPL  =     F  apply vGv susceptibility instead of pGv for G=0

 Random number generation:
   RANDOM_GENERATOR = DEFAULT
   PCG_SEED         = not used


--------------------------------------------------------------------------------------------------------


 Static calculation
 charge density and potential will be updated during run
 non-spin polarized calculation
 Conjugate gradient for all bands (Freysoldt, et al. PRB 79, 241103 (2009))
 preconditioned conjugated gradient                                        
 perform sub-space diagonalisation
    before iterative eigenvector-optimisation
 modified Broyden-mixing scheme, WC =      100.0
 initial mixing is a Kerker type mixing with AMIX =  0.4000 and BMIX =      1.0000
 Hartree-type preconditioning will be used
 using additional bands            4
 reciprocal scheme for non local part
 use partial core corrections
 no Harris-corrections to forces 
 use gradient corrections 
 use of overlap-Matrix (Vanderbilt PP)
 Gauss-broadening in eV      SIGMA  =   0.01


--------------------------------------------------------------------------------------------------------


  energy-cutoff  :     1000.00
  volume of cell :     8000.00
      direct lattice vectors                 reciprocal lattice vectors
    20.000000000  0.000000000  0.000000000     0.050000000  0.000000000  0.000000000
     0.000000000 20.000000000  0.000000000     0.000000000  0.050000000  0.000000000
     0.000000000  0.000000000 20.000000000     0.000000000  0.000000000  0.050000000

  length of vectors
    20.000000000 20.000000000 20.000000000     0.050000000  0.050000000  0.050000000



 k-points in units of 2pi/SCALE and weight: auto                                    
   0.00000000  0.00000000  0.00000000       1.000

 k-points in reciprocal lattice and weights: auto                                    
   0.00000000  0.00000000  0.00000000       1.000

 position of ions in fractional coordinates (direct lattice) 
   0.53316325  0.50647475  0.46683650
   0.50647575  0.46683625  0.53316350
   0.46683675  0.53316375  0.50647550
   0.49102175  0.49102525  0.49102550

 position of ions in cartesian coordinates  (Angst):
  10.66326500 10.12949500  9.33673000
  10.12951500  9.33672500 10.66327000
   9.33673500 10.66327500 10.12951000
   9.82043500  9.82050500  9.82051000



--------------------------------------------------------------------------------------------------------


 use parallel FFT for orbitals z direction half grid
 k-point   1 :   0.0000 0.0000 0.0000  plane waves:  287166

 maximum and minimum number of plane-waves per node :      8979     8970

 maximum number of plane-waves:    287166
 maximum index in each direction: 
   IXMAX=   51   IYMAX=   51   IZMAX=   51
   IXMIN=  -51   IYMIN=  -51   IZMIN=    0


 parallel 3D FFT for wavefunctions:
    minimum data exchange during FFTs selected (reduces bandwidth)
 parallel 3D FFT for charge:
    minimum data exchange during FFTs selected (reduces bandwidth)


 total amount of memory used by VASP MPI-rank0   113744. kBytes
=======================================================================

   base      :      30000. kBytes
   nonl-proj :       1724. kBytes
   fftplans  :      29139. kBytes
   grid      :      52019. kBytes
   one-center:          1. kBytes
   wavefun   :        861. kBytes

     INWAV:  cpu time      0.0001: real time      0.0002
 Broyden mixing: mesh for mixing (old mesh)
   NGX =103   NGY =103   NGZ =103
  (NGX  =420   NGY  =420   NGZ  =420)
  gives a total of ****** points

 initial charge density was supplied:
 charge density of overlapping atoms calculated
 number of electron       8.0000000 magnetization 
 keeping initial charge density in first step


--------------------------------------------------------------------------------------------------------


 Maximum index for augmentation-charges            0 (set IRDMAX)


--------------------------------------------------------------------------------------------------------


 First call to EWALD:  gamma=   0.089
 Maximum number of real-space cells 3x 3x 3
 Maximum number of reciprocal cells 3x 3x 3

    FEWALD:  cpu time      0.0029: real time      0.0029


--------------------------------------- Ionic step        1  -------------------------------------------




--------------------------------------- Iteration      1(   1)  ---------------------------------------


    POTLOK:  cpu time      0.9623: real time      0.9628
    SETDIJ:  cpu time      0.0060: real time      0.0064
    TRIAL :  cpu time      0.2974: real time      0.2982
    CORREC:  cpu time      0.0010: real time      0.0010
    --------------------------------------------
      LOOP:  cpu time      1.2785: real time      1.2806

 eigenvalue-minimisations  :    24
 total energy-change (2. order) : 0.7247081E+02  (-0.1500054E+03)
 number of electron       8.0000000 magnetization 
 augmentation part        8.0000000 magnetization 

 Free energy of the ion-electron system (eV)
  ---------------------------------------------------
  alpha Z        PSCENC =         0.02212312
  Ewald energy   TEWEN  =       172.96321032
  -Hartree energ DENC   =      -381.98205141
  -exchange      EXHF   =         0.00000000
  -V(xc)+E(xc)   XCENC  =        23.44309787
  PAW double counting   =       209.80573583     -208.49471497
  entropy T*S    EENTRO =        -0.00000000
  eigenvalues    EBANDS =       -45.29037334
  atomic energy  EATOM  =       302.00378002
  ---------------------------------------------------
  free energy    TOTEN  =        72.47080745 eV

  energy without entropy =       72.47080745  energy(sigma->0) =       72.47080745


--------------------------------------------------------------------------------------------------------




--------------------------------------- Iteration      1(   2)  ---------------------------------------


    TRIAL :  cpu time      0.3469: real time      0.3469
    CORREC:  cpu time      0.0001: real time      0.0001
    --------------------------------------------
      LOOP:  cpu time      0.3614: real time      0.3751

 eigenvalue-minimisations  :    32
 total energy-change (2. order) :-0.4064916E+02  (-0.4064916E+02)
 number of electron       8.0000000 magnetization 
 augmentation part        8.0000000 magnetization 

 Free energy of the ion-electron system (eV)
  ---------------------------------------------------
  alpha Z        PSCENC =         0.02212312
  Ewald energy   TEWEN  =       172.96321032
  -Hartree energ DENC   =      -381.98205141
  -exchange      EXHF   =         0.00000000
  -V(xc)+E(xc)   XCENC  =        23.44309787
  PAW double counting   =       209.80573583     -208.49471497
  entropy T*S    EENTRO =        -0.00000000
  eigenvalues    EBANDS =       -85.93953023
  atomic energy  EATOM  =       302.00378002
  ---------------------------------------------------
  free energy    TOTEN  =        31.82165056 eV

  energy without entropy =       31.82165056  energy(sigma->0) =       31.82165056


--------------------------------------------------------------------------------------------------------




--------------------------------------- Iteration      1(   3)  ---------------------------------------


    TRIAL :  cpu time      0.2751: real time      0.2756
    CORREC:  cpu time      0.0001: real time      0.0001
    --------------------------------------------
      LOOP:  cpu time      0.2958: real time      0.3043

 eigenvalue-minimisations  :    24
 total energy-change (2. order) :-0.4907871E+02  (-0.4907871E+02)
 number of electron       8.0000000 magnetization 
 augmentation part        8.0000000 magnetization 

 Free energy of the ion-electron system (eV)
  ---------------------------------------------------
  alpha Z        PSCENC =         0.02212312
  Ewald energy   TEWEN  =       172.96321032
  -Hartree energ DENC   =      -381.98205141
  -exchange      EXHF   =         0.00000000
  -V(xc)+E(xc)   XCENC  =        23.44309787
  PAW double counting   =       209.80573583     -208.49471497
  entropy T*S    EENTRO =        -0.00000000
  eigenvalues    EBANDS =      -135.01823832
  atomic energy  EATOM  =       302.00378002
  ---------------------------------------------------
  free energy    TOTEN  =       -17.25705754 eV

  energy without entropy =      -17.25705754  energy(sigma->0) =      -17.25705754


--------------------------------------------------------------------------------------------------------




--------------------------------------- Iteration      1(   4)  ---------------------------------------


    TRIAL :  cpu time      0.2066: real time      0.2066
    CORREC:  cpu time      0.0001: real time      0.0001
    --------------------------------------------
      LOOP:  cpu time      0.2359: real time      0.2361

 eigenvalue-minimisations  :    16
 total energy-change (2. order) :-0.5182847E+01  (-0.5182847E+01)
 number of electron       8.0000000 magnetization 
 augmentation part        8.0000000 magnetization 

 Free energy of the ion-electron system (eV)
  ---------------------------------------------------
  alpha Z        PSCENC =         0.02212312
  Ewald energy   TEWEN  =       172.96321032
  -Hartree energ DENC   =      -381.98205141
  -exchange      EXHF   =         0.00000000
  -V(xc)+E(xc)   XCENC  =        23.44309787
  PAW double counting   =       209.80573583     -208.49471497
  entropy T*S    EENTRO =        -0.00000000
  eigenvalues    EBANDS =      -140.20108549
  atomic energy  EATOM  =       302.00378002
  ---------------------------------------------------
  free energy    TOTEN  =       -22.43990471 eV

  energy without entropy =      -22.43990471  energy(sigma->0) =      -22.43990471


--------------------------------------------------------------------------------------------------------




--------------------------------------- Iteration      1(   5)  ---------------------------------------


    TRIAL :  cpu time      0.3436: real time      0.3436
    CORREC:  cpu time      0.0001: real time      0.0001
    CHARGE:  cpu time      0.1471: real time      0.1477
    --------------------------------------------
      LOOP:  cpu time      0.5039: real time      0.5210

 eigenvalue-minimisations  :    32
 total energy-change (2. order) :-0.2093140E+00  (-0.2093140E+00)
 number of electron       8.0000000 magnetization 
 augmentation part        0.0157361 magnetization 

 Free energy of the ion-electron system (eV)
  ---------------------------------------------------
  alpha Z        PSCENC =         0.02212312
  Ewald energy   TEWEN  =       172.96321032
  -Hartree energ DENC   =      -381.98205141
  -exchange      EXHF   =         0.00000000
  -V(xc)+E(xc)   XCENC  =        23.44309787
  PAW double counting   =       209.80573583     -208.49471497
  entropy T*S    EENTRO =        -0.00000000
  eigenvalues    EBANDS =      -140.41039949
  atomic energy  EATOM  =       302.00378002
  ---------------------------------------------------
  free energy    TOTEN  =       -22.64921871 eV

  energy without entropy =      -22.64921871  energy(sigma->0) =      -22.64921871


--------------------------------------------------------------------------------------------------------




--------------------------------------- Iteration      1(   6)  ---------------------------------------


    POTLOK:  cpu time      0.9633: real time      0.9637
    SETDIJ:  cpu time      0.0094: real time      0.0094
    TRIAL :  cpu time      0.1688: real time      0.1702
    CORREC:  cpu time      1.1542: real time      1.1546
    CHARGE:  cpu time      0.1171: real time      0.1172
    --------------------------------------------
      LOOP:  cpu time      2.4311: real time      2.4452

 eigenvalue-minimisations  :     0
 total energy-change (2. order) : 0.7385189E+01  (-0.3740742E+01)
 number of electron       8.0000000 magnetization 
 augmentation part        0.0015243 magnetization 

 Free energy of the ion-electron system (eV)
  ---------------------------------------------------
  alpha Z        PSCENC =         0.02212312
  Ewald energy   TEWEN  =       172.96321032
  -Hartree energ DENC   =      -471.02602684
  -exchange      EXHF   =         0.00000000
  -V(xc)+E(xc)   XCENC  =        28.30072216
  PAW double counting   =      1416.03147533    -1415.22812013
  entropy T*S    EENTRO =        -0.00000000
  eigenvalues    EBANDS =       -48.33119416
  atomic energy  EATOM  =       302.00378002
  ---------------------------------------------------
  free energy    TOTEN  =       -15.26403017 eV

  energy without entropy =      -15.26403017  energy(sigma->0) =      -15.26403017


--------------------------------------------------------------------------------------------------------




--------------------------------------- Iteration      1(   7)  ---------------------------------------


    POTLOK:  cpu time      0.9880: real time      0.9884
    SETDIJ:  cpu time      0.0016: real time      0.0016
    TRIAL :  cpu time      0.1476: real time      0.1476
    CORREC:  cpu time      1.1499: real time      1.1504
    CHARGE:  cpu time      0.1178: real time      0.1178
    --------------------------------------------
      LOOP:  cpu time      2.4366: real time      2.4378

 eigenvalue-minimisations  :     0
 total energy-change (2. order) :-0.3820961E+01  (-0.2898649E+00)
 number of electron       8.0000000 magnetization 
 augmentation part       -0.0073130 magnetization 

 Free energy of the ion-electron system (eV)
  ---------------------------------------------------
  alpha Z        PSCENC =         0.02212312
  Ewald energy   TEWEN  =       172.96321032
  -Hartree energ DENC   =      -424.93089589
  -exchange      EXHF   =         0.00000000
  -V(xc)+E(xc)   XCENC  =        25.85215533
  PAW double counting   =      2415.63420815    -2414.52373240
  entropy T*S    EENTRO =        -0.00000000
  eigenvalues    EBANDS =       -96.10584026
  atomic energy  EATOM  =       302.00378002
  ---------------------------------------------------
  free energy    TOTEN  =       -19.08499161 eV

  energy without entropy =      -19.08499161  energy(sigma->0) =      -19.08499161


--------------------------------------------------------------------------------------------------------




--------------------------------------- Iteration      1(   8)  ---------------------------------------


    POTLOK:  cpu time      0.9894: real time      0.9900
    SETDIJ:  cpu time      0.0005: real time      0.0005
    TRIAL :  cpu time      0.1473: real time      0.1473
    CORREC:  cpu time      1.1472: real time      1.1482
    CHARGE:  cpu time      0.1173: real time      0.1173
    --------------------------------------------
      LOOP:  cpu time      2.4169: real time      2.4321

 eigenvalue-minimisations  :     0
 total energy-change (2. order) :-0.2901517E+00  (-0.1205002E+00)
 number of electron       8.0000000 magnetization 
 augmentation part       -0.0079865 magnetization 

 Free energy of the ion-electron system (eV)
  ---------------------------------------------------
  alpha Z        PSCENC =         0.02212312
  Ewald energy   TEWEN  =       172.96321032
  -Hartree energ DENC   =      -423.47425062
  -exchange      EXHF   =         0.00000000
  -V(xc)+E(xc)   XCENC  =        25.82653830
  PAW double counting   =      2521.46439868    -2520.31785908
  entropy T*S    EENTRO =        -0.00000000
  eigenvalues    EBANDS =       -97.86308408
  atomic energy  EATOM  =       302.00378002
  ---------------------------------------------------
  free energy    TOTEN  =       -19.37514334 eV

  energy without entropy =      -19.37514334  energy(sigma->0) =      -19.37514334


--------------------------------------------------------------------------------------------------------




--------------------------------------- Iteration      1(   9)  ---------------------------------------


    POTLOK:  cpu time      0.9892: real time      0.9896
    SETDIJ:  cpu time      0.0005: real time      0.0005
    TRIAL :  cpu time      0.1478: real time      0.1479
    CORREC:  cpu time      1.1470: real time      1.1473
    CHARGE:  cpu time      0.1184: real time      0.1184
    --------------------------------------------
      LOOP:  cpu time      2.4189: real time      2.4337

 eigenvalue-minimisations  :     0
 total energy-change (2. order) :-0.1180577E+00  (-0.5382642E-01)
 number of electron       8.0000000 magnetization 
 augmentation part       -0.0075749 magnetization 

 Free energy of the ion-electron system (eV)
  ---------------------------------------------------
  alpha Z        PSCENC =         0.02212312
  Ewald energy   TEWEN  =       172.96321032
  -Hartree energ DENC   =      -422.21986683
  -exchange      EXHF   =         0.00000000
  -V(xc)+E(xc)   XCENC  =        25.80152211
  PAW double counting   =      2480.61625071    -2479.45445553
  entropy T*S    EENTRO =        -0.00000000
  eigenvalues    EBANDS =       -99.22576499
  atomic energy  EATOM  =       302.00378002
  ---------------------------------------------------
  free energy    TOTEN  =       -19.49320106 eV

  energy without entropy =      -19.49320106  energy(sigma->0) =      -19.49320106


--------------------------------------------------------------------------------------------------------




--------------------------------------- Iteration      1(  10)  ---------------------------------------


    POTLOK:  cpu time      0.9875: real time      0.9879
    SETDIJ:  cpu time      0.0020: real time      0.0020
    TRIAL :  cpu time      0.1484: real time      0.1484
    CORREC:  cpu time      1.1455: real time      1.1464
    CHARGE:  cpu time      0.1177: real time      0.1177
    --------------------------------------------
      LOOP:  cpu time      2.4311: real time      2.4330

 eigenvalue-minimisations  :     0
 total energy-change (2. order) :-0.5249628E-01  (-0.1489873E-01)
 number of electron       8.0000000 magnetization 
 augmentation part       -0.0075791 magnetization 

 Free energy of the ion-electron system (eV)
  ---------------------------------------------------
  alpha Z        PSCENC =         0.02212312
  Ewald energy   TEWEN  =       172.96321032
  -Hartree energ DENC   =      -422.22928096
  -exchange      EXHF   =         0.00000000
  -V(xc)+E(xc)   XCENC  =        25.81182012
  PAW double counting   =      2367.35173771    -2366.19193574
  entropy T*S    EENTRO =        -0.00000000
  eigenvalues    EBANDS =       -99.27715193
  atomic energy  EATOM  =       302.00378002
  ---------------------------------------------------
  free energy    TOTEN  =       -19.54569734 eV

  energy without entropy =      -19.54569734  energy(sigma->0) =      -19.54569734


--------------------------------------------------------------------------------------------------------




--------------------------------------- Iteration      1(  11)  ---------------------------------------


    POTLOK:  cpu time      0.9810: real time      0.9815
    SETDIJ:  cpu time      0.0006: real time      0.0006
    TRIAL :  cpu time      0.1476: real time      0.1476
    CORREC:  cpu time      1.1388: real time      1.1392
    CHARGE:  cpu time      0.1181: real time      0.1181
    --------------------------------------------
      LOOP:  cpu time      2.3997: real time      2.4170

 eigenvalue-minimisations  :     0
 total energy-change (2. order) :-0.1481450E-01  (-0.3703504E-02)
 number of electron       8.0000000 magnetization 
 augmentation part       -0.0074220 magnetization 

 Free energy of the ion-electron system (eV)
  ---------------------------------------------------
  alpha Z        PSCENC =         0.02212312
  Ewald energy   TEWEN  =       172.96321032
  -Hartree energ DENC   =      -421.81665661
  -exchange      EXHF   =         0.00000000
  -V(xc)+E(xc)   XCENC  =        25.78182134
  PAW double counting   =      2312.84651543    -2311.68851881
  entropy T*S    EENTRO =        -0.00000000
  eigenvalues    EBANDS =       -99.67278666
  atomic energy  EATOM  =       302.00378002
  ---------------------------------------------------
  free energy    TOTEN  =       -19.56051185 eV

  energy without entropy =      -19.56051185  energy(sigma->0) =      -19.56051185


--------------------------------------------------------------------------------------------------------




--------------------------------------- Iteration      1(  12)  ---------------------------------------


    POTLOK:  cpu time      0.9714: real time      0.9718
    SETDIJ:  cpu time      0.0019: real time      0.0019
    TRIAL :  cpu time      0.1477: real time      0.1477
    CORREC:  cpu time      1.1247: real time      1.1251
    CHARGE:  cpu time      0.1185: real time      0.1185
    --------------------------------------------
      LOOP:  cpu time      2.3784: real time      2.3951

 eigenvalue-minimisations  :     0
 total energy-change (2. order) :-0.3703284E-02  (-0.1138884E-02)
 number of electron       8.0000000 magnetization 
 augmentation part       -0.0072565 magnetization 

 Free energy of the ion-electron system (eV)
  ---------------------------------------------------
  alpha Z        PSCENC =         0.02212312
  Ewald energy   TEWEN  =       172.96321032
  -Hartree energ DENC   =      -421.82541283
  -exchange      EXHF   =         0.00000000
  -V(xc)+E(xc)   XCENC  =        25.77573690
  PAW double counting   =      2301.54363174    -2300.38797251
  entropy T*S    EENTRO =        -0.00000000
  eigenvalues    EBANDS =       -99.65931189
  atomic energy  EATOM  =       302.00378002
  ---------------------------------------------------
  free energy    TOTEN  =       -19.56421513 eV

  energy without entropy =      -19.56421513  energy(sigma->0) =      -19.56421513


--------------------------------------------------------------------------------------------------------




--------------------------------------- Iteration      1(  13)  ---------------------------------------


    POTLOK:  cpu time      0.9697: real time      0.9703
    SETDIJ:  cpu time      0.0008: real time      0.0008
    TRIAL :  cpu time      0.1468: real time      0.1473
    CORREC:  cpu time      1.1243: real time      1.1246
    CHARGE:  cpu time      0.1176: real time      0.1176
    --------------------------------------------
      LOOP:  cpu time      2.3732: real time      2.3901

 eigenvalue-minimisations  :     0
 total energy-change (2. order) :-0.1139235E-02  (-0.3319756E-03)
 number of electron       8.0000000 magnetization 
 augmentation part       -0.0071769 magnetization 

 Free energy of the ion-electron system (eV)
  ---------------------------------------------------
  alpha Z        PSCENC =         0.02212312
  Ewald energy   TEWEN  =       172.96321032
  -Hartree energ DENC   =      -421.90480971
  -exchange      EXHF   =         0.00000000
  -V(xc)+E(xc)   XCENC  =        25.77582110
  PAW double counting   =      2307.95710200    -2306.80289146
  entropy T*S    EENTRO =        -0.00000000
  eigenvalues    EBANDS =       -99.57968976
  atomic energy  EATOM  =       302.00378002
  ---------------------------------------------------
  free energy    TOTEN  =       -19.56535436 eV

  energy without entropy =      -19.56535436  energy(sigma->0) =      -19.56535436


--------------------------------------------------------------------------------------------------------




--------------------------------------- Iteration      1(  14)  ---------------------------------------


    POTLOK:  cpu time      0.9662: real time      0.9666
    SETDIJ:  cpu time      0.0007: real time      0.0007
    TRIAL :  cpu time      0.1471: real time      0.1471
    CORREC:  cpu time      1.1202: real time      1.1206
    CHARGE:  cpu time      0.1176: real time      0.1177
    --------------------------------------------
      LOOP:  cpu time      2.3691: real time      2.3822

 eigenvalue-minimisations  :     0
 total energy-change (2. order) :-0.3326684E-03  (-0.9643706E-04)
 number of electron       8.0000000 magnetization 
 augmentation part       -0.0071225 magnetization 

 Free energy of the ion-electron system (eV)
  ---------------------------------------------------
  alpha Z        PSCENC =         0.02212312
  Ewald energy   TEWEN  =       172.96321032
  -Hartree energ DENC   =      -421.85819586
  -exchange      EXHF   =         0.00000000
  -V(xc)+E(xc)   XCENC  =        25.77133245
  PAW double counting   =      2314.00944955    -2312.85536365
  entropy T*S    EENTRO =        -0.00000000
  eigenvalues    EBANDS =       -99.62202299
  atomic energy  EATOM  =       302.00378002
  ---------------------------------------------------
  free energy    TOTEN  =       -19.56568703 eV

  energy without entropy =      -19.56568703  energy(sigma->0) =      -19.56568703


--------------------------------------------------------------------------------------------------------




--------------------------------------- Iteration      1(  15)  ---------------------------------------


    POTLOK:  cpu time      0.9594: real time      0.9599
    SETDIJ:  cpu time      0.0006: real time      0.0006
    TRIAL :  cpu time      0.1476: real time      0.1476
    CORREC:  cpu time      1.1080: real time      1.1087
    CHARGE:  cpu time      0.1174: real time      0.1177
    --------------------------------------------
      LOOP:  cpu time      2.3618: real time      2.3636

 eigenvalue-minimisations  :     0
 total energy-change (2. order) :-0.9682723E-04  (-0.3023418E-04)
 number of electron       8.0000000 magnetization 
 augmentation part       -0.0070856 magnetization 

 Free energy of the ion-electron system (eV)
  ---------------------------------------------------
  alpha Z        PSCENC =         0.02212312
  Ewald energy   TEWEN  =       172.96321032
  -Hartree energ DENC   =      -421.90770627
  -exchange      EXHF   =         0.00000000
  -V(xc)+E(xc)   XCENC  =        25.77357025
  PAW double counting   =      2314.22203573    -2313.06827075
  entropy T*S    EENTRO =        -0.00000000
  eigenvalues    EBANDS =       -99.57452630
  atomic energy  EATOM  =       302.00378002
  ---------------------------------------------------
  free energy    TOTEN  =       -19.56578386 eV

  energy without entropy =      -19.56578386  energy(sigma->0) =      -19.56578386


--------------------------------------------------------------------------------------------------------




--------------------------------------- Iteration      1(  16)  ---------------------------------------


    POTLOK:  cpu time      0.9492: real time      0.9497
    SETDIJ:  cpu time      0.0009: real time      0.0009
    TRIAL :  cpu time      0.1479: real time      0.1479
    CORREC:  cpu time      1.1085: real time      1.1089
    CHARGE:  cpu time      0.1180: real time      0.1180
    --------------------------------------------
      LOOP:  cpu time      2.3388: real time      2.3549

 eigenvalue-minimisations  :     0
 total energy-change (2. order) :-0.3043485E-04  (-0.9220018E-05)
 number of electron       8.0000000 magnetization 
 augmentation part       -0.0070584 magnetization 

 Free energy of the ion-electron system (eV)
  ---------------------------------------------------
  alpha Z        PSCENC =         0.02212312
  Ewald energy   TEWEN  =       172.96321032
  -Hartree energ DENC   =      -421.90319613
  -exchange      EXHF   =         0.00000000
  -V(xc)+E(xc)   XCENC  =        25.77329799
  PAW double counting   =      2313.38247718    -2312.22870221
  entropy T*S    EENTRO =        -0.00000000
  eigenvalues    EBANDS =       -99.57880459
  atomic energy  EATOM  =       302.00378002
  ---------------------------------------------------
  free energy    TOTEN  =       -19.56581430 eV

  energy without entropy =      -19.56581430  energy(sigma->0) =      -19.56581430


--------------------------------------------------------------------------------------------------------




--------------------------------------- Iteration      1(  17)  ---------------------------------------


    POTLOK:  cpu time      0.9460: real time      0.9466
    SETDIJ:  cpu time      0.0018: real time      0.0019
    TRIAL :  cpu time      0.1478: real time      0.1478
    CORREC:  cpu time      1.1056: real time      1.1061
    CHARGE:  cpu time      0.1180: real time      0.1180
    --------------------------------------------
      LOOP:  cpu time      2.3320: real time      2.3500

 eigenvalue-minimisations  :     0
 total energy-change (2. order) :-0.9295559E-05  (-0.2679501E-05)
 number of electron       8.0000000 magnetization 
 augmentation part       -0.0070485 magnetization 

 Free energy of the ion-electron system (eV)
  ---------------------------------------------------
  alpha Z        PSCENC =         0.02212312
  Ewald energy   TEWEN  =       172.96321032
  -Hartree energ DENC   =      -421.91253463
  -exchange      EXHF   =         0.00000000
  -V(xc)+E(xc)   XCENC  =        25.77393079
  PAW double counting   =      2313.04713222    -2311.89340126
  entropy T*S    EENTRO =        -0.00000000
  eigenvalues    EBANDS =       -99.57006418
  atomic energy  EATOM  =       302.00378002
  ---------------------------------------------------
  free energy    TOTEN  =       -19.56582359 eV

  energy without entropy =      -19.56582359  energy(sigma->0) =      -19.56582359


--------------------------------------------------------------------------------------------------------




--------------------------------------- Iteration      1(  18)  ---------------------------------------


    POTLOK:  cpu time      0.9448: real time      0.9453
    SETDIJ:  cpu time      0.0020: real time      0.0020
    TRIAL :  cpu time      0.1479: real time      0.1479
    CORREC:  cpu time      1.1041: real time      1.1050
    CHARGE:  cpu time      0.1175: real time      0.1175
    --------------------------------------------
      LOOP:  cpu time      2.3462: real time      2.3481

 eigenvalue-minimisations  :     0
 total energy-change (2. order) :-0.2692781E-05  (-0.8325407E-06)
 number of electron       8.0000000 magnetization 
 augmentation part       -0.0070489 magnetization 

 Free energy of the ion-electron system (eV)
  ---------------------------------------------------
  alpha Z        PSCENC =         0.02212312
  Ewald energy   TEWEN  =       172.96321032
  -Hartree energ DENC   =      -421.91687862
  -exchange      EXHF   =         0.00000000
  -V(xc)+E(xc)   XCENC  =        25.77429430
  PAW double counting   =      2313.60762916    -2312.45391161
  entropy T*S    EENTRO =        -0.00000000
  eigenvalues    EBANDS =       -99.56607297
  atomic energy  EATOM  =       302.00378002
  ---------------------------------------------------
  free energy    TOTEN  =       -19.56582628 eV

  energy without entropy =      -19.56582628  energy(sigma->0) =      -19.56582628


--------------------------------------------------------------------------------------------------------




--------------------------------------- Iteration      1(  19)  ---------------------------------------


    POTLOK:  cpu time      0.9438: real time      0.9444
    SETDIJ:  cpu time      0.0023: real time      0.0023
    TRIAL :  cpu time      0.1476: real time      0.1477
    CORREC:  cpu time      1.1034: real time      1.1039
    CHARGE:  cpu time      0.1172: real time      0.1172
    --------------------------------------------
      LOOP:  cpu time      2.3288: real time      2.3444

 eigenvalue-minimisations  :     0
 total energy-change (2. order) :-0.8305617E-06  (-0.2451177E-06)
 number of electron       8.0000000 magnetization 
 augmentation part       -0.0070504 magnetization 

 Free energy of the ion-electron system (eV)
  ---------------------------------------------------
  alpha Z        PSCENC =         0.02212312
  Ewald energy   TEWEN  =       172.96321032
  -Hartree energ DENC   =      -421.91283422
  -exchange      EXHF   =         0.00000000
  -V(xc)+E(xc)   XCENC  =        25.77415541
  PAW double counting   =      2314.48751153    -2313.33376083
  entropy T*S    EENTRO =        -0.00000000
  eigenvalues    EBANDS =       -99.57001247
  atomic energy  EATOM  =       302.00378002
  ---------------------------------------------------
  free energy    TOTEN  =       -19.56582711 eV

  energy without entropy =      -19.56582711  energy(sigma->0) =      -19.56582711


--------------------------------------------------------------------------------------------------------




--------------------------------------- Iteration      1(  20)  ---------------------------------------


    POTLOK:  cpu time      0.9445: real time      0.9451
    SETDIJ:  cpu time      0.0004: real time      0.0004
    TRIAL :  cpu time      0.1474: real time      0.1474
    CORREC:  cpu time      1.1026: real time      1.1031
    CHARGE:  cpu time      0.1170: real time      0.1170
    --------------------------------------------
      LOOP:  cpu time      2.3240: real time      2.3421

 eigenvalue-minimisations  :     0
 total energy-change (2. order) :-0.2286097E-06  (-0.5502546E-07)
 number of electron       8.0000000 magnetization 
 augmentation part       -0.0070527 magnetization 

 Free energy of the ion-electron system (eV)
  ---------------------------------------------------
  alpha Z        PSCENC =         0.02212312
  Ewald energy   TEWEN  =       172.96321032
  -Hartree energ DENC   =      -421.91577479
  -exchange      EXHF   =         0.00000000
  -V(xc)+E(xc)   XCENC  =        25.77436424
  PAW double counting   =      2315.07254071    -2313.91878979
  entropy T*S    EENTRO =        -0.00000000
  eigenvalues    EBANDS =       -99.56728118
  atomic energy  EATOM  =       302.00378002
  ---------------------------------------------------
  free energy    TOTEN  =       -19.56582734 eV

  energy without entropy =      -19.56582734  energy(sigma->0) =      -19.56582734


--------------------------------------------------------------------------------------------------------




--------------------------------------- Iteration      1(  21)  ---------------------------------------


    POTLOK:  cpu time      0.9448: real time      0.9453
    SETDIJ:  cpu time      0.0010: real time      0.0010
    TRIAL :  cpu time      0.1474: real time      0.1474
    CORREC:  cpu time      1.1044: real time      1.1051
    EDDIAG:  cpu time      0.0663: real time      0.0665
    CHARGE:  cpu time      0.1163: real time      0.1163
    --------------------------------------------
      LOOP:  cpu time      2.4093: real time      2.4109

 eigenvalue-minimisations  :     0
 total energy-change (2. order) :-0.5350898E-07  (-0.2669841E-07)
 number of electron       8.0000000 magnetization 
 augmentation part       -0.0070534 magnetization 

 Free energy of the ion-electron system (eV)
  ---------------------------------------------------
  alpha Z        PSCENC =         0.02212312
  Ewald energy   TEWEN  =       172.96321032
  -Hartree energ DENC   =      -421.91361752
  -exchange      EXHF   =         0.00000000
  -V(xc)+E(xc)   XCENC  =        25.77425685
  PAW double counting   =      2315.27536775    -2314.12159923
  entropy T*S    EENTRO =        -0.00000000
  eigenvalues    EBANDS =       -99.56934872
  atomic energy  EATOM  =       302.00378002
  ---------------------------------------------------
  free energy    TOTEN  =       -19.56582740 eV

  energy without entropy =      -19.56582740  energy(sigma->0) =      -19.56582740


--------------------------------------------------------------------------------------------------------


  average scaling for gradient   1.1830


 average (electrostatic) potential at core
  the test charge radii are     0.4325  0.5902
  (the norm of the test charge is              1.0000)
       1 -46.1378       2 -46.1381       3 -46.1386       4-102.9331



 E-fermi :  -6.0765     XC(G=0):  -0.0891     alpha+bet : -0.0217

 Fermi energy:        -6.0764873353

 k-point     1 :       0.0000    0.0000    0.0000
  band No.  band energies     occupation 
      1     -21.1363      2.00000
      2     -11.2441      2.00000
      3     -11.2433      2.00000
      4      -6.1607      2.00000
      5      -0.7460      0.00000
      6       0.0553      0.00000
      7       0.4060      0.00000
      8       0.4327      0.00000


--------------------------------------------------------------------------------------------------------


 soft charge-density along one line, spin component           1
         0         1         2         3         4         5         6         7         8         9
 total charge-density along one line

 pseudopotential strength for first ion, spin component:           1
 -2.530  -5.379   0.000  -0.000   0.001
 -5.379 -11.410   0.001  -0.001   0.002
  0.000   0.001  -1.396  -0.000   0.001
 -0.000  -0.001  -0.000  -1.396  -0.001
  0.001   0.002   0.001  -0.001  -1.394
 total augmentation occupancy for first ion, spin component:           1
  3.916  -0.661  -0.087   0.144  -0.243
 -0.661   0.129   0.016  -0.024   0.043
 -0.087   0.016   0.007  -0.001   0.005
  0.144  -0.024  -0.001   0.010  -0.006
 -0.243   0.043   0.005  -0.006   0.017


------------------------ aborting loop because EDIFF is reached ----------------------------------------


    FORLOC:  cpu time      0.0295: real time      0.0295
    FORNL :  cpu time      0.0091: real time      0.0091
    FORCOR:  cpu time      0.8471: real time      0.8476
    OFIELD:  cpu time      0.0057: real time      0.0057

 VOLUME and BASIS-vectors are now :
 -----------------------------------------------------------------------------
  energy-cutoff  :     1000.00
  volume of cell :     8000.00
      direct lattice vectors                 reciprocal lattice vectors
    20.000000000  0.000000000  0.000000000     0.050000000  0.000000000  0.000000000
     0.000000000 20.000000000  0.000000000     0.000000000  0.050000000  0.000000000
     0.000000000  0.000000000 20.000000000     0.000000000  0.000000000  0.050000000

  length of vectors
    20.000000000 20.000000000 20.000000000     0.050000000  0.050000000  0.050000000


 FORCES acting on ions:
    Electron-Ion                     Ewald-Force                    Non-Local-Force
 -----------------------------------------------------------------------------------------------
   -.574E+02 -.197E+02 0.362E+02   0.633E+02 0.218E+02 -.398E+02   -.585E+01 -.206E+01 0.357E+01
   -.197E+02 0.362E+02 -.574E+02   0.218E+02 -.398E+02 0.633E+02   -.206E+01 0.357E+01 -.585E+01
   0.362E+02 -.574E+02 -.197E+02   -.398E+02 0.633E+02 0.218E+02   0.357E+01 -.585E+01 -.206E+01
   0.269E+02 0.269E+02 0.269E+02   -.453E+02 -.453E+02 -.453E+02   0.186E+02 0.186E+02 0.186E+02
 -----------------------------------------------------------------------------------------------
   -.142E+02 -.142E+02 -.142E+02   0.000E+00 0.711E-14 0.000E+00   0.142E+02 0.142E+02 0.142E+02


 POSITION                                       TOTAL-FORCE (eV/Angst)
 -----------------------------------------------------------------------------------
     10.66327     10.12950      9.33673         0.046278      0.022224     -0.014114
     10.12951      9.33673     10.66327         0.022181     -0.014434      0.047614
      9.33673     10.66327     10.12951        -0.015525      0.049213      0.023340
      9.82044      9.82050      9.82051        -0.052934     -0.057003     -0.056840
 -----------------------------------------------------------------------------------
    total drift:                                0.000466      0.000458      0.000429


--------------------------------------------------------------------------------------------------------



  FREE ENERGIE OF THE ION-ELECTRON SYSTEM (eV)
  ---------------------------------------------------
  free  energy   TOTEN  =       -19.56582740 eV

  energy  without entropy=      -19.56582740  energy(sigma->0) =      -19.56582740



--------------------------------------------------------------------------------------------------------


    POTLOK:  cpu time      0.9535: real time      0.9541


--------------------------------------------------------------------------------------------------------


 stress matrix after NEB project (eV)
      0.00000      0.00000      0.00000
      0.00000      0.00000      0.00000
      0.00000      0.00000      0.00000
  FORCES: max atom, RMS     0.096344    0.067624
  FORCE total and by dimension    0.135248    0.057003
  Stress total and by dimension    0.000000    0.000000
     LOOP+:  cpu time     42.6518: real time     42.9683
    4ORBIT:  cpu time      0.0000: real time      0.0000

 total amount of memory used by VASP MPI-rank0   113744. kBytes
=======================================================================

   base      :      30000. kBytes
   nonl-proj :       1724. kBytes
   fftplans  :      29139. kBytes
   grid      :      52019. kBytes
   one-center:          1. kBytes
   wavefun   :        861. kBytes

  
  
 General timing and accounting informations for this job:
 ========================================================
  
                  Total CPU time used (sec):       55.314
                            User time (sec):       52.969
                          System time (sec):        2.345
                         Elapsed time (sec):       59.030
  
                   Maximum memory used (kb):      325984.
                   Average memory used (kb):          N/A
  
                          Minor page faults:       149242
                          Major page faults:         1151
                 Voluntary context switches:         3201
