 vasp.6.4.1 05Apr23 (build Jun  6 2023 14:46:38) gamma-only                      
 executed on        HPECrayEX_GCC date 2024.08.21  00:34:23
 running  256 mpi-ranks, with    1 threads/rank, on    2 nodes
 distrk:  each k-point on  128 cores,    2 groups
 distr:  one band on NCORE=  32 cores,    4 groups


--------------------------------------------------------------------------------------------------------


 INCAR:
   ALGO = Conjugate
   KPAR = 2
   NCORE = 32
   ISMEAR = 0
   SIGMA = 0.01
   PREC = Accurate
   EDIFF = 1E-7
   ENCUT = 1000
   ISIF = 0
   GGA = BO
   PARAM1 = 0.1833333333
   PARAM2 = 0.2200000000
   LUSE_VDW = .TRUE.
   AGGAC = 0.0000
   LASPH = .TRUE.
   SYMPREC = 1E-7
   LWAVE = .FALSE.
   LCHARG = .FALSE.

 POTCAR:    PAW_PBE H_h 06Feb2004                 
 POTCAR:    PAW_PBE N_h 06Feb2004                 
 -----------------------------------------------------------------------------
|                                                                             |
|               ----> ADVICE to this user running VASP <----                  |
|                                                                             |
|     You have switched on vdW-DFT.                                           |
|     This routine was written and supplied by Jiri Klimes. We recommend      |
|     that you carefully read and cite the following publications:            |
|       J. Klimes, D.R. Bowler, A. Michelides                                 |
|          J. Phys.: Cond Matt. 22 022201 (2010)                              |
|       J. Klimes, D.R. Bowler, A. Michelides                                 |
|          Phys. Rev. B. 83, 195131 (2011)                                    |
|     and references therein.                                                 |
|                                                                             |
 -----------------------------------------------------------------------------

 POTCAR:    PAW_PBE H_h 06Feb2004                 
   VRHFIN =H: ultrasoft test                                                                        
   LEXCH  = PE                                                                                      
   EATOM  =    12.4884 eV,    0.9179 Ry                                                             
                                                                                                    
   TITEL  = PAW_PBE H_h 06Feb2004                                                                   
   LULTRA =        F    use ultrasoft PP ?                                                          
   IUNSCR =        0    unscreen: 0-lin 1-nonlin 2-no                                               
   RPACOR =    0.000    partial core radius                                                         
   POMASS =    1.000; ZVAL   =    1.000    mass and valenz                                          
   RCORE  =    0.800    outmost cutoff radius                                                       
   RWIGS  =    0.700; RWIGS  =    0.370    wigner-seitz radius (au A)                               
   ENMAX  =  700.000; ENMIN  =  350.000 eV                                                          
   RCLOC  =    0.701    cutoff for local pot                                                        
   LCOR   =        T    correct aug charges                                                         
   LPAW   =        T    paw PP                                                                      
   EAUG   = 1000.000                                                                                
   RMAX   =    0.819    core radius for proj-oper                                                   
   RAUG   =    1.000    factor for augmentation sphere                                              
   RDEP   =    0.817    radius for radial grids                                                     
   RDEPT  =    0.817    core radius for aug-charge                                                  
                                                                                                    
   Atomic configuration                                                                             
    2 entries                                                                                       
     n  l   j            E        occ.                                                              
     1  0  0.50        -6.4927   1.0000                                                             
     2  1  0.50        -3.4015   0.0000                                                             
   Description                                                                                      
     l       E           TYP  RCUT    TYP  RCUT                                                     
     0     -6.4927493     23  0.800                                                                 
     0      6.8029130     23  0.800                                                                 
     1     -6.8029130     23  0.800                                                                 
  local pseudopotential read in
  atomic valenz-charges read in
  non local Contribution for L=           0  read in
    real space projection operators read in
  non local Contribution for L=           0  read in
    real space projection operators read in
  non local Contribution for L=           1  read in
    real space projection operators read in
    PAW grid and wavefunctions read in

   number of l-projection  operators is LMAX  =           3
   number of lm-projection operators is LMMAX =           5

 POTCAR:    PAW_PBE N_h 06Feb2004                 
   VRHFIN =N: s2p3                                                                                  
   LEXCH  = PE                                                                                      
   EATOM  =   264.5486 eV,   19.4438 Ry                                                             
                                                                                                    
   TITEL  = PAW_PBE N_h 06Feb2004                                                                   
   LULTRA =        F    use ultrasoft PP ?                                                          
   IUNSCR =        1    unscreen: 0-lin 1-nonlin 2-no                                               
   RPACOR =    0.800    partial core radius                                                         
   POMASS =   14.001; ZVAL   =    5.000    mass and valenz                                          
   RCORE  =    1.100    outmost cutoff radius                                                       
   RWIGS  =    1.480; RWIGS  =    0.783    wigner-seitz radius (au A)                               
   ENMAX  =  700.000; ENMIN  =  500.000 eV                                                          
   ICORE  =        2    local potential                                                             
   LCOR   =        T    correct aug charges                                                         
   LPAW   =        T    paw PP                                                                      
   EAUG   =  904.640                                                                                
   DEXC   =    0.000                                                                                
   RMAX   =    1.127    core radius for proj-oper                                                   
   RAUG   =    1.300    factor for augmentation sphere                                              
   RDEP   =    1.115    radius for radial grids                                                     
   RDEPT  =    1.106    core radius for aug-charge                                                  
                                                                                                    
   Atomic configuration                                                                             
    4 entries                                                                                       
     n  l   j            E        occ.                                                              
     1  0  0.50      -384.7179   2.0000                                                             
     2  0  0.50       -18.5828   2.0000                                                             
     2  1  0.50        -7.0898   3.0000                                                             
     3  2  1.50        -6.8029   0.0000                                                             
   Description                                                                                      
     l       E           TYP  RCUT    TYP  RCUT                                                     
     0    -18.5828117     23  1.100                                                                 
     0    -15.0750597     23  1.100                                                                 
     1     -7.0897851     23  1.100                                                                 
     1     -1.9663412     23  1.100                                                                 
     2     -6.8029130      7  1.100                                                                 
  local pseudopotential read in
  partial core-charges read in
  partial kinetic energy density read in
  kinetic energy density of atom read in
  atomic valenz-charges read in
  non local Contribution for L=           0  read in
    real space projection operators read in
  non local Contribution for L=           0  read in
    real space projection operators read in
  non local Contribution for L=           1  read in
    real space projection operators read in
  non local Contribution for L=           1  read in
    real space projection operators read in
    PAW grid and wavefunctions read in

   number of l-projection  operators is LMAX  =           4
   number of lm-projection operators is LMMAX =           8

 -----------------------------------------------------------------------------
|                                                                             |
|               ----> ADVICE to this user running VASP <----                  |
|                                                                             |
|     You enforced a specific xc type in the INCAR file but a different       |
|     type was found in the POTCAR file.                                      |
|     I HOPE YOU KNOW WHAT YOU ARE DOING!                                     |
|                                                                             |
 -----------------------------------------------------------------------------

  PAW_PBE H_h 06Feb2004                 :
 energy of atom  1       EATOM=  -12.4884
 kinetic energy error for atom=    0.0006 (will be added to EATOM!!)
  PAW_PBE N_h 06Feb2004                 :
 energy of atom  2       EATOM= -264.5486
 kinetic energy error for atom=    0.0081 (will be added to EATOM!!)


 POSCAR:  H  N
  positions in cartesian coordinates
  No initial velocities read in
 exchange correlation table for  LEXCH =       42
   RHO(1)=    0.500       N(1)  =     2000
   RHO(2)=  100.500       N(2)  =     4000

 VTST: version 4.1, (05/19/21)

 CHAIN: initializing optimizer
 
 OPT: Using VASP Dynamics algorithm
 CHAIN: Read ICHAIN            0

 POSCAR:  H  N
  positions in cartesian coordinates
  No initial velocities read in



--------------------------------------------------------------------------------------------------------


 ion  position               nearest neighbor table
   1  0.533  0.506  0.467-   4 1.02
   2  0.506  0.467  0.533-   4 1.02
   3  0.467  0.533  0.506-   4 1.02
   4  0.491  0.491  0.491-   3 1.02   2 1.02   1 1.02

  LATTYP: Found a simple cubic cell.
 ALAT       =    20.0000000000
  
  Lattice vectors:
  
 A1 = (  20.0000000000,   0.0000000000,   0.0000000000)
 A2 = (   0.0000000000,  20.0000000000,   0.0000000000)
 A3 = (   0.0000000000,   0.0000000000,  20.0000000000)


Analysis of symmetry for initial positions (statically):
=====================================================================
 Subroutine PRICEL returns:
 Original cell was already a primitive cell.
 

 Routine SETGRP: Setting up the symmetry group for a 
 simple cubic supercell.


 Subroutine GETGRP returns: Found  1 space group operations
 (whereof  1 operations were pure point group operations)
 out of a pool of 48 trial point group operations.


The static configuration has the point symmetry C_1 .


Analysis of symmetry for dynamics (positions and initial velocities):
=====================================================================
 Subroutine PRICEL returns:
 Original cell was already a primitive cell.
 

 Routine SETGRP: Setting up the symmetry group for a 
 simple cubic supercell.


 Subroutine GETGRP returns: Found  1 space group operations
 (whereof  1 operations were pure point group operations)
 out of a pool of 48 trial point group operations.


The dynamic configuration has the point symmetry C_1 .


 Subroutine INISYM returns: Found  1 space group operations
 (whereof  1 operations are pure point group operations),
 and found     1 'primitive' translations


----------------------------------------------------------------------------------------

                                     Primitive cell                                     

  volume of cell :    8000.0000

  direct lattice vectors                    reciprocal lattice vectors
    20.000000000  0.000000000  0.000000000     0.050000000  0.000000000  0.000000000
     0.000000000 20.000000000  0.000000000     0.000000000  0.050000000  0.000000000
     0.000000000  0.000000000 20.000000000     0.000000000  0.000000000  0.050000000

  length of vectors
    20.000000000 20.000000000 20.000000000     0.050000000  0.050000000  0.050000000

  position of ions in fractional coordinates (direct lattice)
     0.533163250  0.506474750  0.466836500
     0.506475750  0.466836250  0.533163500
     0.466836750  0.533163750  0.506475500
     0.491021750  0.491025250  0.491025500

  ion indices of the primitive-cell ions
   primitive index   ion index
                 1           1
                 2           2
                 3           3
                 4           4

----------------------------------------------------------------------------------------



 KPOINTS: auto                                    

Automatic generation of k-mesh.
 Grid dimensions read from file:
 generate k-points for:    1    1    1

 Generating k-lattice:

  Cartesian coordinates                     Fractional coordinates (reciprocal lattice)
     0.050000000  0.000000000  0.000000000     1.000000000  0.000000000  0.000000000
     0.000000000  0.050000000  0.000000000     0.000000000  1.000000000  0.000000000
     0.000000000  0.000000000  0.050000000     0.000000000  0.000000000  1.000000000

  Length of vectors
     0.050000000  0.050000000  0.050000000

  Shift w.r.t. Gamma in fractional coordinates (k-lattice)
     0.000000000  0.000000000  0.000000000

 
 Subroutine IBZKPT returns following result:
 ===========================================
 
 Found      1 irreducible k-points:
 
 Following reciprocal coordinates:
            Coordinates               Weight
  0.000000  0.000000  0.000000      1.000000
 
 Following cartesian coordinates:
            Coordinates               Weight
  0.000000  0.000000  0.000000      1.000000
 


--------------------------------------------------------------------------------------------------------




 Dimension of arrays:
   k-points           NKPTS =      1   k-points in BZ     NKDIM =      1   number of bands    NBANDS=      8
   number of dos      NEDOS =    301   number of ions     NIONS =      4
   non local maximal  LDIM  =      4   non local SUM 2l+1 LMDIM =      8
   total plane-waves  NPLWV = ******
   max r-space proj   IRMAX =      1   max aug-charges    IRDMAX=   8421
   dimension x,y,z NGX =   210 NGY =  210 NGZ =  210
   dimension x,y,z NGXF=   420 NGYF=  420 NGZF=  420
   support grid    NGXF=   420 NGYF=  420 NGZF=  420
   ions per type =               3   1
   NGX,Y,Z   is equivalent  to a cutoff of  17.46, 17.46, 17.46 a.u.
   NGXF,Y,Z  is equivalent  to a cutoff of  34.91, 34.91, 34.91 a.u.

 SYSTEM =  unknown system                          
 POSCAR =   H  N                                   

 Startparameter for this run:
   NWRITE =      2    write-flag & timer
   PREC   = accura    normal or accurate (medium, high low for compatibility)
   ISTART =      0    job   : 0-new  1-cont  2-samecut
   ICHARG =      2    charge: 1-file 2-atom 10-const
   ISPIN  =      1    spin polarized calculation?
   LNONCOLLINEAR =      F non collinear calculations
   LSORBIT =      F    spin-orbit coupling
   INIWAV =      1    electr: 0-lowe 1-rand  2-diag
   LASPH  =      T    aspherical Exc in radial PAW
 Electronic Relaxation 1
   ENCUT  = 1000.0 eV  73.50 Ry    8.57 a.u.  51.57 51.57 51.57*2*pi/ulx,y,z
   ENINI  = 1000.0     initial cutoff
   ENAUG  = 1000.0 eV  augmentation charge cutoff
   NELM   =     60;   NELMIN=  2; NELMDL= -5     # of ELM steps 
   EDIFF  = 0.1E-06   stopping-criterion for ELM
   LREAL  =      F    real-space projection
   NLSPLINE    = F    spline interpolate recip. space projectors
   LCOMPAT=      F    compatible to vasp.4.4
   GGA_COMPAT  = T    GGA compatible to vasp.4.4-vasp.4.6
   LMAXPAW     = -100 max onsite density
   LMAXMIX     =    2 max onsite mixed and CHGCAR
   VOSKOWN=      0    Vosko Wilk Nusair interpolation
   ROPT   =    0.00000   0.00000
 Ionic relaxation
   EDIFFG = 0.1E-05   stopping-criterion for IOM
   NSW    =      0    number of steps for IOM
   NBLOCK =      1;   KBLOCK =      1    inner block; outer block 
   IBRION =     -1    ionic relax: 0-MD 1-quasi-New 2-CG
   NFREE  =      0    steps in history (QN), initial steepest desc. (CG)
   ISIF   =      0    stress and relaxation
   IWAVPR =     10    prediction:  0-non 1-charg 2-wave 3-comb
   ISYM   =      2    0-nonsym 1-usesym 2-fastsym
   LCORR  =      T    Harris-Foulkes like correction to forces

   POTIM  = 0.5000    time-step for ionic-motion
   TEIN   =    0.0    initial temperature
   TEBEG  =    0.0;   TEEND  =   0.0 temperature during run
   SMASS  =  -3.00    Nose mass-parameter (am)
   estimated Nose-frequenzy (Omega)   =  0.10E-29 period in steps = 0.13E+47 mass=  -0.914E-26a.u.
   SCALEE = 1.0000    scale energy and forces
   NPACO  =    256;   APACO  = 10.0  distance and # of slots for P.C.
   PSTRESS=    0.0 pullay stress

  Mass of Ions in am
   POMASS =   1.00 14.00
  Ionic Valenz
   ZVAL   =   1.00  5.00
  Atomic Wigner-Seitz radii
   RWIGS  =  -1.00 -1.00
  virtual crystal weights 
   VCA    =   1.00  1.00
   NELECT =       8.0000    total number of electrons
   NUPDOWN=      -1.0000    fix difference up-down

 DOS related values:
   EMIN   =  10.00;   EMAX   =-10.00  energy-range for DOS
   EFERMI =   0.00;   METHOD = LEGACY      
   ISMEAR =     0;   SIGMA  =   0.01  broadening in eV -4-tet -1-fermi 0-gaus

 Electronic relaxation 2 (details)
   IALGO  =     58    algorithm
   LDIAG  =      T    sub-space diagonalisation (order eigenvalues)
   LSUBROT=      F    optimize rotation matrix (better conditioning)
   TURBO    =      0    0=normal 1=particle mesh
   IRESTART =      0    0=no restart 2=restart with 2 vectors
   NREBOOT  =      0    no. of reboots
   NMIN     =      0    reboot dimension
   EREF     =   0.00    reference energy to select bands
   IMIX   =      4    mixing-type and parameters
     AMIX     =   0.40;   BMIX     =  1.00
     AMIX_MAG =   1.60;   BMIX_MAG =  1.00
     AMIN     =   0.10
     WC   =   100.;   INIMIX=   1;  MIXPRE=   1;  MAXMIX= -45

 Intra band minimization:
   WEIMIN = 0.0000     energy-eigenvalue tresh-hold
   EBREAK =  0.31E-08  absolut break condition
   DEPER  =   0.30     relativ break condition  

   TIME   =   0.40     timestep for ELM

  volume/ion in A,a.u.               =    2000.00     13496.67
  Fermi-wavevector in a.u.,A,eV,Ry     =   0.163710  0.309367  0.364649  0.026801
  Thomas-Fermi vector in A             =   0.862763

 Write flags
   LWAVE        =      F    write WAVECAR
   LDOWNSAMPLE  =      F    k-point downsampling of WAVECAR
   LCHARG       =      F    write CHGCAR
   LVTOT        =      F    write LOCPOT, total local potential
   LVHAR        =      F    write LOCPOT, Hartree potential only
   LELF         =      F    write electronic localiz. function (ELF)
   LORBIT       =      0    0 simple, 1 ext, 2 COOP (PROOUT), +10 PAW based schemes


 Dipole corrections
   LMONO  =      F    monopole corrections only (constant potential shift)
   LDIPOL =      F    correct potential (dipole corrections)
   IDIPOL =      0    1-x, 2-y, 3-z, 4-all directions 
   EPSILON=  1.0000000 bulk dielectric constant

 Exchange correlation treatment:
   GGA     =    BO    GGA type
   LEXCH   =    42    internal setting for exchange type
   LIBXC   =     F    Libxc                    
   VOSKOWN =     0    Vosko Wilk Nusair interpolation
   LHFCALC =     F    Hartree Fock is set to
   LHFONE  =     F    Hartree Fock one center treatment
   AEXX    =    0.0000 exact exchange contribution

 vdW DFT:
   LUSE_VDW   =     T    switch on vdW DFT
   IVDW_NL    =     1    kernel type
   LSPIN_VDW  =     F    use spin-polarized vdW DFT
   Zab_VDW    =-.8491    correlation parameter
   PARAM1     =0.1833
   PARAM2     =0.2200
   PARAM3     =0.0000
   -- rVV10 --
   BPARAM     = 6.3000
   CPARAM     = 0.0093

 Linear response parameters
   LEPSILON=     F    determine dielectric tensor
   LRPA    =     F    only Hartree local field effects (RPA)
   LNABLA  =     F    use nabla operator in PAW spheres
   LVEL    =     F    velocity operator in full k-point grid
   CSHIFT  =0.1000    complex shift for real part using Kramers Kronig
   OMEGAMAX=  -1.0    maximum frequency
   DEG_THRESHOLD= 0.2000000E-02 threshold for treating states as degnerate
   RTIME   =   -0.100 relaxation time in fs
  (WPLASMAI=    0.000 imaginary part of plasma frequency in eV, 0.658/RTIME)
   DFIELD  = 0.0000000 0.0000000 0.0000000 field for delta impulse in time

  Optional k-point grid parameters
   LKPOINTS_OPT  =     F    use optional k-point grid
   KPOINTS_OPT_MODE=     1    mode for optional k-point grid

 Orbital magnetization related:
   ORBITALMAG=     F  switch on orbital magnetization
   LCHIMAG   =     F  perturbation theory with respect to B field
   DQ        =  0.001000  dq finite difference perturbation B field
   LLRAUG    =     F  two centre corrections for induced B field
   LBONE     =     F  B-component reconstruction in AE one-centre
   LVGVCALC  =     T  calculate vGv susceptibility
   LVGVAPPL  =     F  apply vGv susceptibility instead of pGv for G=0

 Random number generation:
   RANDOM_GENERATOR = DEFAULT
   PCG_SEED         = not used


--------------------------------------------------------------------------------------------------------


 Static calculation
 charge density and potential will be updated during run
 non-spin polarized calculation
 Conjugate gradient for all bands (Freysoldt, et al. PRB 79, 241103 (2009))
 preconditioned conjugated gradient                                        
 perform sub-space diagonalisation
    before iterative eigenvector-optimisation
 modified Broyden-mixing scheme, WC =      100.0
 initial mixing is a Kerker type mixing with AMIX =  0.4000 and BMIX =      1.0000
 Hartree-type preconditioning will be used
 using additional bands            4
 reciprocal scheme for non local part
 use partial core corrections
 no Harris-corrections to forces 
 use gradient corrections 
 use of overlap-Matrix (Vanderbilt PP)
 Gauss-broadening in eV      SIGMA  =   0.01


--------------------------------------------------------------------------------------------------------


  energy-cutoff  :     1000.00
  volume of cell :     8000.00
      direct lattice vectors                 reciprocal lattice vectors
    20.000000000  0.000000000  0.000000000     0.050000000  0.000000000  0.000000000
     0.000000000 20.000000000  0.000000000     0.000000000  0.050000000  0.000000000
     0.000000000  0.000000000 20.000000000     0.000000000  0.000000000  0.050000000

  length of vectors
    20.000000000 20.000000000 20.000000000     0.050000000  0.050000000  0.050000000



 k-points in units of 2pi/SCALE and weight: auto                                    
   0.00000000  0.00000000  0.00000000       1.000

 k-points in reciprocal lattice and weights: auto                                    
   0.00000000  0.00000000  0.00000000       1.000

 position of ions in fractional coordinates (direct lattice) 
   0.53316325  0.50647475  0.46683650
   0.50647575  0.46683625  0.53316350
   0.46683675  0.53316375  0.50647550
   0.49102175  0.49102525  0.49102550

 position of ions in cartesian coordinates  (Angst):
  10.66326500 10.12949500  9.33673000
  10.12951500  9.33672500 10.66327000
   9.33673500 10.66327500 10.12951000
   9.82043500  9.82050500  9.82051000



--------------------------------------------------------------------------------------------------------


 use parallel FFT for orbitals z direction half grid
 k-point   1 :   0.0000 0.0000 0.0000  plane waves:  287166

 maximum and minimum number of plane-waves per node :      8979     8970

 maximum number of plane-waves:    287166
 maximum index in each direction: 
   IXMAX=   51   IYMAX=   51   IZMAX=   51
   IXMIN=  -51   IYMIN=  -51   IZMIN=    0


 parallel 3D FFT for wavefunctions:
    minimum data exchange during FFTs selected (reduces bandwidth)
 parallel 3D FFT for charge:
    minimum data exchange during FFTs selected (reduces bandwidth)


 total amount of memory used by VASP MPI-rank0   113744. kBytes
=======================================================================

   base      :      30000. kBytes
   nonl-proj :       1724. kBytes
   fftplans  :      29139. kBytes
   grid      :      52019. kBytes
   one-center:          1. kBytes
   wavefun   :        861. kBytes

     INWAV:  cpu time      0.0014: real time      0.0015
 Broyden mixing: mesh for mixing (old mesh)
   NGX =103   NGY =103   NGZ =103
  (NGX  =420   NGY  =420   NGZ  =420)
  gives a total of ****** points

 initial charge density was supplied:
 charge density of overlapping atoms calculated
 number of electron       8.0000000 magnetization 
 keeping initial charge density in first step


--------------------------------------------------------------------------------------------------------


 Maximum index for augmentation-charges            0 (set IRDMAX)


--------------------------------------------------------------------------------------------------------


 First call to EWALD:  gamma=   0.089
 Maximum number of real-space cells 3x 3x 3
 Maximum number of reciprocal cells 3x 3x 3

    FEWALD:  cpu time      0.0028: real time      0.0028


--------------------------------------- Ionic step        1  -------------------------------------------




--------------------------------------- Iteration      1(   1)  ---------------------------------------


vdW kernel read from vdw_kernel.bindat
  0.0000  0.2424  0.5071  0.7962  1.1119  1.4567  1.8333  2.2446  2.6937  3.1842
  3.7199  4.3049  4.9438  5.6415  6.4036  7.2358  8.1446  9.1372 10.2212 11.4050
 12.6979 14.1099 15.6519 17.3360 19.1751 21.1837 23.3773 25.7729 28.3892 31.2465
 34.3669 37.7748 41.4965 45.5611 50.0000

    POTLOK:  cpu time     29.7585: real time     29.7672
    SETDIJ:  cpu time      0.0908: real time      0.0912
    TRIAL :  cpu time      0.2950: real time      0.2964
    CORREC:  cpu time      0.0021: real time      0.0021
    --------------------------------------------
      LOOP:  cpu time     30.1535: real time     30.1639

 eigenvalue-minimisations  :    24
 total energy-change (2. order) : 0.7454189E+02  (-0.1499780E+03)
 number of electron       8.0000000 magnetization 
 augmentation part        8.0000000 magnetization 

 Free energy of the ion-electron system (eV)
  ---------------------------------------------------
  alpha Z        PSCENC =         0.02212312
  Ewald energy   TEWEN  =       172.96321032
  -Hartree energ DENC   =      -381.98205141
  -exchange      EXHF   =         0.00000000
  -V(xc)+E(xc)   XCENC  =        23.08639887
  PAW double counting   =       210.06027849     -208.23392664
  entropy T*S    EENTRO =        -0.00000000
  eigenvalues    EBANDS =       -46.30337454
  atomic energy  EATOM  =       304.92922975
  ---------------------------------------------------
  free energy    TOTEN  =        74.54188797 eV

  energy without entropy =       74.54188797  energy(sigma->0) =       74.54188797


--------------------------------------------------------------------------------------------------------




--------------------------------------- Iteration      1(   2)  ---------------------------------------


    TRIAL :  cpu time      0.3441: real time      0.3441
    CORREC:  cpu time      0.0001: real time      0.0001
    --------------------------------------------
      LOOP:  cpu time      0.3580: real time      0.3735

 eigenvalue-minimisations  :    32
 total energy-change (2. order) :-0.4061733E+02  (-0.4061733E+02)
 number of electron       8.0000000 magnetization 
 augmentation part        8.0000000 magnetization 

 Free energy of the ion-electron system (eV)
  ---------------------------------------------------
  alpha Z        PSCENC =         0.02212312
  Ewald energy   TEWEN  =       172.96321032
  -Hartree energ DENC   =      -381.98205141
  -exchange      EXHF   =         0.00000000
  -V(xc)+E(xc)   XCENC  =        23.08639887
  PAW double counting   =       210.06027849     -208.23392664
  entropy T*S    EENTRO =        -0.00000000
  eigenvalues    EBANDS =       -86.92070800
  atomic energy  EATOM  =       304.92922975
  ---------------------------------------------------
  free energy    TOTEN  =        33.92455451 eV

  energy without entropy =       33.92455451  energy(sigma->0) =       33.92455451


--------------------------------------------------------------------------------------------------------




--------------------------------------- Iteration      1(   3)  ---------------------------------------


    TRIAL :  cpu time      0.2743: real time      0.2743
    CORREC:  cpu time      0.0001: real time      0.0001
    --------------------------------------------
      LOOP:  cpu time      0.2942: real time      0.3018

 eigenvalue-minimisations  :    24
 total energy-change (2. order) :-0.4976648E+02  (-0.4976648E+02)
 number of electron       8.0000000 magnetization 
 augmentation part        8.0000000 magnetization 

 Free energy of the ion-electron system (eV)
  ---------------------------------------------------
  alpha Z        PSCENC =         0.02212312
  Ewald energy   TEWEN  =       172.96321032
  -Hartree energ DENC   =      -381.98205141
  -exchange      EXHF   =         0.00000000
  -V(xc)+E(xc)   XCENC  =        23.08639887
  PAW double counting   =       210.06027849     -208.23392664
  entropy T*S    EENTRO =        -0.00000000
  eigenvalues    EBANDS =      -136.68719294
  atomic energy  EATOM  =       304.92922975
  ---------------------------------------------------
  free energy    TOTEN  =       -15.84193043 eV

  energy without entropy =      -15.84193043  energy(sigma->0) =      -15.84193043


--------------------------------------------------------------------------------------------------------




--------------------------------------- Iteration      1(   4)  ---------------------------------------


    TRIAL :  cpu time      0.2065: real time      0.2065
    CORREC:  cpu time      0.0001: real time      0.0001
    --------------------------------------------
      LOOP:  cpu time      0.2349: real time      0.2351

 eigenvalue-minimisations  :    16
 total energy-change (2. order) :-0.5308144E+01  (-0.5308144E+01)
 number of electron       8.0000000 magnetization 
 augmentation part        8.0000000 magnetization 

 Free energy of the ion-electron system (eV)
  ---------------------------------------------------
  alpha Z        PSCENC =         0.02212312
  Ewald energy   TEWEN  =       172.96321032
  -Hartree energ DENC   =      -381.98205141
  -exchange      EXHF   =         0.00000000
  -V(xc)+E(xc)   XCENC  =        23.08639887
  PAW double counting   =       210.06027849     -208.23392664
  entropy T*S    EENTRO =        -0.00000000
  eigenvalues    EBANDS =      -141.99533725
  atomic energy  EATOM  =       304.92922975
  ---------------------------------------------------
  free energy    TOTEN  =       -21.15007475 eV

  energy without entropy =      -21.15007475  energy(sigma->0) =      -21.15007475


--------------------------------------------------------------------------------------------------------




--------------------------------------- Iteration      1(   5)  ---------------------------------------


    TRIAL :  cpu time      0.3403: real time      0.3403
    CORREC:  cpu time      0.0001: real time      0.0001
    CHARGE:  cpu time      0.1466: real time      0.1471
    --------------------------------------------
      LOOP:  cpu time      0.5101: real time      0.5160

 eigenvalue-minimisations  :    32
 total energy-change (2. order) :-0.2268556E+00  (-0.2268556E+00)
 number of electron       8.0000000 magnetization 
 augmentation part        0.0199395 magnetization 

 Free energy of the ion-electron system (eV)
  ---------------------------------------------------
  alpha Z        PSCENC =         0.02212312
  Ewald energy   TEWEN  =       172.96321032
  -Hartree energ DENC   =      -381.98205141
  -exchange      EXHF   =         0.00000000
  -V(xc)+E(xc)   XCENC  =        23.08639887
  PAW double counting   =       210.06027849     -208.23392664
  entropy T*S    EENTRO =        -0.00000000
  eigenvalues    EBANDS =      -142.22219285
  atomic energy  EATOM  =       304.92922975
  ---------------------------------------------------
  free energy    TOTEN  =       -21.37693035 eV

  energy without entropy =      -21.37693035  energy(sigma->0) =      -21.37693035


--------------------------------------------------------------------------------------------------------




--------------------------------------- Iteration      1(   6)  ---------------------------------------


    POTLOK:  cpu time     29.3719: real time     29.3797
    SETDIJ:  cpu time      0.0035: real time      0.0035
    TRIAL :  cpu time      0.1672: real time      0.1699
    CORREC:  cpu time     29.5757: real time     29.5844
    CHARGE:  cpu time      0.1179: real time      0.1179
    --------------------------------------------
      LOOP:  cpu time     59.2480: real time     59.2839

 eigenvalue-minimisations  :     0
 total energy-change (2. order) : 0.7946047E+01  (-0.4077203E+01)
 number of electron       8.0000000 magnetization 
 augmentation part        0.0043937 magnetization 

 Free energy of the ion-electron system (eV)
  ---------------------------------------------------
  alpha Z        PSCENC =         0.02212312
  Ewald energy   TEWEN  =       172.96321032
  -Hartree energ DENC   =      -473.70477005
  -exchange      EXHF   =         0.00000000
  -V(xc)+E(xc)   XCENC  =        28.12753270
  PAW double counting   =      1080.98676630    -1079.80157100
  entropy T*S    EENTRO =        -0.00000000
  eigenvalues    EBANDS =       -46.95340461
  atomic energy  EATOM  =       304.92922975
  ---------------------------------------------------
  free energy    TOTEN  =       -13.43088347 eV

  energy without entropy =      -13.43088347  energy(sigma->0) =      -13.43088347


--------------------------------------------------------------------------------------------------------




--------------------------------------- Iteration      1(   7)  ---------------------------------------


    POTLOK:  cpu time     29.3526: real time     29.3626
    SETDIJ:  cpu time      0.0519: real time      0.0519
    TRIAL :  cpu time      0.1481: real time      0.1481
    CORREC:  cpu time     29.5251: real time     29.5337
    CHARGE:  cpu time      0.1172: real time      0.1176
    --------------------------------------------
      LOOP:  cpu time     59.2259: real time     59.2454

 eigenvalue-minimisations  :     0
 total energy-change (2. order) :-0.4164834E+01  (-0.3077240E+00)
 number of electron       8.0000000 magnetization 
 augmentation part       -0.0050535 magnetization 

 Free energy of the ion-electron system (eV)
  ---------------------------------------------------
  alpha Z        PSCENC =         0.02212312
  Ewald energy   TEWEN  =       172.96321032
  -Hartree energ DENC   =      -425.66502005
  -exchange      EXHF   =         0.00000000
  -V(xc)+E(xc)   XCENC  =        25.56359690
  PAW double counting   =      1980.90536108    -1979.32837414
  entropy T*S    EENTRO =        -0.00000000
  eigenvalues    EBANDS =       -96.98584476
  atomic energy  EATOM  =       304.92922975
  ---------------------------------------------------
  free energy    TOTEN  =       -17.59571778 eV

  energy without entropy =      -17.59571778  energy(sigma->0) =      -17.59571778


--------------------------------------------------------------------------------------------------------




--------------------------------------- Iteration      1(   8)  ---------------------------------------


    POTLOK:  cpu time     29.3775: real time     29.3864
    SETDIJ:  cpu time      0.0026: real time      0.0026
    TRIAL :  cpu time      0.1472: real time      0.1473
    CORREC:  cpu time     29.5969: real time     29.6068
    CHARGE:  cpu time      0.1182: real time      0.1182
    --------------------------------------------
      LOOP:  cpu time     59.2557: real time     59.2923

 eigenvalue-minimisations  :     0
 total energy-change (2. order) :-0.3082156E+00  (-0.1321896E+00)
 number of electron       8.0000000 magnetization 
 augmentation part       -0.0059229 magnetization 

 Free energy of the ion-electron system (eV)
  ---------------------------------------------------
  alpha Z        PSCENC =         0.02212312
  Ewald energy   TEWEN  =       172.96321032
  -Hartree energ DENC   =      -424.13816373
  -exchange      EXHF   =         0.00000000
  -V(xc)+E(xc)   XCENC  =        25.52858370
  PAW double counting   =      2090.37421546    -2088.75534657
  entropy T*S    EENTRO =        -0.00000000
  eigenvalues    EBANDS =       -98.82778548
  atomic energy  EATOM  =       304.92922975
  ---------------------------------------------------
  free energy    TOTEN  =       -17.90393342 eV

  energy without entropy =      -17.90393342  energy(sigma->0) =      -17.90393342


--------------------------------------------------------------------------------------------------------




--------------------------------------- Iteration      1(   9)  ---------------------------------------


    POTLOK:  cpu time     29.3665: real time     29.3754
    SETDIJ:  cpu time      0.0028: real time      0.0028
    TRIAL :  cpu time      0.1476: real time      0.1476
    CORREC:  cpu time     29.5280: real time     29.5383
    CHARGE:  cpu time      0.1174: real time      0.1174
    --------------------------------------------
      LOOP:  cpu time     59.1762: real time     59.2128

 eigenvalue-minimisations  :     0
 total energy-change (2. order) :-0.1291610E+00  (-0.6100935E-01)
 number of electron       8.0000000 magnetization 
 augmentation part       -0.0054570 magnetization 

 Free energy of the ion-electron system (eV)
  ---------------------------------------------------
  alpha Z        PSCENC =         0.02212312
  Ewald energy   TEWEN  =       172.96321032
  -Hartree energ DENC   =      -422.69300753
  -exchange      EXHF   =         0.00000000
  -V(xc)+E(xc)   XCENC  =        25.48752640
  PAW double counting   =      2066.50192735    -2064.86274554
  entropy T*S    EENTRO =        -0.00000000
  eigenvalues    EBANDS =      -100.38135831
  atomic energy  EATOM  =       304.92922975
  ---------------------------------------------------
  free energy    TOTEN  =       -18.03309442 eV

  energy without entropy =      -18.03309442  energy(sigma->0) =      -18.03309442


--------------------------------------------------------------------------------------------------------




--------------------------------------- Iteration      1(  10)  ---------------------------------------


    POTLOK:  cpu time     29.3110: real time     29.3195
    SETDIJ:  cpu time      0.1051: real time      0.1051
    TRIAL :  cpu time      0.1482: real time      0.1487
    CORREC:  cpu time     29.6385: real time     29.6478
    CHARGE:  cpu time      0.1178: real time      0.1178
    --------------------------------------------
      LOOP:  cpu time     59.3390: real time     59.3710

 eigenvalue-minimisations  :     0
 total energy-change (2. order) :-0.5923801E-01  (-0.1668369E-01)
 number of electron       8.0000000 magnetization 
 augmentation part       -0.0053638 magnetization 

 Free energy of the ion-electron system (eV)
  ---------------------------------------------------
  alpha Z        PSCENC =         0.02212312
  Ewald energy   TEWEN  =       172.96321032
  -Hartree energ DENC   =      -422.74860458
  -exchange      EXHF   =         0.00000000
  -V(xc)+E(xc)   XCENC  =        25.49902330
  PAW double counting   =      1965.55431102    -1963.91759279
  entropy T*S    EENTRO =        -0.00000000
  eigenvalues    EBANDS =      -100.39403258
  atomic energy  EATOM  =       304.92922975
  ---------------------------------------------------
  free energy    TOTEN  =       -18.09233243 eV

  energy without entropy =      -18.09233243  energy(sigma->0) =      -18.09233243


--------------------------------------------------------------------------------------------------------




--------------------------------------- Iteration      1(  11)  ---------------------------------------


    POTLOK:  cpu time     29.3302: real time     29.3394
    SETDIJ:  cpu time      0.0799: real time      0.0798
    TRIAL :  cpu time      0.1482: real time      0.1482
    CORREC:  cpu time     29.5190: real time     29.5276
    CHARGE:  cpu time      0.1186: real time      0.1186
    --------------------------------------------
      LOOP:  cpu time     59.2101: real time     59.2445

 eigenvalue-minimisations  :     0
 total energy-change (2. order) :-0.1659793E-01  (-0.4098979E-02)
 number of electron       8.0000000 magnetization 
 augmentation part       -0.0051208 magnetization 

 Free energy of the ion-electron system (eV)
  ---------------------------------------------------
  alpha Z        PSCENC =         0.02212312
  Ewald energy   TEWEN  =       172.96321032
  -Hartree energ DENC   =      -422.25174055
  -exchange      EXHF   =         0.00000000
  -V(xc)+E(xc)   XCENC  =        25.46485903
  PAW double counting   =      1915.57556342    -1913.94083997
  entropy T*S    EENTRO =        -0.00000000
  eigenvalues    EBANDS =      -100.87133548
  atomic energy  EATOM  =       304.92922975
  ---------------------------------------------------
  free energy    TOTEN  =       -18.10893036 eV

  energy without entropy =      -18.10893036  energy(sigma->0) =      -18.10893036


--------------------------------------------------------------------------------------------------------




--------------------------------------- Iteration      1(  12)  ---------------------------------------


    POTLOK:  cpu time     29.3313: real time     29.3404
    SETDIJ:  cpu time      0.0381: real time      0.0381
    TRIAL :  cpu time      0.1480: real time      0.1480
    CORREC:  cpu time     29.5176: real time     29.5276
    CHARGE:  cpu time      0.1177: real time      0.1177
    --------------------------------------------
      LOOP:  cpu time     59.1837: real time     59.2032

 eigenvalue-minimisations  :     0
 total energy-change (2. order) :-0.4118650E-02  (-0.1305189E-02)
 number of electron       8.0000000 magnetization 
 augmentation part       -0.0049079 magnetization 

 Free energy of the ion-electron system (eV)
  ---------------------------------------------------
  alpha Z        PSCENC =         0.02212312
  Ewald energy   TEWEN  =       172.96321032
  -Hartree energ DENC   =      -422.28822572
  -exchange      EXHF   =         0.00000000
  -V(xc)+E(xc)   XCENC  =        25.46083651
  PAW double counting   =      1902.35653816    -1900.72520351
  entropy T*S    EENTRO =        -0.00000000
  eigenvalues    EBANDS =      -100.83155764
  atomic energy  EATOM  =       304.92922975
  ---------------------------------------------------
  free energy    TOTEN  =       -18.11304901 eV

  energy without entropy =      -18.11304901  energy(sigma->0) =      -18.11304901


--------------------------------------------------------------------------------------------------------




--------------------------------------- Iteration      1(  13)  ---------------------------------------


    POTLOK:  cpu time     29.3040: real time     29.3143
    SETDIJ:  cpu time      0.1146: real time      0.1146
    TRIAL :  cpu time      0.1484: real time      0.1484
    CORREC:  cpu time     29.6187: real time     29.6283
    CHARGE:  cpu time      0.1174: real time      0.1174
    --------------------------------------------
      LOOP:  cpu time     59.3178: real time     59.3548

 eigenvalue-minimisations  :     0
 total energy-change (2. order) :-0.1313299E-02  (-0.4183982E-03)
 number of electron       8.0000000 magnetization 
 augmentation part       -0.0048127 magnetization 

 Free energy of the ion-electron system (eV)
  ---------------------------------------------------
  alpha Z        PSCENC =         0.02212312
  Ewald energy   TEWEN  =       172.96321032
  -Hartree energ DENC   =      -422.39856835
  -exchange      EXHF   =         0.00000000
  -V(xc)+E(xc)   XCENC  =        25.46274004
  PAW double counting   =      1905.97563194    -1904.34653709
  entropy T*S    EENTRO =        -0.00000000
  eigenvalues    EBANDS =      -100.72219205
  atomic energy  EATOM  =       304.92922975
  ---------------------------------------------------
  free energy    TOTEN  =       -18.11436231 eV

  energy without entropy =      -18.11436231  energy(sigma->0) =      -18.11436231


--------------------------------------------------------------------------------------------------------




--------------------------------------- Iteration      1(  14)  ---------------------------------------


    POTLOK:  cpu time     29.3069: real time     29.3169
    SETDIJ:  cpu time      0.0340: real time      0.0340
    TRIAL :  cpu time      0.1475: real time      0.1475
    CORREC:  cpu time     29.4822: real time     29.4919
    CHARGE:  cpu time      0.1170: real time      0.1170
    --------------------------------------------
      LOOP:  cpu time     59.1028: real time     59.1389

 eigenvalue-minimisations  :     0
 total energy-change (2. order) :-0.4242700E-03  (-0.1274624E-03)
 number of electron       8.0000000 magnetization 
 augmentation part       -0.0047600 magnetization 

 Free energy of the ion-electron system (eV)
  ---------------------------------------------------
  alpha Z        PSCENC =         0.02212312
  Ewald energy   TEWEN  =       172.96321032
  -Hartree energ DENC   =      -422.34936611
  -exchange      EXHF   =         0.00000000
  -V(xc)+E(xc)   XCENC  =        25.45794549
  PAW double counting   =      1911.84746502    -1910.21854968
  entropy T*S    EENTRO =        -0.00000000
  eigenvalues    EBANDS =      -100.76684449
  atomic energy  EATOM  =       304.92922975
  ---------------------------------------------------
  free energy    TOTEN  =       -18.11478658 eV

  energy without entropy =      -18.11478658  energy(sigma->0) =      -18.11478658


--------------------------------------------------------------------------------------------------------




--------------------------------------- Iteration      1(  15)  ---------------------------------------


    POTLOK:  cpu time     29.2515: real time     29.2610
    SETDIJ:  cpu time      0.0891: real time      0.0891
    TRIAL :  cpu time      0.1474: real time      0.1474
    CORREC:  cpu time     29.4965: real time     29.5051
    CHARGE:  cpu time      0.1185: real time      0.1190
    --------------------------------------------
      LOOP:  cpu time     59.1329: real time     59.1516

 eigenvalue-minimisations  :     0
 total energy-change (2. order) :-0.1293731E-03  (-0.3799612E-04)
 number of electron       8.0000000 magnetization 
 augmentation part       -0.0047322 magnetization 

 Free energy of the ion-electron system (eV)
  ---------------------------------------------------
  alpha Z        PSCENC =         0.02212312
  Ewald energy   TEWEN  =       172.96321032
  -Hartree energ DENC   =      -422.40834772
  -exchange      EXHF   =         0.00000000
  -V(xc)+E(xc)   XCENC  =        25.46068001
  PAW double counting   =      1912.70698237    -1911.07842895
  entropy T*S    EENTRO =        -0.00000000
  eigenvalues    EBANDS =      -100.71036486
  atomic energy  EATOM  =       304.92922975
  ---------------------------------------------------
  free energy    TOTEN  =       -18.11491595 eV

  energy without entropy =      -18.11491595  energy(sigma->0) =      -18.11491595


--------------------------------------------------------------------------------------------------------




--------------------------------------- Iteration      1(  16)  ---------------------------------------


    POTLOK:  cpu time     29.3015: real time     29.3097
    SETDIJ:  cpu time      0.0037: real time      0.0037
    TRIAL :  cpu time      0.1473: real time      0.1473
    CORREC:  cpu time     29.4600: real time     29.4683
    CHARGE:  cpu time      0.1185: real time      0.1189
    --------------------------------------------
      LOOP:  cpu time     59.0431: real time     59.0788

 eigenvalue-minimisations  :     0
 total energy-change (2. order) :-0.3935716E-04  (-0.9695593E-05)
 number of electron       8.0000000 magnetization 
 augmentation part       -0.0047154 magnetization 

 Free energy of the ion-electron system (eV)
  ---------------------------------------------------
  alpha Z        PSCENC =         0.02212312
  Ewald energy   TEWEN  =       172.96321032
  -Hartree energ DENC   =      -422.41096650
  -exchange      EXHF   =         0.00000000
  -V(xc)+E(xc)   XCENC  =        25.46085964
  PAW double counting   =      1912.21468557    -1910.58607279
  entropy T*S    EENTRO =        -0.00000000
  eigenvalues    EBANDS =      -100.70802443
  atomic energy  EATOM  =       304.92922975
  ---------------------------------------------------
  free energy    TOTEN  =       -18.11495531 eV

  energy without entropy =      -18.11495531  energy(sigma->0) =      -18.11495531


--------------------------------------------------------------------------------------------------------




--------------------------------------- Iteration      1(  17)  ---------------------------------------


    POTLOK:  cpu time     29.2373: real time     29.2467
    SETDIJ:  cpu time      0.0516: real time      0.0516
    TRIAL :  cpu time      0.1477: real time      0.1477
    CORREC:  cpu time     29.4067: real time     29.4167
    CHARGE:  cpu time      0.1169: real time      0.1173
    --------------------------------------------
      LOOP:  cpu time     58.9785: real time     59.0100

 eigenvalue-minimisations  :     0
 total energy-change (2. order) :-0.9992414E-05  (-0.3107831E-05)
 number of electron       8.0000000 magnetization 
 augmentation part       -0.0047063 magnetization 

 Free energy of the ion-electron system (eV)
  ---------------------------------------------------
  alpha Z        PSCENC =         0.02212312
  Ewald energy   TEWEN  =       172.96321032
  -Hartree energ DENC   =      -422.41161358
  -exchange      EXHF   =         0.00000000
  -V(xc)+E(xc)   XCENC  =        25.46102853
  PAW double counting   =      1911.96974878    -1910.34109918
  entropy T*S    EENTRO =        -0.00000000
  eigenvalues    EBANDS =      -100.70759304
  atomic energy  EATOM  =       304.92922975
  ---------------------------------------------------
  free energy    TOTEN  =       -18.11496530 eV

  energy without entropy =      -18.11496530  energy(sigma->0) =      -18.11496530


--------------------------------------------------------------------------------------------------------




--------------------------------------- Iteration      1(  18)  ---------------------------------------


    POTLOK:  cpu time     29.2039: real time     29.2133
    SETDIJ:  cpu time      0.0882: real time      0.0882
    TRIAL :  cpu time      0.1480: real time      0.1480
    CORREC:  cpu time     29.4767: real time     29.4866
    CHARGE:  cpu time      0.1180: real time      0.1181
    --------------------------------------------
      LOOP:  cpu time     59.0647: real time     59.0842

 eigenvalue-minimisations  :     0
 total energy-change (2. order) :-0.3017252E-05  (-0.9866152E-06)
 number of electron       8.0000000 magnetization 
 augmentation part       -0.0047056 magnetization 

 Free energy of the ion-electron system (eV)
  ---------------------------------------------------
  alpha Z        PSCENC =         0.02212312
  Ewald energy   TEWEN  =       172.96321032
  -Hartree energ DENC   =      -422.41678184
  -exchange      EXHF   =         0.00000000
  -V(xc)+E(xc)   XCENC  =        25.46143044
  PAW double counting   =      1912.06024371    -1910.43160356
  entropy T*S    EENTRO =        -0.00000000
  eigenvalues    EBANDS =      -100.70282026
  atomic energy  EATOM  =       304.92922975
  ---------------------------------------------------
  free energy    TOTEN  =       -18.11496832 eV

  energy without entropy =      -18.11496832  energy(sigma->0) =      -18.11496832


--------------------------------------------------------------------------------------------------------




--------------------------------------- Iteration      1(  19)  ---------------------------------------


    POTLOK:  cpu time     29.2504: real time     29.2604
    SETDIJ:  cpu time      0.0070: real time      0.0070
    TRIAL :  cpu time      0.1479: real time      0.1480
    CORREC:  cpu time     29.4124: real time     29.4224
    CHARGE:  cpu time      0.1180: real time      0.1180
    --------------------------------------------
      LOOP:  cpu time     58.9498: real time     58.9868

 eigenvalue-minimisations  :     0
 total energy-change (2. order) :-0.1038511E-05  (-0.3307017E-06)
 number of electron       8.0000000 magnetization 
 augmentation part       -0.0047052 magnetization 

 Free energy of the ion-electron system (eV)
  ---------------------------------------------------
  alpha Z        PSCENC =         0.02212312
  Ewald energy   TEWEN  =       172.96321032
  -Hartree energ DENC   =      -422.41708071
  -exchange      EXHF   =         0.00000000
  -V(xc)+E(xc)   XCENC  =        25.46151230
  PAW double counting   =      1912.41743717    -1910.78878740
  entropy T*S    EENTRO =        -0.00000000
  eigenvalues    EBANDS =      -100.70261393
  atomic energy  EATOM  =       304.92922975
  ---------------------------------------------------
  free energy    TOTEN  =       -18.11496936 eV

  energy without entropy =      -18.11496936  energy(sigma->0) =      -18.11496936


--------------------------------------------------------------------------------------------------------




--------------------------------------- Iteration      1(  20)  ---------------------------------------


    POTLOK:  cpu time     29.2237: real time     29.2339
    SETDIJ:  cpu time      0.0214: real time      0.0214
    TRIAL :  cpu time      0.1475: real time      0.1475
    CORREC:  cpu time     29.4177: real time     29.4274
    CHARGE:  cpu time      0.1182: real time      0.1182
    --------------------------------------------
      LOOP:  cpu time     58.9415: real time     58.9789

 eigenvalue-minimisations  :     0
 total energy-change (2. order) :-0.2959202E-06  (-0.1751987E-06)
 number of electron       8.0000000 magnetization 
 augmentation part       -0.0047049 magnetization 

 Free energy of the ion-electron system (eV)
  ---------------------------------------------------
  alpha Z        PSCENC =         0.02212312
  Ewald energy   TEWEN  =       172.96321032
  -Hartree energ DENC   =      -422.41685834
  -exchange      EXHF   =         0.00000000
  -V(xc)+E(xc)   XCENC  =        25.46154281
  PAW double counting   =      1912.67841412    -1911.04975300
  entropy T*S    EENTRO =        -0.00000000
  eigenvalues    EBANDS =      -100.70287844
  atomic energy  EATOM  =       304.92922975
  ---------------------------------------------------
  free energy    TOTEN  =       -18.11496965 eV

  energy without entropy =      -18.11496965  energy(sigma->0) =      -18.11496965


--------------------------------------------------------------------------------------------------------




--------------------------------------- Iteration      1(  21)  ---------------------------------------


    POTLOK:  cpu time     29.2996: real time     29.3093
    SETDIJ:  cpu time      0.0028: real time      0.0028
    TRIAL :  cpu time      0.1473: real time      0.1473
    CORREC:  cpu time     29.4338: real time     29.4437
    CHARGE:  cpu time      0.1173: real time      0.1173
    --------------------------------------------
      LOOP:  cpu time     59.0148: real time     59.0512

 eigenvalue-minimisations  :     0
 total energy-change (2. order) :-0.1306639E-06  (-0.9582339E-07)
 number of electron       8.0000000 magnetization 
 augmentation part       -0.0047047 magnetization 

 Free energy of the ion-electron system (eV)
  ---------------------------------------------------
  alpha Z        PSCENC =         0.02212312
  Ewald energy   TEWEN  =       172.96321032
  -Hartree energ DENC   =      -422.41704662
  -exchange      EXHF   =         0.00000000
  -V(xc)+E(xc)   XCENC  =        25.46158518
  PAW double counting   =      1912.87569257    -1911.24702445
  entropy T*S    EENTRO =        -0.00000000
  eigenvalues    EBANDS =      -100.70273966
  atomic energy  EATOM  =       304.92922975
  ---------------------------------------------------
  free energy    TOTEN  =       -18.11496978 eV

  energy without entropy =      -18.11496978  energy(sigma->0) =      -18.11496978


--------------------------------------------------------------------------------------------------------




--------------------------------------- Iteration      1(  22)  ---------------------------------------


    POTLOK:  cpu time     29.2408: real time     29.2498
    SETDIJ:  cpu time      0.0025: real time      0.0025
    TRIAL :  cpu time      0.1470: real time      0.1471
    CORREC:  cpu time     29.4250: real time     29.4360
    EDDIAG:  cpu time      0.0649: real time      0.0661
    CHARGE:  cpu time      0.1179: real time      0.1179
    --------------------------------------------
      LOOP:  cpu time     59.0145: real time     59.0502

 eigenvalue-minimisations  :     0
 total energy-change (2. order) :-0.4734602E-07  (-0.5743633E-07)
 number of electron       8.0000000 magnetization 
 augmentation part       -0.0047045 magnetization 

 Free energy of the ion-electron system (eV)
  ---------------------------------------------------
  alpha Z        PSCENC =         0.02212312
  Ewald energy   TEWEN  =       172.96321032
  -Hartree energ DENC   =      -422.41704468
  -exchange      EXHF   =         0.00000000
  -V(xc)+E(xc)   XCENC  =        25.46160746
  PAW double counting   =      1913.02085505    -1911.39218095
  entropy T*S    EENTRO =        -0.00000000
  eigenvalues    EBANDS =      -100.70276991
  atomic energy  EATOM  =       304.92922975
  ---------------------------------------------------
  free energy    TOTEN  =       -18.11496983 eV

  energy without entropy =      -18.11496983  energy(sigma->0) =      -18.11496983


--------------------------------------------------------------------------------------------------------


  average scaling for gradient   1.3035


 average (electrostatic) potential at core
  the test charge radii are     0.4325  0.5902
  (the norm of the test charge is              1.0000)
       1 -47.0685       2 -47.0688       3 -47.0692       4-103.4288



 E-fermi :  -6.2095     XC(G=0):  -0.2174     alpha+bet : -0.0217

 Fermi energy:        -6.2094580531

 k-point     1 :       0.0000    0.0000    0.0000
  band No.  band energies     occupation 
      1     -21.2216      2.00000
      2     -11.4060      2.00000
      3     -11.4052      2.00000
      4      -6.3186      2.00000
      5      -1.6948      0.00000
      6      -1.1798      0.00000
      7      -1.0237      0.00000
      8      -0.9928      0.00000


--------------------------------------------------------------------------------------------------------


 soft charge-density along one line, spin component           1
         0         1         2         3         4         5         6         7         8         9
 total charge-density along one line

 pseudopotential strength for first ion, spin component:           1
 -2.538  -5.396   0.000  -0.000   0.000
 -5.396 -11.448   0.000  -0.000   0.000
  0.000   0.000  -1.390  -0.002   0.002
 -0.000  -0.000  -0.002  -1.388  -0.005
  0.000   0.000   0.002  -0.005  -1.384
 total augmentation occupancy for first ion, spin component:           1
  3.655  -0.573  -0.085   0.140  -0.236
 -0.573   0.109   0.014  -0.022   0.038
 -0.085   0.014   0.006  -0.001   0.005
  0.140  -0.022  -0.001   0.010  -0.007
 -0.236   0.038   0.005  -0.007   0.017


------------------------ aborting loop because EDIFF is reached ----------------------------------------


    FORLOC:  cpu time      0.0287: real time      0.0287
    FORNL :  cpu time      0.0084: real time      0.0086
    FORCOR:  cpu time     29.1747: real time     29.1838
    OFIELD:  cpu time      0.0068: real time      0.0068

 VOLUME and BASIS-vectors are now :
 -----------------------------------------------------------------------------
  energy-cutoff  :     1000.00
  volume of cell :     8000.00
      direct lattice vectors                 reciprocal lattice vectors
    20.000000000  0.000000000  0.000000000     0.050000000  0.000000000  0.000000000
     0.000000000 20.000000000  0.000000000     0.000000000  0.050000000  0.000000000
     0.000000000  0.000000000 20.000000000     0.000000000  0.000000000  0.050000000

  length of vectors
    20.000000000 20.000000000 20.000000000     0.050000000  0.050000000  0.050000000


 FORCES acting on ions:
    Electron-Ion                     Ewald-Force                    Non-Local-Force
 -----------------------------------------------------------------------------------------------
   -.574E+02 -.197E+02 0.362E+02   0.633E+02 0.218E+02 -.398E+02   -.592E+01 -.208E+01 0.362E+01
   -.197E+02 0.362E+02 -.574E+02   0.218E+02 -.398E+02 0.633E+02   -.208E+01 0.362E+01 -.592E+01
   0.362E+02 -.574E+02 -.197E+02   -.398E+02 0.633E+02 0.218E+02   0.362E+01 -.592E+01 -.208E+01
   0.268E+02 0.268E+02 0.268E+02   -.453E+02 -.453E+02 -.453E+02   0.188E+02 0.188E+02 0.188E+02
 -----------------------------------------------------------------------------------------------
   -.144E+02 -.144E+02 -.144E+02   0.000E+00 0.711E-14 0.000E+00   0.144E+02 0.144E+02 0.144E+02


 POSITION                                       TOTAL-FORCE (eV/Angst)
 -----------------------------------------------------------------------------------
     10.66327     10.12950      9.33673         0.003345      0.002569      0.000157
     10.12951      9.33673     10.66327         0.002503     -0.000093      0.004621
      9.33673     10.66327     10.12951        -0.001178      0.006215      0.003629
      9.82044      9.82050      9.82051        -0.004670     -0.008691     -0.008407
 -----------------------------------------------------------------------------------
    total drift:                               -0.001038     -0.001033     -0.000919


--------------------------------------------------------------------------------------------------------



  FREE ENERGIE OF THE ION-ELECTRON SYSTEM (eV)
  ---------------------------------------------------
  free  energy   TOTEN  =       -18.11496983 eV

  energy  without entropy=      -18.11496983  energy(sigma->0) =      -18.11496983



--------------------------------------------------------------------------------------------------------


    POTLOK:  cpu time     29.2382: real time     29.2480


--------------------------------------------------------------------------------------------------------


 stress matrix after NEB project (eV)
      0.00000      0.00000      0.00000
      0.00000      0.00000      0.00000
      0.00000      0.00000      0.00000
  FORCES: max atom, RMS     0.012962    0.008165
  FORCE total and by dimension    0.016329    0.008691
  Stress total and by dimension    0.000000    0.000000
     LOOP+:  cpu time   1095.2530: real time   1095.8559
    4ORBIT:  cpu time      0.0000: real time      0.0000

 total amount of memory used by VASP MPI-rank0   113744. kBytes
=======================================================================

   base      :      30000. kBytes
   nonl-proj :       1724. kBytes
   fftplans  :      29139. kBytes
   grid      :      52019. kBytes
   one-center:          1. kBytes
   wavefun   :        861. kBytes

  
  
 General timing and accounting informations for this job:
 ========================================================
  
                  Total CPU time used (sec):     1107.774
                            User time (sec):     1094.714
                          System time (sec):       13.060
                         Elapsed time (sec):     1111.337
  
                   Maximum memory used (kb):      782660.
                   Average memory used (kb):          N/A
  
                          Minor page faults:       308279
                          Major page faults:         1179
                 Voluntary context switches:         3365
