 vasp.6.4.1 05Apr23 (build Jun  6 2023 14:46:38) gamma-only                      
 executed on        HPECrayEX_GCC date 2024.08.21  00:04:51
 running  256 mpi-ranks, with    1 threads/rank, on    2 nodes
 distrk:  each k-point on  256 cores,    1 groups
 distr:  one band on NCORE=  64 cores,    4 groups


--------------------------------------------------------------------------------------------------------


 INCAR:
   ALGO = Conjugate
   NPAR = 4
   ISMEAR = 0
   SIGMA = 0.01
   PREC = Accurate
   EDIFF = 1E-7
   ENCUT = 1000
   ISIF = 0
   GGA = RE
   LUSE_VDW = .TRUE.
   AGGAC = 0.0000
   LASPH = .TRUE.
   LWAVE = .FALSE.
   LCHARG = .FALSE.

 POTCAR:    PAW_PBE H_h 06Feb2004                 
 POTCAR:    PAW_PBE N_h 06Feb2004                 
 -----------------------------------------------------------------------------
|                                                                             |
|               ----> ADVICE to this user running VASP <----                  |
|                                                                             |
|     You have switched on vdW-DFT.                                           |
|     This routine was written and supplied by Jiri Klimes. We recommend      |
|     that you carefully read and cite the following publications:            |
|       J. Klimes, D.R. Bowler, A. Michelides                                 |
|          J. Phys.: Cond Matt. 22 022201 (2010)                              |
|       J. Klimes, D.R. Bowler, A. Michelides                                 |
|          Phys. Rev. B. 83, 195131 (2011)                                    |
|     and references therein.                                                 |
|                                                                             |
 -----------------------------------------------------------------------------

 POTCAR:    PAW_PBE H_h 06Feb2004                 
   VRHFIN =H: ultrasoft test                                                                        
   LEXCH  = PE                                                                                      
   EATOM  =    12.4884 eV,    0.9179 Ry                                                             
                                                                                                    
   TITEL  = PAW_PBE H_h 06Feb2004                                                                   
   LULTRA =        F    use ultrasoft PP ?                                                          
   IUNSCR =        0    unscreen: 0-lin 1-nonlin 2-no                                               
   RPACOR =    0.000    partial core radius                                                         
   POMASS =    1.000; ZVAL   =    1.000    mass and valenz                                          
   RCORE  =    0.800    outmost cutoff radius                                                       
   RWIGS  =    0.700; RWIGS  =    0.370    wigner-seitz radius (au A)                               
   ENMAX  =  700.000; ENMIN  =  350.000 eV                                                          
   RCLOC  =    0.701    cutoff for local pot                                                        
   LCOR   =        T    correct aug charges                                                         
   LPAW   =        T    paw PP                                                                      
   EAUG   = 1000.000                                                                                
   RMAX   =    0.819    core radius for proj-oper                                                   
   RAUG   =    1.000    factor for augmentation sphere                                              
   RDEP   =    0.817    radius for radial grids                                                     
   RDEPT  =    0.817    core radius for aug-charge                                                  
                                                                                                    
   Atomic configuration                                                                             
    2 entries                                                                                       
     n  l   j            E        occ.                                                              
     1  0  0.50        -6.4927   1.0000                                                             
     2  1  0.50        -3.4015   0.0000                                                             
   Description                                                                                      
     l       E           TYP  RCUT    TYP  RCUT                                                     
     0     -6.4927493     23  0.800                                                                 
     0      6.8029130     23  0.800                                                                 
     1     -6.8029130     23  0.800                                                                 
  local pseudopotential read in
  atomic valenz-charges read in
  non local Contribution for L=           0  read in
    real space projection operators read in
  non local Contribution for L=           0  read in
    real space projection operators read in
  non local Contribution for L=           1  read in
    real space projection operators read in
    PAW grid and wavefunctions read in

   number of l-projection  operators is LMAX  =           3
   number of lm-projection operators is LMMAX =           5

 POTCAR:    PAW_PBE N_h 06Feb2004                 
   VRHFIN =N: s2p3                                                                                  
   LEXCH  = PE                                                                                      
   EATOM  =   264.5486 eV,   19.4438 Ry                                                             
                                                                                                    
   TITEL  = PAW_PBE N_h 06Feb2004                                                                   
   LULTRA =        F    use ultrasoft PP ?                                                          
   IUNSCR =        1    unscreen: 0-lin 1-nonlin 2-no                                               
   RPACOR =    0.800    partial core radius                                                         
   POMASS =   14.001; ZVAL   =    5.000    mass and valenz                                          
   RCORE  =    1.100    outmost cutoff radius                                                       
   RWIGS  =    1.480; RWIGS  =    0.783    wigner-seitz radius (au A)                               
   ENMAX  =  700.000; ENMIN  =  500.000 eV                                                          
   ICORE  =        2    local potential                                                             
   LCOR   =        T    correct aug charges                                                         
   LPAW   =        T    paw PP                                                                      
   EAUG   =  904.640                                                                                
   DEXC   =    0.000                                                                                
   RMAX   =    1.127    core radius for proj-oper                                                   
   RAUG   =    1.300    factor for augmentation sphere                                              
   RDEP   =    1.115    radius for radial grids                                                     
   RDEPT  =    1.106    core radius for aug-charge                                                  
                                                                                                    
   Atomic configuration                                                                             
    4 entries                                                                                       
     n  l   j            E        occ.                                                              
     1  0  0.50      -384.7179   2.0000                                                             
     2  0  0.50       -18.5828   2.0000                                                             
     2  1  0.50        -7.0898   3.0000                                                             
     3  2  1.50        -6.8029   0.0000                                                             
   Description                                                                                      
     l       E           TYP  RCUT    TYP  RCUT                                                     
     0    -18.5828117     23  1.100                                                                 
     0    -15.0750597     23  1.100                                                                 
     1     -7.0897851     23  1.100                                                                 
     1     -1.9663412     23  1.100                                                                 
     2     -6.8029130      7  1.100                                                                 
  local pseudopotential read in
  partial core-charges read in
  partial kinetic energy density read in
  kinetic energy density of atom read in
  atomic valenz-charges read in
  non local Contribution for L=           0  read in
    real space projection operators read in
  non local Contribution for L=           0  read in
    real space projection operators read in
  non local Contribution for L=           1  read in
    real space projection operators read in
  non local Contribution for L=           1  read in
    real space projection operators read in
    PAW grid and wavefunctions read in

   number of l-projection  operators is LMAX  =           4
   number of lm-projection operators is LMMAX =           8

 -----------------------------------------------------------------------------
|                                                                             |
|               ----> ADVICE to this user running VASP <----                  |
|                                                                             |
|     You enforced a specific xc type in the INCAR file but a different       |
|     type was found in the POTCAR file.                                      |
|     I HOPE YOU KNOW WHAT YOU ARE DOING!                                     |
|                                                                             |
 -----------------------------------------------------------------------------

  PAW_PBE H_h 06Feb2004                 :
 energy of atom  1       EATOM=  -12.4884
 kinetic energy error for atom=    0.0006 (will be added to EATOM!!)
  PAW_PBE N_h 06Feb2004                 :
 energy of atom  2       EATOM= -264.5486
 kinetic energy error for atom=    0.0081 (will be added to EATOM!!)


 POSCAR:  H  N
  positions in cartesian coordinates
  No initial velocities read in
 exchange correlation table for  LEXCH =       40
   RHO(1)=    0.500       N(1)  =     2000
   RHO(2)=  100.500       N(2)  =     4000

 VTST: version 4.1, (05/19/21)

 CHAIN: initializing optimizer
 
 OPT: Using VASP Dynamics algorithm
 CHAIN: Read ICHAIN            0

 POSCAR:  H  N
  positions in cartesian coordinates
  No initial velocities read in



--------------------------------------------------------------------------------------------------------


 ion  position               nearest neighbor table
   1  0.533  0.506  0.467-   4 1.02
   2  0.506  0.467  0.533-   4 1.02
   3  0.467  0.533  0.506-   4 1.02
   4  0.491  0.491  0.491-   3 1.02   2 1.02   1 1.02

  LATTYP: Found a simple cubic cell.
 ALAT       =    20.0000000000
  
  Lattice vectors:
  
 A1 = (  20.0000000000,   0.0000000000,   0.0000000000)
 A2 = (   0.0000000000,  20.0000000000,   0.0000000000)
 A3 = (   0.0000000000,   0.0000000000,  20.0000000000)


Analysis of symmetry for initial positions (statically):
=====================================================================
 Subroutine PRICEL returns:
 Original cell was already a primitive cell.
 

 Routine SETGRP: Setting up the symmetry group for a 
 simple cubic supercell.


 Subroutine GETGRP returns: Found  3 space group operations
 (whereof  3 operations were pure point group operations)
 out of a pool of 48 trial point group operations.


The static configuration has the point symmetry C_3 .


Analysis of symmetry for dynamics (positions and initial velocities):
=====================================================================
 Subroutine PRICEL returns:
 Original cell was already a primitive cell.
 

 Routine SETGRP: Setting up the symmetry group for a 
 simple cubic supercell.


 Subroutine GETGRP returns: Found  3 space group operations
 (whereof  3 operations were pure point group operations)
 out of a pool of 48 trial point group operations.


The dynamic configuration has the point symmetry C_3 .


 Subroutine INISYM returns: Found  3 space group operations
 (whereof  3 operations are pure point group operations),
 and found     1 'primitive' translations


----------------------------------------------------------------------------------------

                                     Primitive cell                                     

  volume of cell :    8000.0000

  direct lattice vectors                    reciprocal lattice vectors
    20.000000000  0.000000000  0.000000000     0.050000000  0.000000000  0.000000000
     0.000000000 20.000000000  0.000000000     0.000000000  0.050000000  0.000000000
     0.000000000  0.000000000 20.000000000     0.000000000  0.000000000  0.050000000

  length of vectors
    20.000000000 20.000000000 20.000000000     0.050000000  0.050000000  0.050000000

  position of ions in fractional coordinates (direct lattice)
     0.533163250  0.506474750  0.466836500
     0.506475750  0.466836250  0.533163500
     0.466836750  0.533163750  0.506475500
     0.491021750  0.491025250  0.491025500

  ion indices of the primitive-cell ions
   primitive index   ion index
                 1           1
                 2           2
                 3           3
                 4           4

----------------------------------------------------------------------------------------



 KPOINTS: auto                                    

Automatic generation of k-mesh.
 Grid dimensions read from file:
 generate k-points for:    1    1    1

 Generating k-lattice:

  Cartesian coordinates                     Fractional coordinates (reciprocal lattice)
     0.050000000  0.000000000  0.000000000     1.000000000  0.000000000  0.000000000
     0.000000000  0.050000000  0.000000000     0.000000000  1.000000000  0.000000000
     0.000000000  0.000000000  0.050000000     0.000000000  0.000000000  1.000000000

  Length of vectors
     0.050000000  0.050000000  0.050000000

  Shift w.r.t. Gamma in fractional coordinates (k-lattice)
     0.000000000  0.000000000  0.000000000

 
 Subroutine IBZKPT returns following result:
 ===========================================
 
 Found      1 irreducible k-points:
 
 Following reciprocal coordinates:
            Coordinates               Weight
  0.000000  0.000000  0.000000      1.000000
 
 Following cartesian coordinates:
            Coordinates               Weight
  0.000000  0.000000  0.000000      1.000000
 


--------------------------------------------------------------------------------------------------------




 Dimension of arrays:
   k-points           NKPTS =      1   k-points in BZ     NKDIM =      1   number of bands    NBANDS=      8
   number of dos      NEDOS =    301   number of ions     NIONS =      4
   non local maximal  LDIM  =      4   non local SUM 2l+1 LMDIM =      8
   total plane-waves  NPLWV = ******
   max r-space proj   IRMAX =      1   max aug-charges    IRDMAX=   8421
   dimension x,y,z NGX =   210 NGY =  210 NGZ =  210
   dimension x,y,z NGXF=   420 NGYF=  420 NGZF=  420
   support grid    NGXF=   420 NGYF=  420 NGZF=  420
   ions per type =               3   1
   NGX,Y,Z   is equivalent  to a cutoff of  17.46, 17.46, 17.46 a.u.
   NGXF,Y,Z  is equivalent  to a cutoff of  34.91, 34.91, 34.91 a.u.

 SYSTEM =  unknown system                          
 POSCAR =   H  N                                   

 Startparameter for this run:
   NWRITE =      2    write-flag & timer
   PREC   = accura    normal or accurate (medium, high low for compatibility)
   ISTART =      0    job   : 0-new  1-cont  2-samecut
   ICHARG =      2    charge: 1-file 2-atom 10-const
   ISPIN  =      1    spin polarized calculation?
   LNONCOLLINEAR =      F non collinear calculations
   LSORBIT =      F    spin-orbit coupling
   INIWAV =      1    electr: 0-lowe 1-rand  2-diag
   LASPH  =      T    aspherical Exc in radial PAW
 Electronic Relaxation 1
   ENCUT  = 1000.0 eV  73.50 Ry    8.57 a.u.  51.57 51.57 51.57*2*pi/ulx,y,z
   ENINI  = 1000.0     initial cutoff
   ENAUG  = 1000.0 eV  augmentation charge cutoff
   NELM   =     60;   NELMIN=  2; NELMDL= -5     # of ELM steps 
   EDIFF  = 0.1E-06   stopping-criterion for ELM
   LREAL  =      F    real-space projection
   NLSPLINE    = F    spline interpolate recip. space projectors
   LCOMPAT=      F    compatible to vasp.4.4
   GGA_COMPAT  = T    GGA compatible to vasp.4.4-vasp.4.6
   LMAXPAW     = -100 max onsite density
   LMAXMIX     =    2 max onsite mixed and CHGCAR
   VOSKOWN=      0    Vosko Wilk Nusair interpolation
   ROPT   =    0.00000   0.00000
 Ionic relaxation
   EDIFFG = 0.1E-05   stopping-criterion for IOM
   NSW    =      0    number of steps for IOM
   NBLOCK =      1;   KBLOCK =      1    inner block; outer block 
   IBRION =     -1    ionic relax: 0-MD 1-quasi-New 2-CG
   NFREE  =      0    steps in history (QN), initial steepest desc. (CG)
   ISIF   =      0    stress and relaxation
   IWAVPR =     10    prediction:  0-non 1-charg 2-wave 3-comb
   ISYM   =      2    0-nonsym 1-usesym 2-fastsym
   LCORR  =      T    Harris-Foulkes like correction to forces

   POTIM  = 0.5000    time-step for ionic-motion
   TEIN   =    0.0    initial temperature
   TEBEG  =    0.0;   TEEND  =   0.0 temperature during run
   SMASS  =  -3.00    Nose mass-parameter (am)
   estimated Nose-frequenzy (Omega)   =  0.10E-29 period in steps = 0.13E+47 mass=  -0.914E-26a.u.
   SCALEE = 1.0000    scale energy and forces
   NPACO  =    256;   APACO  = 10.0  distance and # of slots for P.C.
   PSTRESS=    0.0 pullay stress

  Mass of Ions in am
   POMASS =   1.00 14.00
  Ionic Valenz
   ZVAL   =   1.00  5.00
  Atomic Wigner-Seitz radii
   RWIGS  =  -1.00 -1.00
  virtual crystal weights 
   VCA    =   1.00  1.00
   NELECT =       8.0000    total number of electrons
   NUPDOWN=      -1.0000    fix difference up-down

 DOS related values:
   EMIN   =  10.00;   EMAX   =-10.00  energy-range for DOS
   EFERMI =   0.00;   METHOD = LEGACY      
   ISMEAR =     0;   SIGMA  =   0.01  broadening in eV -4-tet -1-fermi 0-gaus

 Electronic relaxation 2 (details)
   IALGO  =     58    algorithm
   LDIAG  =      T    sub-space diagonalisation (order eigenvalues)
   LSUBROT=      F    optimize rotation matrix (better conditioning)
   TURBO    =      0    0=normal 1=particle mesh
   IRESTART =      0    0=no restart 2=restart with 2 vectors
   NREBOOT  =      0    no. of reboots
   NMIN     =      0    reboot dimension
   EREF     =   0.00    reference energy to select bands
   IMIX   =      4    mixing-type and parameters
     AMIX     =   0.40;   BMIX     =  1.00
     AMIX_MAG =   1.60;   BMIX_MAG =  1.00
     AMIN     =   0.10
     WC   =   100.;   INIMIX=   1;  MIXPRE=   1;  MAXMIX= -45

 Intra band minimization:
   WEIMIN = 0.0000     energy-eigenvalue tresh-hold
   EBREAK =  0.31E-08  absolut break condition
   DEPER  =   0.30     relativ break condition  

   TIME   =   0.40     timestep for ELM

  volume/ion in A,a.u.               =    2000.00     13496.67
  Fermi-wavevector in a.u.,A,eV,Ry     =   0.163710  0.309367  0.364649  0.026801
  Thomas-Fermi vector in A             =   0.862763

 Write flags
   LWAVE        =      F    write WAVECAR
   LDOWNSAMPLE  =      F    k-point downsampling of WAVECAR
   LCHARG       =      F    write CHGCAR
   LVTOT        =      F    write LOCPOT, total local potential
   LVHAR        =      F    write LOCPOT, Hartree potential only
   LELF         =      F    write electronic localiz. function (ELF)
   LORBIT       =      0    0 simple, 1 ext, 2 COOP (PROOUT), +10 PAW based schemes


 Dipole corrections
   LMONO  =      F    monopole corrections only (constant potential shift)
   LDIPOL =      F    correct potential (dipole corrections)
   IDIPOL =      0    1-x, 2-y, 3-z, 4-all directions 
   EPSILON=  1.0000000 bulk dielectric constant

 Exchange correlation treatment:
   GGA     =    RE    GGA type
   LEXCH   =    40    internal setting for exchange type
   LIBXC   =     F    Libxc                    
   VOSKOWN =     0    Vosko Wilk Nusair interpolation
   LHFCALC =     F    Hartree Fock is set to
   LHFONE  =     F    Hartree Fock one center treatment
   AEXX    =    0.0000 exact exchange contribution

 vdW DFT:
   LUSE_VDW   =     T    switch on vdW DFT
   IVDW_NL    =     1    kernel type
   LSPIN_VDW  =     F    use spin-polarized vdW DFT
   Zab_VDW    =-.8491    correlation parameter
   PARAM1     =0.1234
   PARAM2     =1.0000
   PARAM3     =0.0000
   -- rVV10 --
   BPARAM     = 6.3000
   CPARAM     = 0.0093

 Linear response parameters
   LEPSILON=     F    determine dielectric tensor
   LRPA    =     F    only Hartree local field effects (RPA)
   LNABLA  =     F    use nabla operator in PAW spheres
   LVEL    =     F    velocity operator in full k-point grid
   CSHIFT  =0.1000    complex shift for real part using Kramers Kronig
   OMEGAMAX=  -1.0    maximum frequency
   DEG_THRESHOLD= 0.2000000E-02 threshold for treating states as degnerate
   RTIME   =   -0.100 relaxation time in fs
  (WPLASMAI=    0.000 imaginary part of plasma frequency in eV, 0.658/RTIME)
   DFIELD  = 0.0000000 0.0000000 0.0000000 field for delta impulse in time

  Optional k-point grid parameters
   LKPOINTS_OPT  =     F    use optional k-point grid
   KPOINTS_OPT_MODE=     1    mode for optional k-point grid

 Orbital magnetization related:
   ORBITALMAG=     F  switch on orbital magnetization
   LCHIMAG   =     F  perturbation theory with respect to B field
   DQ        =  0.001000  dq finite difference perturbation B field
   LLRAUG    =     F  two centre corrections for induced B field
   LBONE     =     F  B-component reconstruction in AE one-centre
   LVGVCALC  =     T  calculate vGv susceptibility
   LVGVAPPL  =     F  apply vGv susceptibility instead of pGv for G=0

 Random number generation:
   RANDOM_GENERATOR = DEFAULT
   PCG_SEED         = not used


--------------------------------------------------------------------------------------------------------


 Static calculation
 charge density and potential will be updated during run
 non-spin polarized calculation
 Conjugate gradient for all bands (Freysoldt, et al. PRB 79, 241103 (2009))
 preconditioned conjugated gradient                                        
 perform sub-space diagonalisation
    before iterative eigenvector-optimisation
 modified Broyden-mixing scheme, WC =      100.0
 initial mixing is a Kerker type mixing with AMIX =  0.4000 and BMIX =      1.0000
 Hartree-type preconditioning will be used
 using additional bands            4
 reciprocal scheme for non local part
 use partial core corrections
 no Harris-corrections to forces 
 use gradient corrections 
 use of overlap-Matrix (Vanderbilt PP)
 Gauss-broadening in eV      SIGMA  =   0.01


--------------------------------------------------------------------------------------------------------


  energy-cutoff  :     1000.00
  volume of cell :     8000.00
      direct lattice vectors                 reciprocal lattice vectors
    20.000000000  0.000000000  0.000000000     0.050000000  0.000000000  0.000000000
     0.000000000 20.000000000  0.000000000     0.000000000  0.050000000  0.000000000
     0.000000000  0.000000000 20.000000000     0.000000000  0.000000000  0.050000000

  length of vectors
    20.000000000 20.000000000 20.000000000     0.050000000  0.050000000  0.050000000



 k-points in units of 2pi/SCALE and weight: auto                                    
   0.00000000  0.00000000  0.00000000       1.000

 k-points in reciprocal lattice and weights: auto                                    
   0.00000000  0.00000000  0.00000000       1.000

 position of ions in fractional coordinates (direct lattice) 
   0.53316325  0.50647475  0.46683650
   0.50647575  0.46683625  0.53316350
   0.46683675  0.53316375  0.50647550
   0.49102175  0.49102525  0.49102550

 position of ions in cartesian coordinates  (Angst):
  10.66326500 10.12949500  9.33673000
  10.12951500  9.33672500 10.66327000
   9.33673500 10.66327500 10.12951000
   9.82043500  9.82050500  9.82051000



--------------------------------------------------------------------------------------------------------


 use parallel FFT for orbitals z direction half grid
 k-point   1 :   0.0000 0.0000 0.0000  plane waves:  287166

 maximum and minimum number of plane-waves per node :      4498     4479

 maximum number of plane-waves:    287166
 maximum index in each direction: 
   IXMAX=   51   IYMAX=   51   IZMAX=   51
   IXMIN=  -51   IYMIN=  -51   IZMIN=    0


 parallel 3D FFT for wavefunctions:
    minimum data exchange during FFTs selected (reduces bandwidth)
 parallel 3D FFT for charge:
    minimum data exchange during FFTs selected (reduces bandwidth)


 total amount of memory used by VASP MPI-rank0    73259. kBytes
=======================================================================

   base      :      30000. kBytes
   nonl-proj :        860. kBytes
   fftplans  :      15076. kBytes
   grid      :      26893. kBytes
   one-center:          1. kBytes
   wavefun   :        429. kBytes

     INWAV:  cpu time      0.0001: real time      0.0004
 Broyden mixing: mesh for mixing (old mesh)
   NGX =103   NGY =103   NGZ =103
  (NGX  =420   NGY  =420   NGZ  =420)
  gives a total of ****** points

 initial charge density was supplied:
 charge density of overlapping atoms calculated
 number of electron       8.0000000 magnetization 
 keeping initial charge density in first step


--------------------------------------------------------------------------------------------------------


 Maximum index for augmentation-charges            0 (set IRDMAX)


--------------------------------------------------------------------------------------------------------


 First call to EWALD:  gamma=   0.089
 Maximum number of real-space cells 3x 3x 3
 Maximum number of reciprocal cells 3x 3x 3

    FEWALD:  cpu time      0.0035: real time      0.0036


--------------------------------------- Ionic step        1  -------------------------------------------




--------------------------------------- Iteration      1(   1)  ---------------------------------------


vdW kernel read from vdw_kernel.bindat
  0.0000  0.2424  0.5071  0.7962  1.1119  1.4567  1.8333  2.2446  2.6937  3.1842
  3.7199  4.3049  4.9438  5.6415  6.4036  7.2358  8.1446  9.1372 10.2212 11.4050
 12.6979 14.1099 15.6519 17.3360 19.1751 21.1837 23.3773 25.7729 28.3892 31.2465
 34.3669 37.7748 41.4965 45.5611 50.0000

    POTLOK:  cpu time     14.7823: real time     14.7931
    SETDIJ:  cpu time      0.0706: real time      0.0706
    TRIAL :  cpu time      0.1508: real time      0.1516
    CORREC:  cpu time      0.0015: real time      0.0015
    --------------------------------------------
      LOOP:  cpu time     15.0124: real time     15.0242

 eigenvalue-minimisations  :    24
 total energy-change (2. order) : 0.7474787E+02  (-0.1503723E+03)
 number of electron       8.0000000 magnetization 
 augmentation part        8.0000000 magnetization 

 Free energy of the ion-electron system (eV)
  ---------------------------------------------------
  alpha Z        PSCENC =         0.02212312
  Ewald energy   TEWEN  =       172.96321032
  -Hartree energ DENC   =      -381.98205141
  -exchange      EXHF   =         0.00000000
  -V(xc)+E(xc)   XCENC  =        22.65311729
  PAW double counting   =       210.03003256     -208.48713686
  entropy T*S    EENTRO =        -0.00000000
  eigenvalues    EBANDS =       -46.40916765
  atomic energy  EATOM  =       305.95774663
  ---------------------------------------------------
  free energy    TOTEN  =        74.74787399 eV

  energy without entropy =       74.74787399  energy(sigma->0) =       74.74787399


--------------------------------------------------------------------------------------------------------




--------------------------------------- Iteration      1(   2)  ---------------------------------------


    TRIAL :  cpu time      0.1659: real time      0.1659
    CORREC:  cpu time      0.0001: real time      0.0001
    --------------------------------------------
      LOOP:  cpu time      0.1781: real time      0.1918

 eigenvalue-minimisations  :    32
 total energy-change (2. order) :-0.4073644E+02  (-0.4073644E+02)
 number of electron       8.0000000 magnetization 
 augmentation part        8.0000000 magnetization 

 Free energy of the ion-electron system (eV)
  ---------------------------------------------------
  alpha Z        PSCENC =         0.02212312
  Ewald energy   TEWEN  =       172.96321032
  -Hartree energ DENC   =      -381.98205141
  -exchange      EXHF   =         0.00000000
  -V(xc)+E(xc)   XCENC  =        22.65311729
  PAW double counting   =       210.03003256     -208.48713686
  entropy T*S    EENTRO =        -0.00000000
  eigenvalues    EBANDS =       -87.14560933
  atomic energy  EATOM  =       305.95774663
  ---------------------------------------------------
  free energy    TOTEN  =        34.01143231 eV

  energy without entropy =       34.01143231  energy(sigma->0) =       34.01143231


--------------------------------------------------------------------------------------------------------




--------------------------------------- Iteration      1(   3)  ---------------------------------------


    TRIAL :  cpu time      0.1346: real time      0.1346
    CORREC:  cpu time      0.0001: real time      0.0001
    --------------------------------------------
      LOOP:  cpu time      0.1506: real time      0.1628

 eigenvalue-minimisations  :    24
 total energy-change (2. order) :-0.5016543E+02  (-0.5016543E+02)
 number of electron       8.0000000 magnetization 
 augmentation part        8.0000000 magnetization 

 Free energy of the ion-electron system (eV)
  ---------------------------------------------------
  alpha Z        PSCENC =         0.02212312
  Ewald energy   TEWEN  =       172.96321032
  -Hartree energ DENC   =      -381.98205141
  -exchange      EXHF   =         0.00000000
  -V(xc)+E(xc)   XCENC  =        22.65311729
  PAW double counting   =       210.03003256     -208.48713686
  entropy T*S    EENTRO =        -0.00000000
  eigenvalues    EBANDS =      -137.31103561
  atomic energy  EATOM  =       305.95774663
  ---------------------------------------------------
  free energy    TOTEN  =       -16.15399397 eV

  energy without entropy =      -16.15399397  energy(sigma->0) =      -16.15399397


--------------------------------------------------------------------------------------------------------




--------------------------------------- Iteration      1(   4)  ---------------------------------------


    TRIAL :  cpu time      0.0995: real time      0.0995
    CORREC:  cpu time      0.0001: real time      0.0001
    --------------------------------------------
      LOOP:  cpu time      0.1282: real time      0.1285

 eigenvalue-minimisations  :    16
 total energy-change (2. order) :-0.5053161E+01  (-0.5053161E+01)
 number of electron       8.0000000 magnetization 
 augmentation part        8.0000000 magnetization 

 Free energy of the ion-electron system (eV)
  ---------------------------------------------------
  alpha Z        PSCENC =         0.02212312
  Ewald energy   TEWEN  =       172.96321032
  -Hartree energ DENC   =      -381.98205141
  -exchange      EXHF   =         0.00000000
  -V(xc)+E(xc)   XCENC  =        22.65311729
  PAW double counting   =       210.03003256     -208.48713686
  entropy T*S    EENTRO =        -0.00000000
  eigenvalues    EBANDS =      -142.36419634
  atomic energy  EATOM  =       305.95774663
  ---------------------------------------------------
  free energy    TOTEN  =       -21.20715470 eV

  energy without entropy =      -21.20715470  energy(sigma->0) =      -21.20715470


--------------------------------------------------------------------------------------------------------




--------------------------------------- Iteration      1(   5)  ---------------------------------------


    TRIAL :  cpu time      0.1708: real time      0.1708
    CORREC:  cpu time      0.0001: real time      0.0001
    CHARGE:  cpu time      2.1952: real time      2.1965
    --------------------------------------------
      LOOP:  cpu time      2.3785: real time      2.3976

 eigenvalue-minimisations  :    32
 total energy-change (2. order) :-0.1815688E+00  (-0.1815688E+00)
 number of electron       8.0000000 magnetization 
 augmentation part        0.0168480 magnetization 

 Free energy of the ion-electron system (eV)
  ---------------------------------------------------
  alpha Z        PSCENC =         0.02212312
  Ewald energy   TEWEN  =       172.96321032
  -Hartree energ DENC   =      -381.98205141
  -exchange      EXHF   =         0.00000000
  -V(xc)+E(xc)   XCENC  =        22.65311729
  PAW double counting   =       210.03003256     -208.48713686
  entropy T*S    EENTRO =        -0.00000000
  eigenvalues    EBANDS =      -142.54576510
  atomic energy  EATOM  =       305.95774663
  ---------------------------------------------------
  free energy    TOTEN  =       -21.38872346 eV

  energy without entropy =      -21.38872346  energy(sigma->0) =      -21.38872346


--------------------------------------------------------------------------------------------------------




--------------------------------------- Iteration      1(   6)  ---------------------------------------


    POTLOK:  cpu time     14.2419: real time     14.2454
    SETDIJ:  cpu time      0.0666: real time      0.0666
    TRIAL :  cpu time      0.0915: real time      0.0935
    CORREC:  cpu time     16.5055: real time     16.5105
    CHARGE:  cpu time      2.2085: real time      2.2095
    --------------------------------------------
      LOOP:  cpu time     33.1263: real time     33.1539

 eigenvalue-minimisations  :     0
 total energy-change (2. order) : 0.7756426E+01  (-0.3893378E+01)
 number of electron       8.0000000 magnetization 
 augmentation part        0.0027664 magnetization 

 Free energy of the ion-electron system (eV)
  ---------------------------------------------------
  alpha Z        PSCENC =         0.02212312
  Ewald energy   TEWEN  =       172.96321032
  -Hartree energ DENC   =      -472.88938290
  -exchange      EXHF   =         0.00000000
  -V(xc)+E(xc)   XCENC  =        27.67946335
  PAW double counting   =      1267.27400501    -1266.26863333
  entropy T*S    EENTRO =        -0.00000000
  eigenvalues    EBANDS =       -48.37082923
  atomic energy  EATOM  =       305.95774663
  ---------------------------------------------------
  free energy    TOTEN  =       -13.63229703 eV

  energy without entropy =      -13.63229703  energy(sigma->0) =      -13.63229703


--------------------------------------------------------------------------------------------------------




--------------------------------------- Iteration      1(   7)  ---------------------------------------


    POTLOK:  cpu time     14.2865: real time     14.2900
    SETDIJ:  cpu time      0.0668: real time      0.0668
    TRIAL :  cpu time      0.0688: real time      0.0688
    CORREC:  cpu time     16.5652: real time     16.5698
    CHARGE:  cpu time      2.1763: real time      2.1769
    --------------------------------------------
      LOOP:  cpu time     33.1915: real time     33.2003

 eigenvalue-minimisations  :     0
 total energy-change (2. order) :-0.3975192E+01  (-0.3303737E+00)
 number of electron       8.0000000 magnetization 
 augmentation part       -0.0069297 magnetization 

 Free energy of the ion-electron system (eV)
  ---------------------------------------------------
  alpha Z        PSCENC =         0.02212312
  Ewald energy   TEWEN  =       172.96321032
  -Hartree energ DENC   =      -426.51983236
  -exchange      EXHF   =         0.00000000
  -V(xc)+E(xc)   XCENC  =        25.19420172
  PAW double counting   =      2247.40881217    -2246.08888316
  entropy T*S    EENTRO =        -0.00000000
  eigenvalues    EBANDS =       -96.54486751
  atomic energy  EATOM  =       305.95774663
  ---------------------------------------------------
  free energy    TOTEN  =       -17.60748906 eV

  energy without entropy =      -17.60748906  energy(sigma->0) =      -17.60748906


--------------------------------------------------------------------------------------------------------




--------------------------------------- Iteration      1(   8)  ---------------------------------------


    POTLOK:  cpu time     14.3028: real time     14.3065
    SETDIJ:  cpu time      0.0667: real time      0.0667
    TRIAL :  cpu time      0.0688: real time      0.0689
    CORREC:  cpu time     16.5889: real time     16.5934
    CHARGE:  cpu time      2.1853: real time      2.1859
    --------------------------------------------
      LOOP:  cpu time     33.2246: real time     33.2511

 eigenvalue-minimisations  :     0
 total energy-change (2. order) :-0.3311688E+00  (-0.1609788E+00)
 number of electron       8.0000000 magnetization 
 augmentation part       -0.0079427 magnetization 

 Free energy of the ion-electron system (eV)
  ---------------------------------------------------
  alpha Z        PSCENC =         0.02212312
  Ewald energy   TEWEN  =       172.96321032
  -Hartree energ DENC   =      -424.77076239
  -exchange      EXHF   =         0.00000000
  -V(xc)+E(xc)   XCENC  =        25.15689606
  PAW double counting   =      2398.91249107    -2397.55208197
  entropy T*S    EENTRO =        -0.00000000
  eigenvalues    EBANDS =       -98.62828065
  atomic energy  EATOM  =       305.95774663
  ---------------------------------------------------
  free energy    TOTEN  =       -17.93865782 eV

  energy without entropy =      -17.93865782  energy(sigma->0) =      -17.93865782


--------------------------------------------------------------------------------------------------------




--------------------------------------- Iteration      1(   9)  ---------------------------------------


    POTLOK:  cpu time     14.3390: real time     14.3425
    SETDIJ:  cpu time      0.0666: real time      0.0668
    TRIAL :  cpu time      0.0693: real time      0.0693
    CORREC:  cpu time     16.5850: real time     16.5893
    CHARGE:  cpu time      2.1793: real time      2.1799
    --------------------------------------------
      LOOP:  cpu time     33.2521: real time     33.2771

 eigenvalue-minimisations  :     0
 total energy-change (2. order) :-0.1588026E+00  (-0.7013784E-01)
 number of electron       8.0000000 magnetization 
 augmentation part       -0.0075803 magnetization 

 Free energy of the ion-electron system (eV)
  ---------------------------------------------------
  alpha Z        PSCENC =         0.02212312
  Ewald energy   TEWEN  =       172.96321032
  -Hartree energ DENC   =      -422.90453361
  -exchange      EXHF   =         0.00000000
  -V(xc)+E(xc)   XCENC  =        25.09702670
  PAW double counting   =      2375.98845901    -2374.60863376
  entropy T*S    EENTRO =        -0.00000000
  eigenvalues    EBANDS =      -100.61285885
  atomic energy  EATOM  =       305.95774663
  ---------------------------------------------------
  free energy    TOTEN  =       -18.09746044 eV

  energy without entropy =      -18.09746044  energy(sigma->0) =      -18.09746044


--------------------------------------------------------------------------------------------------------




--------------------------------------- Iteration      1(  10)  ---------------------------------------


    POTLOK:  cpu time     14.3469: real time     14.3510
    SETDIJ:  cpu time      0.0668: real time      0.0668
    TRIAL :  cpu time      0.0688: real time      0.0688
    CORREC:  cpu time     16.5752: real time     16.5794
    CHARGE:  cpu time      2.1825: real time      2.1835
    --------------------------------------------
      LOOP:  cpu time     33.2545: real time     33.2784

 eigenvalue-minimisations  :     0
 total energy-change (2. order) :-0.6832537E-01  (-0.1744008E-01)
 number of electron       8.0000000 magnetization 
 augmentation part       -0.0075212 magnetization 

 Free energy of the ion-electron system (eV)
  ---------------------------------------------------
  alpha Z        PSCENC =         0.02212312
  Ewald energy   TEWEN  =       172.96321032
  -Hartree energ DENC   =      -422.47702243
  -exchange      EXHF   =         0.00000000
  -V(xc)+E(xc)   XCENC  =        25.07440854
  PAW double counting   =      2249.24172059    -2247.86418439
  entropy T*S    EENTRO =        -0.00000000
  eigenvalues    EBANDS =      -101.08378820
  atomic energy  EATOM  =       305.95774663
  ---------------------------------------------------
  free energy    TOTEN  =       -18.16578582 eV

  energy without entropy =      -18.16578582  energy(sigma->0) =      -18.16578582


--------------------------------------------------------------------------------------------------------




--------------------------------------- Iteration      1(  11)  ---------------------------------------


    POTLOK:  cpu time     14.3089: real time     14.3124
    SETDIJ:  cpu time      0.0668: real time      0.0668
    TRIAL :  cpu time      0.0692: real time      0.0693
    CORREC:  cpu time     16.5714: real time     16.5765
    CHARGE:  cpu time      2.2478: real time      2.2483
    --------------------------------------------
      LOOP:  cpu time     33.2905: real time     33.3041

 eigenvalue-minimisations  :     0
 total energy-change (2. order) :-0.1735384E-01  (-0.4839926E-02)
 number of electron       8.0000000 magnetization 
 augmentation part       -0.0072708 magnetization 

 Free energy of the ion-electron system (eV)
  ---------------------------------------------------
  alpha Z        PSCENC =         0.02212312
  Ewald energy   TEWEN  =       172.96321032
  -Hartree energ DENC   =      -421.96661522
  -exchange      EXHF   =         0.00000000
  -V(xc)+E(xc)   XCENC  =        25.03346727
  PAW double counting   =      2180.68215326    -2179.30766319
  entropy T*S    EENTRO =        -0.00000000
  eigenvalues    EBANDS =      -101.56756186
  atomic energy  EATOM  =       305.95774663
  ---------------------------------------------------
  free energy    TOTEN  =       -18.18313966 eV

  energy without entropy =      -18.18313966  energy(sigma->0) =      -18.18313966


--------------------------------------------------------------------------------------------------------




--------------------------------------- Iteration      1(  12)  ---------------------------------------


    POTLOK:  cpu time     14.2758: real time     14.2795
    SETDIJ:  cpu time      0.0667: real time      0.0667
    TRIAL :  cpu time      0.0689: real time      0.0689
    CORREC:  cpu time     16.5854: real time     16.5902
    CHARGE:  cpu time      2.1788: real time      2.1794
    --------------------------------------------
      LOOP:  cpu time     33.2042: real time     33.2134

 eigenvalue-minimisations  :     0
 total energy-change (2. order) :-0.4844137E-02  (-0.1656247E-02)
 number of electron       8.0000000 magnetization 
 augmentation part       -0.0070678 magnetization 

 Free energy of the ion-electron system (eV)
  ---------------------------------------------------
  alpha Z        PSCENC =         0.02212312
  Ewald energy   TEWEN  =       172.96321032
  -Hartree energ DENC   =      -422.01845609
  -exchange      EXHF   =         0.00000000
  -V(xc)+E(xc)   XCENC  =        25.02720277
  PAW double counting   =      2156.77149349    -2155.40073551
  entropy T*S    EENTRO =        -0.00000000
  eigenvalues    EBANDS =      -101.51056854
  atomic energy  EATOM  =       305.95774663
  ---------------------------------------------------
  free energy    TOTEN  =       -18.18798380 eV

  energy without entropy =      -18.18798380  energy(sigma->0) =      -18.18798380


--------------------------------------------------------------------------------------------------------




--------------------------------------- Iteration      1(  13)  ---------------------------------------


    POTLOK:  cpu time     14.3751: real time     14.3787
    SETDIJ:  cpu time      0.0668: real time      0.0668
    TRIAL :  cpu time      0.0698: real time      0.0698
    CORREC:  cpu time     16.6361: real time     16.6401
    CHARGE:  cpu time      2.1829: real time      2.1836
    --------------------------------------------
      LOOP:  cpu time     33.3542: real time     33.3684

 eigenvalue-minimisations  :     0
 total energy-change (2. order) :-0.1661829E-02  (-0.5448634E-03)
 number of electron       8.0000000 magnetization 
 augmentation part       -0.0069944 magnetization 

 Free energy of the ion-electron system (eV)
  ---------------------------------------------------
  alpha Z        PSCENC =         0.02212312
  Ewald energy   TEWEN  =       172.96321032
  -Hartree energ DENC   =      -422.12060794
  -exchange      EXHF   =         0.00000000
  -V(xc)+E(xc)   XCENC  =        25.02791264
  PAW double counting   =      2158.72513744    -2157.35642059
  entropy T*S    EENTRO =        -0.00000000
  eigenvalues    EBANDS =      -101.40874725
  atomic energy  EATOM  =       305.95774663
  ---------------------------------------------------
  free energy    TOTEN  =       -18.18964563 eV

  energy without entropy =      -18.18964563  energy(sigma->0) =      -18.18964563


--------------------------------------------------------------------------------------------------------




--------------------------------------- Iteration      1(  14)  ---------------------------------------


    POTLOK:  cpu time     14.3386: real time     14.3426
    SETDIJ:  cpu time      0.0667: real time      0.0667
    TRIAL :  cpu time      0.0691: real time      0.0691
    CORREC:  cpu time     16.6101: real time     16.6150
    CHARGE:  cpu time      2.1825: real time      2.1833
    --------------------------------------------
      LOOP:  cpu time     33.2802: real time     33.3082

 eigenvalue-minimisations  :     0
 total energy-change (2. order) :-0.5468695E-03  (-0.1820753E-03)
 number of electron       8.0000000 magnetization 
 augmentation part       -0.0069563 magnetization 

 Free energy of the ion-electron system (eV)
  ---------------------------------------------------
  alpha Z        PSCENC =         0.02212312
  Ewald energy   TEWEN  =       172.96321032
  -Hartree energ DENC   =      -422.09960024
  -exchange      EXHF   =         0.00000000
  -V(xc)+E(xc)   XCENC  =        25.02504836
  PAW double counting   =      2165.88086227    -2164.51231581
  entropy T*S    EENTRO =        -0.00000000
  eigenvalues    EBANDS =      -101.42726714
  atomic energy  EATOM  =       305.95774663
  ---------------------------------------------------
  free energy    TOTEN  =       -18.19019250 eV

  energy without entropy =      -18.19019250  energy(sigma->0) =      -18.19019250


--------------------------------------------------------------------------------------------------------




--------------------------------------- Iteration      1(  15)  ---------------------------------------


    POTLOK:  cpu time     14.2701: real time     14.2740
    SETDIJ:  cpu time      0.0668: real time      0.0668
    TRIAL :  cpu time      0.0691: real time      0.0691
    CORREC:  cpu time     16.5735: real time     16.5788
    CHARGE:  cpu time      2.1821: real time      2.1828
    --------------------------------------------
      LOOP:  cpu time     33.1774: real time     33.2022

 eigenvalue-minimisations  :     0
 total energy-change (2. order) :-0.1826865E-03  (-0.6141213E-04)
 number of electron       8.0000000 magnetization 
 augmentation part       -0.0069284 magnetization 

 Free energy of the ion-electron system (eV)
  ---------------------------------------------------
  alpha Z        PSCENC =         0.02212312
  Ewald energy   TEWEN  =       172.96321032
  -Hartree energ DENC   =      -422.17709047
  -exchange      EXHF   =         0.00000000
  -V(xc)+E(xc)   XCENC  =        25.02935519
  PAW double counting   =      2167.82954715    -2166.46123113
  entropy T*S    EENTRO =        -0.00000000
  eigenvalues    EBANDS =      -101.35403600
  atomic energy  EATOM  =       305.95774663
  ---------------------------------------------------
  free energy    TOTEN  =       -18.19037518 eV

  energy without entropy =      -18.19037518  energy(sigma->0) =      -18.19037518


--------------------------------------------------------------------------------------------------------




--------------------------------------- Iteration      1(  16)  ---------------------------------------


    POTLOK:  cpu time     14.2619: real time     14.2658
    SETDIJ:  cpu time      0.0667: real time      0.0667
    TRIAL :  cpu time      0.0691: real time      0.0695
    CORREC:  cpu time     16.5159: real time     16.5203
    CHARGE:  cpu time      2.1978: real time      2.1984
    --------------------------------------------
      LOOP:  cpu time     33.1278: real time     33.1509

 eigenvalue-minimisations  :     0
 total energy-change (2. order) :-0.6161696E-04  (-0.2009254E-04)
 number of electron       8.0000000 magnetization 
 augmentation part       -0.0068973 magnetization 

 Free energy of the ion-electron system (eV)
  ---------------------------------------------------
  alpha Z        PSCENC =         0.02212312
  Ewald energy   TEWEN  =       172.96321032
  -Hartree energ DENC   =      -422.18128831
  -exchange      EXHF   =         0.00000000
  -V(xc)+E(xc)   XCENC  =        25.02990127
  PAW double counting   =      2167.60834710    -2166.23989641
  entropy T*S    EENTRO =        -0.00000000
  eigenvalues    EBANDS =      -101.35058052
  atomic energy  EATOM  =       305.95774663
  ---------------------------------------------------
  free energy    TOTEN  =       -18.19043680 eV

  energy without entropy =      -18.19043680  energy(sigma->0) =      -18.19043680


--------------------------------------------------------------------------------------------------------




--------------------------------------- Iteration      1(  17)  ---------------------------------------


    POTLOK:  cpu time     14.2190: real time     14.2228
    SETDIJ:  cpu time      0.0664: real time      0.0666
    TRIAL :  cpu time      0.0690: real time      0.0691
    CORREC:  cpu time     16.5184: real time     16.5230
    CHARGE:  cpu time      2.1816: real time      2.1821
    --------------------------------------------
      LOOP:  cpu time     33.0803: real time     33.0945

 eigenvalue-minimisations  :     0
 total energy-change (2. order) :-0.2018043E-04  (-0.6710604E-05)
 number of electron       8.0000000 magnetization 
 augmentation part       -0.0068868 magnetization 

 Free energy of the ion-electron system (eV)
  ---------------------------------------------------
  alpha Z        PSCENC =         0.02212312
  Ewald energy   TEWEN  =       172.96321032
  -Hartree energ DENC   =      -422.19592942
  -exchange      EXHF   =         0.00000000
  -V(xc)+E(xc)   XCENC  =        25.03102808
  PAW double counting   =      2167.28858409    -2165.92014445
  entropy T*S    EENTRO =        -0.00000000
  eigenvalues    EBANDS =      -101.33707535
  atomic energy  EATOM  =       305.95774663
  ---------------------------------------------------
  free energy    TOTEN  =       -18.19045698 eV

  energy without entropy =      -18.19045698  energy(sigma->0) =      -18.19045698


--------------------------------------------------------------------------------------------------------




--------------------------------------- Iteration      1(  18)  ---------------------------------------


    POTLOK:  cpu time     14.2635: real time     14.2680
    SETDIJ:  cpu time      0.0665: real time      0.0665
    TRIAL :  cpu time      0.0687: real time      0.0687
    CORREC:  cpu time     16.4912: real time     16.4958
    CHARGE:  cpu time      2.1794: real time      2.1801
    --------------------------------------------
      LOOP:  cpu time     33.0829: real time     33.1087

 eigenvalue-minimisations  :     0
 total energy-change (2. order) :-0.6707024E-05  (-0.2159578E-05)
 number of electron       8.0000000 magnetization 
 augmentation part       -0.0068924 magnetization 

 Free energy of the ion-electron system (eV)
  ---------------------------------------------------
  alpha Z        PSCENC =         0.02212312
  Ewald energy   TEWEN  =       172.96321032
  -Hartree energ DENC   =      -422.20137395
  -exchange      EXHF   =         0.00000000
  -V(xc)+E(xc)   XCENC  =        25.03155775
  PAW double counting   =      2168.06727015    -2166.69882629
  entropy T*S    EENTRO =        -0.00000000
  eigenvalues    EBANDS =      -101.33217142
  atomic energy  EATOM  =       305.95774663
  ---------------------------------------------------
  free energy    TOTEN  =       -18.19046369 eV

  energy without entropy =      -18.19046369  energy(sigma->0) =      -18.19046369


--------------------------------------------------------------------------------------------------------




--------------------------------------- Iteration      1(  19)  ---------------------------------------


    POTLOK:  cpu time     14.2620: real time     14.2666
    SETDIJ:  cpu time      0.0666: real time      0.0666
    TRIAL :  cpu time      0.0696: real time      0.0696
    CORREC:  cpu time     16.5520: real time     16.5570
    CHARGE:  cpu time      2.1868: real time      2.1878
    --------------------------------------------
      LOOP:  cpu time     33.1530: real time     33.1828

 eigenvalue-minimisations  :     0
 total energy-change (2. order) :-0.2137306E-05  (-0.6346698E-06)
 number of electron       8.0000000 magnetization 
 augmentation part       -0.0068970 magnetization 

 Free energy of the ion-electron system (eV)
  ---------------------------------------------------
  alpha Z        PSCENC =         0.02212312
  Ewald energy   TEWEN  =       172.96321032
  -Hartree energ DENC   =      -422.19405460
  -exchange      EXHF   =         0.00000000
  -V(xc)+E(xc)   XCENC  =        25.03126624
  PAW double counting   =      2169.33932059    -2167.97080807
  entropy T*S    EENTRO =        -0.00000000
  eigenvalues    EBANDS =      -101.33927005
  atomic energy  EATOM  =       305.95774663
  ---------------------------------------------------
  free energy    TOTEN  =       -18.19046582 eV

  energy without entropy =      -18.19046582  energy(sigma->0) =      -18.19046582


--------------------------------------------------------------------------------------------------------




--------------------------------------- Iteration      1(  20)  ---------------------------------------


    POTLOK:  cpu time     14.2649: real time     14.2688
    SETDIJ:  cpu time      0.0666: real time      0.0666
    TRIAL :  cpu time      0.0679: real time      0.0679
    CORREC:  cpu time     16.4910: real time     16.4956
    CHARGE:  cpu time      2.1860: real time      2.1867
    --------------------------------------------
      LOOP:  cpu time     33.0898: real time     33.1149

 eigenvalue-minimisations  :     0
 total energy-change (2. order) :-0.5969328E-06  (-0.1773997E-06)
 number of electron       8.0000000 magnetization 
 augmentation part       -0.0069014 magnetization 

 Free energy of the ion-electron system (eV)
  ---------------------------------------------------
  alpha Z        PSCENC =         0.02212312
  Ewald energy   TEWEN  =       172.96321032
  -Hartree energ DENC   =      -422.19779386
  -exchange      EXHF   =         0.00000000
  -V(xc)+E(xc)   XCENC  =        25.03152480
  PAW double counting   =      2170.12518174    -2168.75666410
  entropy T*S    EENTRO =        -0.00000000
  eigenvalues    EBANDS =      -101.33579508
  atomic energy  EATOM  =       305.95774663
  ---------------------------------------------------
  free energy    TOTEN  =       -18.19046642 eV

  energy without entropy =      -18.19046642  energy(sigma->0) =      -18.19046642


--------------------------------------------------------------------------------------------------------




--------------------------------------- Iteration      1(  21)  ---------------------------------------


    POTLOK:  cpu time     14.2049: real time     14.2087
    SETDIJ:  cpu time      0.0668: real time      0.0668
    TRIAL :  cpu time      0.0686: real time      0.0686
    CORREC:  cpu time     16.5489: real time     16.5536
    CHARGE:  cpu time      2.1873: real time      2.1879
    --------------------------------------------
      LOOP:  cpu time     33.0885: real time     33.1147

 eigenvalue-minimisations  :     0
 total energy-change (2. order) :-0.1737419E-06  (-0.8191206E-07)
 number of electron       8.0000000 magnetization 
 augmentation part       -0.0069018 magnetization 

 Free energy of the ion-electron system (eV)
  ---------------------------------------------------
  alpha Z        PSCENC =         0.02212312
  Ewald energy   TEWEN  =       172.96321032
  -Hartree energ DENC   =      -422.19379606
  -exchange      EXHF   =         0.00000000
  -V(xc)+E(xc)   XCENC  =        25.03129971
  PAW double counting   =      2170.34651598    -2168.97797128
  entropy T*S    EENTRO =        -0.00000000
  eigenvalues    EBANDS =      -101.33959501
  atomic energy  EATOM  =       305.95774663
  ---------------------------------------------------
  free energy    TOTEN  =       -18.19046660 eV

  energy without entropy =      -18.19046660  energy(sigma->0) =      -18.19046660


--------------------------------------------------------------------------------------------------------




--------------------------------------- Iteration      1(  22)  ---------------------------------------


    POTLOK:  cpu time     14.2191: real time     14.2231
    SETDIJ:  cpu time      0.0665: real time      0.0665
    TRIAL :  cpu time      0.0697: real time      0.0697
    CORREC:  cpu time     16.6511: real time     16.6561
    EDDIAG:  cpu time      0.0382: real time      0.0387
    CHARGE:  cpu time      2.1834: real time      2.1840
    --------------------------------------------
      LOOP:  cpu time     33.2416: real time     33.2668

 eigenvalue-minimisations  :     0
 total energy-change (2. order) :-0.7814538E-07  (-0.2373513E-07)
 number of electron       8.0000000 magnetization 
 augmentation part       -0.0069020 magnetization 

 Free energy of the ion-electron system (eV)
  ---------------------------------------------------
  alpha Z        PSCENC =         0.02212312
  Ewald energy   TEWEN  =       172.96321032
  -Hartree energ DENC   =      -422.19517656
  -exchange      EXHF   =         0.00000000
  -V(xc)+E(xc)   XCENC  =        25.03136294
  PAW double counting   =      2170.16201468    -2168.79348128
  entropy T*S    EENTRO =        -0.00000000
  eigenvalues    EBANDS =      -101.33826652
  atomic energy  EATOM  =       305.95774663
  ---------------------------------------------------
  free energy    TOTEN  =       -18.19046667 eV

  energy without entropy =      -18.19046667  energy(sigma->0) =      -18.19046667


--------------------------------------------------------------------------------------------------------


  average scaling for gradient   1.1828


 average (electrostatic) potential at core
  the test charge radii are     0.4325  0.5902
  (the norm of the test charge is              1.0000)
       1 -47.6897       2 -47.6926       3 -47.6961       4-103.6865



 E-fermi :  -6.2790     XC(G=0):  -0.1195     alpha+bet : -0.0217

 Fermi energy:        -6.2790000688

 k-point     1 :       0.0000    0.0000    0.0000
  band No.  band energies     occupation 
      1     -21.3470      2.00000
      2     -11.4768      2.00000
      3     -11.4749      2.00000
      4      -6.3706      2.00000
      5      -1.1976      0.00000
      6       0.0536      0.00000
      7       0.0537      0.00000
      8       0.0934      0.00000


--------------------------------------------------------------------------------------------------------


 soft charge-density along one line, spin component           1
         0         1         2         3         4         5         6         7         8         9
 total charge-density along one line

 pseudopotential strength for first ion, spin component:           1
 -2.539  -5.400   0.001  -0.002   0.004
 -5.400 -11.458   0.003  -0.005   0.008
  0.001   0.003  -1.391  -0.003   0.005
 -0.002  -0.005  -0.003  -1.387  -0.009
  0.004   0.008   0.005  -0.009  -1.378
 total augmentation occupancy for first ion, spin component:           1
  3.507  -0.520  -0.083   0.138  -0.231
 -0.520   0.097   0.013  -0.020   0.036
 -0.083   0.013   0.006  -0.001   0.005
  0.138  -0.020  -0.001   0.010  -0.007
 -0.231   0.036   0.005  -0.007   0.017


------------------------ aborting loop because EDIFF is reached ----------------------------------------


    FORLOC:  cpu time      0.0151: real time      0.0151
    FORNL :  cpu time      0.0077: real time      0.0077
    FORCOR:  cpu time     14.2424: real time     14.2462
    OFIELD:  cpu time      0.0037: real time      0.0037

 VOLUME and BASIS-vectors are now :
 -----------------------------------------------------------------------------
  energy-cutoff  :     1000.00
  volume of cell :     8000.00
      direct lattice vectors                 reciprocal lattice vectors
    20.000000000  0.000000000  0.000000000     0.050000000  0.000000000  0.000000000
     0.000000000 20.000000000  0.000000000     0.000000000  0.050000000  0.000000000
     0.000000000  0.000000000 20.000000000     0.000000000  0.000000000  0.050000000

  length of vectors
    20.000000000 20.000000000 20.000000000     0.050000000  0.050000000  0.050000000


 FORCES acting on ions:
    Electron-Ion                     Ewald-Force                    Non-Local-Force
 -----------------------------------------------------------------------------------------------
   -.573E+02 -.197E+02 0.362E+02   0.633E+02 0.218E+02 -.398E+02   -.595E+01 -.209E+01 0.364E+01
   -.197E+02 0.362E+02 -.573E+02   0.218E+02 -.398E+02 0.633E+02   -.209E+01 0.364E+01 -.595E+01
   0.362E+02 -.573E+02 -.197E+02   -.398E+02 0.633E+02 0.218E+02   0.364E+01 -.595E+01 -.209E+01
   0.266E+02 0.265E+02 0.265E+02   -.453E+02 -.453E+02 -.453E+02   0.190E+02 0.190E+02 0.190E+02
 -----------------------------------------------------------------------------------------------
   -.146E+02 -.147E+02 -.147E+02   0.000E+00 0.711E-14 0.000E+00   0.146E+02 0.146E+02 0.146E+02


 POSITION                                       TOTAL-FORCE (eV/Angst)
 -----------------------------------------------------------------------------------
     10.66327     10.12950      9.33673         0.019051      0.015515      0.010292
     10.12951      9.33673     10.66327         0.015515      0.010292      0.019051
      9.33673     10.66327     10.12951         0.010292      0.019051      0.015515
      9.82044      9.82050      9.82051        -0.044857     -0.044857     -0.044857
 -----------------------------------------------------------------------------------
    total drift:                                0.056174     -0.023665     -0.029966


--------------------------------------------------------------------------------------------------------



  FREE ENERGIE OF THE ION-ELECTRON SYSTEM (eV)
  ---------------------------------------------------
  free  energy   TOTEN  =       -18.19046667 eV

  energy  without entropy=      -18.19046667  energy(sigma->0) =      -18.19046667



--------------------------------------------------------------------------------------------------------


    POTLOK:  cpu time     14.3904: real time     14.3955


--------------------------------------------------------------------------------------------------------


 stress matrix after NEB project (eV)
      0.00000      0.00000      0.00000
      0.00000      0.00000      0.00000
      0.00000      0.00000      0.00000
  FORCES: max atom, RMS     0.077695    0.045181
  FORCE total and by dimension    0.090361    0.044857
  Stress total and by dimension    0.000000    0.000000
     LOOP+:  cpu time    610.7583: real time    611.2098
    4ORBIT:  cpu time      0.0000: real time      0.0000

 total amount of memory used by VASP MPI-rank0    73259. kBytes
=======================================================================

   base      :      30000. kBytes
   nonl-proj :        860. kBytes
   fftplans  :      15076. kBytes
   grid      :      26893. kBytes
   one-center:          1. kBytes
   wavefun   :        429. kBytes

  
  
 General timing and accounting informations for this job:
 ========================================================
  
                  Total CPU time used (sec):      633.232
                            User time (sec):      604.147
                          System time (sec):       29.085
                         Elapsed time (sec):      637.460
  
                   Maximum memory used (kb):      578540.
                   Average memory used (kb):          N/A
  
                          Minor page faults:      1432731
                          Major page faults:          320
                 Voluntary context switches:         6381
