 vasp.6.4.1 05Apr23 (build Jun  6 2023 14:46:38) gamma-only                      
 executed on        HPECrayEX_GCC date 2024.08.21  00:03:50
 running  256 mpi-ranks, with    1 threads/rank, on    2 nodes
 distrk:  each k-point on  128 cores,    2 groups
 distr:  one band on NCORE=  32 cores,    4 groups


--------------------------------------------------------------------------------------------------------


 INCAR:
   ALGO = Conjugate
   KPAR = 2
   NCORE = 32
   ISMEAR = 0
   SIGMA = 0.01
   PREC = Accurate
   EDIFF = 1E-7
   ENCUT = 1000
   ISIF = 0
   GGA = RE
   IVDW = 11
   LWAVE = .FALSE.
   LCHARG = .FALSE.
   SYMPREC = 1E-7
   LWAVE = .FALSE.
   LCHARG = .FALSE.

 POTCAR:    PAW_PBE H_h 06Feb2004                 
 POTCAR:    PAW_PBE N_h 06Feb2004                 
 POTCAR:    PAW_PBE H_h 06Feb2004                 
   VRHFIN =H: ultrasoft test                                                                        
   LEXCH  = PE                                                                                      
   EATOM  =    12.4884 eV,    0.9179 Ry                                                             
                                                                                                    
   TITEL  = PAW_PBE H_h 06Feb2004                                                                   
   LULTRA =        F    use ultrasoft PP ?                                                          
   IUNSCR =        0    unscreen: 0-lin 1-nonlin 2-no                                               
   RPACOR =    0.000    partial core radius                                                         
   POMASS =    1.000; ZVAL   =    1.000    mass and valenz                                          
   RCORE  =    0.800    outmost cutoff radius                                                       
   RWIGS  =    0.700; RWIGS  =    0.370    wigner-seitz radius (au A)                               
   ENMAX  =  700.000; ENMIN  =  350.000 eV                                                          
   RCLOC  =    0.701    cutoff for local pot                                                        
   LCOR   =        T    correct aug charges                                                         
   LPAW   =        T    paw PP                                                                      
   EAUG   = 1000.000                                                                                
   RMAX   =    0.819    core radius for proj-oper                                                   
   RAUG   =    1.000    factor for augmentation sphere                                              
   RDEP   =    0.817    radius for radial grids                                                     
   RDEPT  =    0.817    core radius for aug-charge                                                  
                                                                                                    
   Atomic configuration                                                                             
    2 entries                                                                                       
     n  l   j            E        occ.                                                              
     1  0  0.50        -6.4927   1.0000                                                             
     2  1  0.50        -3.4015   0.0000                                                             
   Description                                                                                      
     l       E           TYP  RCUT    TYP  RCUT                                                     
     0     -6.4927493     23  0.800                                                                 
     0      6.8029130     23  0.800                                                                 
     1     -6.8029130     23  0.800                                                                 
  local pseudopotential read in
  atomic valenz-charges read in
  non local Contribution for L=           0  read in
    real space projection operators read in
  non local Contribution for L=           0  read in
    real space projection operators read in
  non local Contribution for L=           1  read in
    real space projection operators read in
    PAW grid and wavefunctions read in

   number of l-projection  operators is LMAX  =           3
   number of lm-projection operators is LMMAX =           5

 POTCAR:    PAW_PBE N_h 06Feb2004                 
   VRHFIN =N: s2p3                                                                                  
   LEXCH  = PE                                                                                      
   EATOM  =   264.5486 eV,   19.4438 Ry                                                             
                                                                                                    
   TITEL  = PAW_PBE N_h 06Feb2004                                                                   
   LULTRA =        F    use ultrasoft PP ?                                                          
   IUNSCR =        1    unscreen: 0-lin 1-nonlin 2-no                                               
   RPACOR =    0.800    partial core radius                                                         
   POMASS =   14.001; ZVAL   =    5.000    mass and valenz                                          
   RCORE  =    1.100    outmost cutoff radius                                                       
   RWIGS  =    1.480; RWIGS  =    0.783    wigner-seitz radius (au A)                               
   ENMAX  =  700.000; ENMIN  =  500.000 eV                                                          
   ICORE  =        2    local potential                                                             
   LCOR   =        T    correct aug charges                                                         
   LPAW   =        T    paw PP                                                                      
   EAUG   =  904.640                                                                                
   DEXC   =    0.000                                                                                
   RMAX   =    1.127    core radius for proj-oper                                                   
   RAUG   =    1.300    factor for augmentation sphere                                              
   RDEP   =    1.115    radius for radial grids                                                     
   RDEPT  =    1.106    core radius for aug-charge                                                  
                                                                                                    
   Atomic configuration                                                                             
    4 entries                                                                                       
     n  l   j            E        occ.                                                              
     1  0  0.50      -384.7179   2.0000                                                             
     2  0  0.50       -18.5828   2.0000                                                             
     2  1  0.50        -7.0898   3.0000                                                             
     3  2  1.50        -6.8029   0.0000                                                             
   Description                                                                                      
     l       E           TYP  RCUT    TYP  RCUT                                                     
     0    -18.5828117     23  1.100                                                                 
     0    -15.0750597     23  1.100                                                                 
     1     -7.0897851     23  1.100                                                                 
     1     -1.9663412     23  1.100                                                                 
     2     -6.8029130      7  1.100                                                                 
  local pseudopotential read in
  partial core-charges read in
  partial kinetic energy density read in
  kinetic energy density of atom read in
  atomic valenz-charges read in
  non local Contribution for L=           0  read in
    real space projection operators read in
  non local Contribution for L=           0  read in
    real space projection operators read in
  non local Contribution for L=           1  read in
    real space projection operators read in
  non local Contribution for L=           1  read in
    real space projection operators read in
    PAW grid and wavefunctions read in

   number of l-projection  operators is LMAX  =           4
   number of lm-projection operators is LMMAX =           8

 -----------------------------------------------------------------------------
|                                                                             |
|               ----> ADVICE to this user running VASP <----                  |
|                                                                             |
|     You enforced a specific xc type in the INCAR file but a different       |
|     type was found in the POTCAR file.                                      |
|     I HOPE YOU KNOW WHAT YOU ARE DOING!                                     |
|                                                                             |
 -----------------------------------------------------------------------------

  PAW_PBE H_h 06Feb2004                 :
 energy of atom  1       EATOM=  -12.4884
 kinetic energy error for atom=    0.0006 (will be added to EATOM!!)
  PAW_PBE N_h 06Feb2004                 :
 energy of atom  2       EATOM= -264.5486
 kinetic energy error for atom=    0.0081 (will be added to EATOM!!)


 POSCAR:  H  N
  positions in cartesian coordinates
  No initial velocities read in
 exchange correlation table for  LEXCH =       40
   RHO(1)=    0.500       N(1)  =     2000
   RHO(2)=  100.500       N(2)  =     4000

 VTST: version 4.1, (05/19/21)

 CHAIN: initializing optimizer
 
 OPT: Using VASP Dynamics algorithm
 CHAIN: Read ICHAIN            0

 POSCAR:  H  N
  positions in cartesian coordinates
  No initial velocities read in



--------------------------------------------------------------------------------------------------------


 ion  position               nearest neighbor table
   1  0.533  0.506  0.467-   4 1.02
   2  0.506  0.467  0.533-   4 1.02
   3  0.467  0.533  0.506-   4 1.02
   4  0.491  0.491  0.491-   3 1.02   2 1.02   1 1.02

  LATTYP: Found a simple cubic cell.
 ALAT       =    20.0000000000
  
  Lattice vectors:
  
 A1 = (  20.0000000000,   0.0000000000,   0.0000000000)
 A2 = (   0.0000000000,  20.0000000000,   0.0000000000)
 A3 = (   0.0000000000,   0.0000000000,  20.0000000000)


Analysis of symmetry for initial positions (statically):
=====================================================================
 Subroutine PRICEL returns:
 Original cell was already a primitive cell.
 

 Routine SETGRP: Setting up the symmetry group for a 
 simple cubic supercell.


 Subroutine GETGRP returns: Found  1 space group operations
 (whereof  1 operations were pure point group operations)
 out of a pool of 48 trial point group operations.


The static configuration has the point symmetry C_1 .


Analysis of symmetry for dynamics (positions and initial velocities):
=====================================================================
 Subroutine PRICEL returns:
 Original cell was already a primitive cell.
 

 Routine SETGRP: Setting up the symmetry group for a 
 simple cubic supercell.


 Subroutine GETGRP returns: Found  1 space group operations
 (whereof  1 operations were pure point group operations)
 out of a pool of 48 trial point group operations.


The dynamic configuration has the point symmetry C_1 .


 Subroutine INISYM returns: Found  1 space group operations
 (whereof  1 operations are pure point group operations),
 and found     1 'primitive' translations


----------------------------------------------------------------------------------------

                                     Primitive cell                                     

  volume of cell :    8000.0000

  direct lattice vectors                    reciprocal lattice vectors
    20.000000000  0.000000000  0.000000000     0.050000000  0.000000000  0.000000000
     0.000000000 20.000000000  0.000000000     0.000000000  0.050000000  0.000000000
     0.000000000  0.000000000 20.000000000     0.000000000  0.000000000  0.050000000

  length of vectors
    20.000000000 20.000000000 20.000000000     0.050000000  0.050000000  0.050000000

  position of ions in fractional coordinates (direct lattice)
     0.533163250  0.506474750  0.466836500
     0.506475750  0.466836250  0.533163500
     0.466836750  0.533163750  0.506475500
     0.491021750  0.491025250  0.491025500

  ion indices of the primitive-cell ions
   primitive index   ion index
                 1           1
                 2           2
                 3           3
                 4           4

----------------------------------------------------------------------------------------



 KPOINTS: auto                                    

Automatic generation of k-mesh.
 Grid dimensions read from file:
 generate k-points for:    1    1    1

 Generating k-lattice:

  Cartesian coordinates                     Fractional coordinates (reciprocal lattice)
     0.050000000  0.000000000  0.000000000     1.000000000  0.000000000  0.000000000
     0.000000000  0.050000000  0.000000000     0.000000000  1.000000000  0.000000000
     0.000000000  0.000000000  0.050000000     0.000000000  0.000000000  1.000000000

  Length of vectors
     0.050000000  0.050000000  0.050000000

  Shift w.r.t. Gamma in fractional coordinates (k-lattice)
     0.000000000  0.000000000  0.000000000

 
 Subroutine IBZKPT returns following result:
 ===========================================
 
 Found      1 irreducible k-points:
 
 Following reciprocal coordinates:
            Coordinates               Weight
  0.000000  0.000000  0.000000      1.000000
 
 Following cartesian coordinates:
            Coordinates               Weight
  0.000000  0.000000  0.000000      1.000000
 


--------------------------------------------------------------------------------------------------------




 Dimension of arrays:
   k-points           NKPTS =      1   k-points in BZ     NKDIM =      1   number of bands    NBANDS=      8
   number of dos      NEDOS =    301   number of ions     NIONS =      4
   non local maximal  LDIM  =      4   non local SUM 2l+1 LMDIM =      8
   total plane-waves  NPLWV = ******
   max r-space proj   IRMAX =      1   max aug-charges    IRDMAX=   8421
   dimension x,y,z NGX =   210 NGY =  210 NGZ =  210
   dimension x,y,z NGXF=   420 NGYF=  420 NGZF=  420
   support grid    NGXF=   420 NGYF=  420 NGZF=  420
   ions per type =               3   1
   NGX,Y,Z   is equivalent  to a cutoff of  17.46, 17.46, 17.46 a.u.
   NGXF,Y,Z  is equivalent  to a cutoff of  34.91, 34.91, 34.91 a.u.

 SYSTEM =  unknown system                          
 POSCAR =   H  N                                   

 Startparameter for this run:
   NWRITE =      2    write-flag & timer
   PREC   = accura    normal or accurate (medium, high low for compatibility)
   ISTART =      0    job   : 0-new  1-cont  2-samecut
   ICHARG =      2    charge: 1-file 2-atom 10-const
   ISPIN  =      1    spin polarized calculation?
   LNONCOLLINEAR =      F non collinear calculations
   LSORBIT =      F    spin-orbit coupling
   INIWAV =      1    electr: 0-lowe 1-rand  2-diag
   LASPH  =      F    aspherical Exc in radial PAW
 Electronic Relaxation 1
   ENCUT  = 1000.0 eV  73.50 Ry    8.57 a.u.  51.57 51.57 51.57*2*pi/ulx,y,z
   ENINI  = 1000.0     initial cutoff
   ENAUG  = 1000.0 eV  augmentation charge cutoff
   NELM   =     60;   NELMIN=  2; NELMDL= -5     # of ELM steps 
   EDIFF  = 0.1E-06   stopping-criterion for ELM
   LREAL  =      F    real-space projection
   NLSPLINE    = F    spline interpolate recip. space projectors
   LCOMPAT=      F    compatible to vasp.4.4
   GGA_COMPAT  = T    GGA compatible to vasp.4.4-vasp.4.6
   LMAXPAW     = -100 max onsite density
   LMAXMIX     =    2 max onsite mixed and CHGCAR
   VOSKOWN=      0    Vosko Wilk Nusair interpolation
   ROPT   =    0.00000   0.00000
 Ionic relaxation
   EDIFFG = 0.1E-05   stopping-criterion for IOM
   NSW    =      0    number of steps for IOM
   NBLOCK =      1;   KBLOCK =      1    inner block; outer block 
   IBRION =     -1    ionic relax: 0-MD 1-quasi-New 2-CG
   NFREE  =      0    steps in history (QN), initial steepest desc. (CG)
   ISIF   =      0    stress and relaxation
   IWAVPR =     10    prediction:  0-non 1-charg 2-wave 3-comb
   ISYM   =      2    0-nonsym 1-usesym 2-fastsym
   LCORR  =      T    Harris-Foulkes like correction to forces

   POTIM  = 0.5000    time-step for ionic-motion
   TEIN   =    0.0    initial temperature
   TEBEG  =    0.0;   TEEND  =   0.0 temperature during run
   SMASS  =  -3.00    Nose mass-parameter (am)
   estimated Nose-frequenzy (Omega)   =  0.10E-29 period in steps = 0.13E+47 mass=  -0.914E-26a.u.
   SCALEE = 1.0000    scale energy and forces
   NPACO  =    256;   APACO  = 10.0  distance and # of slots for P.C.
   PSTRESS=    0.0 pullay stress

  Mass of Ions in am
   POMASS =   1.00 14.00
  Ionic Valenz
   ZVAL   =   1.00  5.00
  Atomic Wigner-Seitz radii
   RWIGS  =  -1.00 -1.00
  virtual crystal weights 
   VCA    =   1.00  1.00
   NELECT =       8.0000    total number of electrons
   NUPDOWN=      -1.0000    fix difference up-down

 DOS related values:
   EMIN   =  10.00;   EMAX   =-10.00  energy-range for DOS
   EFERMI =   0.00;   METHOD = LEGACY      
   ISMEAR =     0;   SIGMA  =   0.01  broadening in eV -4-tet -1-fermi 0-gaus

 Electronic relaxation 2 (details)
   IALGO  =     58    algorithm
   LDIAG  =      T    sub-space diagonalisation (order eigenvalues)
   LSUBROT=      F    optimize rotation matrix (better conditioning)
   TURBO    =      0    0=normal 1=particle mesh
   IRESTART =      0    0=no restart 2=restart with 2 vectors
   NREBOOT  =      0    no. of reboots
   NMIN     =      0    reboot dimension
   EREF     =   0.00    reference energy to select bands
   IMIX   =      4    mixing-type and parameters
     AMIX     =   0.40;   BMIX     =  1.00
     AMIX_MAG =   1.60;   BMIX_MAG =  1.00
     AMIN     =   0.10
     WC   =   100.;   INIMIX=   1;  MIXPRE=   1;  MAXMIX= -45

 Intra band minimization:
   WEIMIN = 0.0000     energy-eigenvalue tresh-hold
   EBREAK =  0.31E-08  absolut break condition
   DEPER  =   0.30     relativ break condition  

   TIME   =   0.40     timestep for ELM

  volume/ion in A,a.u.               =    2000.00     13496.67
  Fermi-wavevector in a.u.,A,eV,Ry     =   0.163710  0.309367  0.364649  0.026801
  Thomas-Fermi vector in A             =   0.862763

 Write flags
   LWAVE        =      F    write WAVECAR
   LDOWNSAMPLE  =      F    k-point downsampling of WAVECAR
   LCHARG       =      F    write CHGCAR
   LVTOT        =      F    write LOCPOT, total local potential
   LVHAR        =      F    write LOCPOT, Hartree potential only
   LELF         =      F    write electronic localiz. function (ELF)
   LORBIT       =      0    0 simple, 1 ext, 2 COOP (PROOUT), +10 PAW based schemes


 Dipole corrections
   LMONO  =      F    monopole corrections only (constant potential shift)
   LDIPOL =      F    correct potential (dipole corrections)
   IDIPOL =      0    1-x, 2-y, 3-z, 4-all directions 
   EPSILON=  1.0000000 bulk dielectric constant

 Exchange correlation treatment:
   GGA     =    RE    GGA type
   LEXCH   =    40    internal setting for exchange type
   LIBXC   =     F    Libxc                    
   VOSKOWN =     0    Vosko Wilk Nusair interpolation
   LHFCALC =     F    Hartree Fock is set to
   LHFONE  =     F    Hartree Fock one center treatment
   AEXX    =    0.0000 exact exchange contribution

 Linear response parameters
   LEPSILON=     F    determine dielectric tensor
   LRPA    =     F    only Hartree local field effects (RPA)
   LNABLA  =     F    use nabla operator in PAW spheres
   LVEL    =     F    velocity operator in full k-point grid
   CSHIFT  =0.1000    complex shift for real part using Kramers Kronig
   OMEGAMAX=  -1.0    maximum frequency
   DEG_THRESHOLD= 0.2000000E-02 threshold for treating states as degnerate
   RTIME   =   -0.100 relaxation time in fs
  (WPLASMAI=    0.000 imaginary part of plasma frequency in eV, 0.658/RTIME)
   DFIELD  = 0.0000000 0.0000000 0.0000000 field for delta impulse in time

  Optional k-point grid parameters
   LKPOINTS_OPT  =     F    use optional k-point grid
   KPOINTS_OPT_MODE=     1    mode for optional k-point grid

 Orbital magnetization related:
   ORBITALMAG=     F  switch on orbital magnetization
   LCHIMAG   =     F  perturbation theory with respect to B field
   DQ        =  0.001000  dq finite difference perturbation B field
   LLRAUG    =     F  two centre corrections for induced B field
   LBONE     =     F  B-component reconstruction in AE one-centre
   LVGVCALC  =     T  calculate vGv susceptibility
   LVGVAPPL  =     F  apply vGv susceptibility instead of pGv for G=0

 Random number generation:
   RANDOM_GENERATOR = DEFAULT
   PCG_SEED         = not used


--------------------------------------------------------------------------------------------------------


 Static calculation
 charge density and potential will be updated during run
 non-spin polarized calculation
 Conjugate gradient for all bands (Freysoldt, et al. PRB 79, 241103 (2009))
 preconditioned conjugated gradient                                        
 perform sub-space diagonalisation
    before iterative eigenvector-optimisation
 modified Broyden-mixing scheme, WC =      100.0
 initial mixing is a Kerker type mixing with AMIX =  0.4000 and BMIX =      1.0000
 Hartree-type preconditioning will be used
 using additional bands            4
 reciprocal scheme for non local part
 use partial core corrections
 no Harris-corrections to forces 
 use gradient corrections 
 use of overlap-Matrix (Vanderbilt PP)
 Gauss-broadening in eV      SIGMA  =   0.01


--------------------------------------------------------------------------------------------------------


  energy-cutoff  :     1000.00
  volume of cell :     8000.00
      direct lattice vectors                 reciprocal lattice vectors
    20.000000000  0.000000000  0.000000000     0.050000000  0.000000000  0.000000000
     0.000000000 20.000000000  0.000000000     0.000000000  0.050000000  0.000000000
     0.000000000  0.000000000 20.000000000     0.000000000  0.000000000  0.050000000

  length of vectors
    20.000000000 20.000000000 20.000000000     0.050000000  0.050000000  0.050000000



 k-points in units of 2pi/SCALE and weight: auto                                    
   0.00000000  0.00000000  0.00000000       1.000

 k-points in reciprocal lattice and weights: auto                                    
   0.00000000  0.00000000  0.00000000       1.000

 position of ions in fractional coordinates (direct lattice) 
   0.53316325  0.50647475  0.46683650
   0.50647575  0.46683625  0.53316350
   0.46683675  0.53316375  0.50647550
   0.49102175  0.49102525  0.49102550

 position of ions in cartesian coordinates  (Angst):
  10.66326500 10.12949500  9.33673000
  10.12951500  9.33672500 10.66327000
   9.33673500 10.66327500 10.12951000
   9.82043500  9.82050500  9.82051000



--------------------------------------------------------------------------------------------------------


 use parallel FFT for orbitals z direction half grid
 k-point   1 :   0.0000 0.0000 0.0000  plane waves:  287166

 maximum and minimum number of plane-waves per node :      8979     8970

 maximum number of plane-waves:    287166
 maximum index in each direction: 
   IXMAX=   51   IYMAX=   51   IZMAX=   51
   IXMIN=  -51   IYMIN=  -51   IZMIN=    0


 parallel 3D FFT for wavefunctions:
    minimum data exchange during FFTs selected (reduces bandwidth)
 parallel 3D FFT for charge:
    minimum data exchange during FFTs selected (reduces bandwidth)


 total amount of memory used by VASP MPI-rank0   113744. kBytes
=======================================================================

   base      :      30000. kBytes
   nonl-proj :       1724. kBytes
   fftplans  :      29139. kBytes
   grid      :      52019. kBytes
   one-center:          1. kBytes
   wavefun   :        861. kBytes

     INWAV:  cpu time      0.0000: real time      0.0000
 Broyden mixing: mesh for mixing (old mesh)
   NGX =103   NGY =103   NGZ =103
  (NGX  =420   NGY  =420   NGZ  =420)
  gives a total of ****** points

 initial charge density was supplied:
 charge density of overlapping atoms calculated
 number of electron       8.0000000 magnetization 
 keeping initial charge density in first step


--------------------------------------------------------------------------------------------------------


 Maximum index for augmentation-charges            0 (set IRDMAX)


--------------------------------------------------------------------------------------------------------


 First call to EWALD:  gamma=   0.089
 Maximum number of real-space cells 3x 3x 3
 Maximum number of reciprocal cells 3x 3x 3

    FEWALD:  cpu time      0.0025: real time      0.0025


--------------------------------------- Ionic step        1  -------------------------------------------




--------------------------------------- Iteration      1(   1)  ---------------------------------------


    POTLOK:  cpu time      0.9588: real time      0.9594
    SETDIJ:  cpu time      0.0107: real time      0.0110
    TRIAL :  cpu time      0.2988: real time      0.2997
    CORREC:  cpu time      0.0010: real time      0.0010
    --------------------------------------------
      LOOP:  cpu time      1.2804: real time      1.2823

 eigenvalue-minimisations  :    24
 total energy-change (2. order) : 0.7219851E+02  (-0.1500393E+03)
 number of electron       8.0000000 magnetization 
 augmentation part        8.0000000 magnetization 

 Free energy of the ion-electron system (eV)
  ---------------------------------------------------
  alpha Z        PSCENC =         0.02212312
  Ewald energy   TEWEN  =       172.96321032
  -Hartree energ DENC   =      -381.98205141
  -exchange      EXHF   =         0.00000000
  -V(xc)+E(xc)   XCENC  =        23.15419662
  PAW double counting   =       209.87694075     -208.21578785
  entropy T*S    EENTRO =        -0.00000000
  eigenvalues    EBANDS =       -45.49551407
  atomic energy  EATOM  =       301.87538970
  ---------------------------------------------------
  free energy    TOTEN  =        72.19850719 eV

  energy without entropy =       72.19850719  energy(sigma->0) =       72.19850719


--------------------------------------------------------------------------------------------------------




--------------------------------------- Iteration      1(   2)  ---------------------------------------


    TRIAL :  cpu time      0.3443: real time      0.3443
    CORREC:  cpu time      0.0001: real time      0.0001
    --------------------------------------------
      LOOP:  cpu time      0.3575: real time      0.3722

 eigenvalue-minimisations  :    32
 total energy-change (2. order) :-0.4053603E+02  (-0.4053603E+02)
 number of electron       8.0000000 magnetization 
 augmentation part        8.0000000 magnetization 

 Free energy of the ion-electron system (eV)
  ---------------------------------------------------
  alpha Z        PSCENC =         0.02212312
  Ewald energy   TEWEN  =       172.96321032
  -Hartree energ DENC   =      -381.98205141
  -exchange      EXHF   =         0.00000000
  -V(xc)+E(xc)   XCENC  =        23.15419662
  PAW double counting   =       209.87694075     -208.21578785
  entropy T*S    EENTRO =        -0.00000000
  eigenvalues    EBANDS =       -86.03154247
  atomic energy  EATOM  =       301.87538970
  ---------------------------------------------------
  free energy    TOTEN  =        31.66247879 eV

  energy without entropy =       31.66247879  energy(sigma->0) =       31.66247879


--------------------------------------------------------------------------------------------------------




--------------------------------------- Iteration      1(   3)  ---------------------------------------


    TRIAL :  cpu time      0.2766: real time      0.2770
    CORREC:  cpu time      0.0001: real time      0.0001
    --------------------------------------------
      LOOP:  cpu time      0.2887: real time      0.3059

 eigenvalue-minimisations  :    24
 total energy-change (2. order) :-0.4896262E+02  (-0.4896262E+02)
 number of electron       8.0000000 magnetization 
 augmentation part        8.0000000 magnetization 

 Free energy of the ion-electron system (eV)
  ---------------------------------------------------
  alpha Z        PSCENC =         0.02212312
  Ewald energy   TEWEN  =       172.96321032
  -Hartree energ DENC   =      -381.98205141
  -exchange      EXHF   =         0.00000000
  -V(xc)+E(xc)   XCENC  =        23.15419662
  PAW double counting   =       209.87694075     -208.21578785
  entropy T*S    EENTRO =        -0.00000000
  eigenvalues    EBANDS =      -134.99416198
  atomic energy  EATOM  =       301.87538970
  ---------------------------------------------------
  free energy    TOTEN  =       -17.30014072 eV

  energy without entropy =      -17.30014072  energy(sigma->0) =      -17.30014072


--------------------------------------------------------------------------------------------------------




--------------------------------------- Iteration      1(   4)  ---------------------------------------


    TRIAL :  cpu time      0.2061: real time      0.2061
    CORREC:  cpu time      0.0001: real time      0.0001
    --------------------------------------------
      LOOP:  cpu time      0.2344: real time      0.2347

 eigenvalue-minimisations  :    16
 total energy-change (2. order) :-0.5095266E+01  (-0.5095266E+01)
 number of electron       8.0000000 magnetization 
 augmentation part        8.0000000 magnetization 

 Free energy of the ion-electron system (eV)
  ---------------------------------------------------
  alpha Z        PSCENC =         0.02212312
  Ewald energy   TEWEN  =       172.96321032
  -Hartree energ DENC   =      -381.98205141
  -exchange      EXHF   =         0.00000000
  -V(xc)+E(xc)   XCENC  =        23.15419662
  PAW double counting   =       209.87694075     -208.21578785
  entropy T*S    EENTRO =        -0.00000000
  eigenvalues    EBANDS =      -140.08942780
  atomic energy  EATOM  =       301.87538970
  ---------------------------------------------------
  free energy    TOTEN  =       -22.39540655 eV

  energy without entropy =      -22.39540655  energy(sigma->0) =      -22.39540655


--------------------------------------------------------------------------------------------------------




--------------------------------------- Iteration      1(   5)  ---------------------------------------


    TRIAL :  cpu time      0.3425: real time      0.3425
    CORREC:  cpu time      0.0001: real time      0.0001
    CHARGE:  cpu time      0.1474: real time      0.1479
    --------------------------------------------
      LOOP:  cpu time      0.5036: real time      0.5192

 eigenvalue-minimisations  :    32
 total energy-change (2. order) :-0.1861715E+00  (-0.1861715E+00)
 number of electron       8.0000000 magnetization 
 augmentation part        0.0130725 magnetization 

 Free energy of the ion-electron system (eV)
  ---------------------------------------------------
  alpha Z        PSCENC =         0.02212312
  Ewald energy   TEWEN  =       172.96321032
  -Hartree energ DENC   =      -381.98205141
  -exchange      EXHF   =         0.00000000
  -V(xc)+E(xc)   XCENC  =        23.15419662
  PAW double counting   =       209.87694075     -208.21578785
  entropy T*S    EENTRO =        -0.00000000
  eigenvalues    EBANDS =      -140.27559930
  atomic energy  EATOM  =       301.87538970
  ---------------------------------------------------
  free energy    TOTEN  =       -22.58157804 eV

  energy without entropy =      -22.58157804  energy(sigma->0) =      -22.58157804


--------------------------------------------------------------------------------------------------------




--------------------------------------- Iteration      1(   6)  ---------------------------------------


    POTLOK:  cpu time      0.9665: real time      0.9668
    SETDIJ:  cpu time      0.0019: real time      0.0019
    TRIAL :  cpu time      0.1678: real time      0.1691
    CORREC:  cpu time      1.1549: real time      1.1562
    CHARGE:  cpu time      0.1178: real time      0.1179
    --------------------------------------------
      LOOP:  cpu time      2.4226: real time      2.4389

 eigenvalue-minimisations  :     0
 total energy-change (2. order) : 0.7074906E+01  (-0.3552497E+01)
 number of electron       8.0000000 magnetization 
 augmentation part       -0.0000966 magnetization 

 Free energy of the ion-electron system (eV)
  ---------------------------------------------------
  alpha Z        PSCENC =         0.02212312
  Ewald energy   TEWEN  =       172.96321032
  -Hartree energ DENC   =      -469.87381318
  -exchange      EXHF   =         0.00000000
  -V(xc)+E(xc)   XCENC  =        27.91469665
  PAW double counting   =      1622.78752831    -1621.49947624
  entropy T*S    EENTRO =        -0.00000000
  eigenvalues    EBANDS =       -49.69633100
  atomic energy  EATOM  =       301.87538970
  ---------------------------------------------------
  free energy    TOTEN  =       -15.50667233 eV

  energy without entropy =      -15.50667233  energy(sigma->0) =      -15.50667233


--------------------------------------------------------------------------------------------------------




--------------------------------------- Iteration      1(   7)  ---------------------------------------


    POTLOK:  cpu time      0.9873: real time      0.9877
    SETDIJ:  cpu time      0.0028: real time      0.0028
    TRIAL :  cpu time      0.1471: real time      0.1471
    CORREC:  cpu time      1.1477: real time      1.1481
    CHARGE:  cpu time      0.1182: real time      0.1182
    --------------------------------------------
      LOOP:  cpu time      2.4316: real time      2.4326

 eigenvalue-minimisations  :     0
 total energy-change (2. order) :-0.3626285E+01  (-0.2818341E+00)
 number of electron       8.0000000 magnetization 
 augmentation part       -0.0086848 magnetization 

 Free energy of the ion-electron system (eV)
  ---------------------------------------------------
  alpha Z        PSCENC =         0.02212312
  Ewald energy   TEWEN  =       172.96321032
  -Hartree energ DENC   =      -425.01788886
  -exchange      EXHF   =         0.00000000
  -V(xc)+E(xc)   XCENC  =        25.55261414
  PAW double counting   =      2655.63922196    -2654.12745371
  entropy T*S    EENTRO =        -0.00000000
  eigenvalues    EBANDS =       -96.04017379
  atomic energy  EATOM  =       301.87538970
  ---------------------------------------------------
  free energy    TOTEN  =       -19.13295712 eV

  energy without entropy =      -19.13295712  energy(sigma->0) =      -19.13295712


--------------------------------------------------------------------------------------------------------




--------------------------------------- Iteration      1(   8)  ---------------------------------------


    POTLOK:  cpu time      0.9878: real time      0.9882
    SETDIJ:  cpu time      0.0012: real time      0.0012
    TRIAL :  cpu time      0.1466: real time      0.1470
    CORREC:  cpu time      1.1542: real time      1.1546
    CHARGE:  cpu time      0.1171: real time      0.1171
    --------------------------------------------
      LOOP:  cpu time      2.4242: real time      2.4379

 eigenvalue-minimisations  :     0
 total energy-change (2. order) :-0.2821613E+00  (-0.1164019E+00)
 number of electron       8.0000000 magnetization 
 augmentation part       -0.0093283 magnetization 

 Free energy of the ion-electron system (eV)
  ---------------------------------------------------
  alpha Z        PSCENC =         0.02212312
  Ewald energy   TEWEN  =       172.96321032
  -Hartree energ DENC   =      -423.56946063
  -exchange      EXHF   =         0.00000000
  -V(xc)+E(xc)   XCENC  =        25.52577617
  PAW double counting   =      2764.56761831    -2763.02893156
  entropy T*S    EENTRO =        -0.00000000
  eigenvalues    EBANDS =       -97.77084384
  atomic energy  EATOM  =       301.87538970
  ---------------------------------------------------
  free energy    TOTEN  =       -19.41511841 eV

  energy without entropy =      -19.41511841  energy(sigma->0) =      -19.41511841


--------------------------------------------------------------------------------------------------------




--------------------------------------- Iteration      1(   9)  ---------------------------------------


    POTLOK:  cpu time      0.9861: real time      0.9867
    SETDIJ:  cpu time      0.0019: real time      0.0019
    TRIAL :  cpu time      0.1476: real time      0.1476
    CORREC:  cpu time      1.1490: real time      1.1492
    CHARGE:  cpu time      0.1175: real time      0.1175
    --------------------------------------------
      LOOP:  cpu time      2.4147: real time      2.4332

 eigenvalue-minimisations  :     0
 total energy-change (2. order) :-0.1142334E+00  (-0.5177369E-01)
 number of electron       8.0000000 magnetization 
 augmentation part       -0.0090000 magnetization 

 Free energy of the ion-electron system (eV)
  ---------------------------------------------------
  alpha Z        PSCENC =         0.02212312
  Ewald energy   TEWEN  =       172.96321032
  -Hartree energ DENC   =      -422.34447104
  -exchange      EXHF   =         0.00000000
  -V(xc)+E(xc)   XCENC  =        25.49903654
  PAW double counting   =      2719.49313455    -2717.94384599
  entropy T*S    EENTRO =        -0.00000000
  eigenvalues    EBANDS =       -99.09392904
  atomic energy  EATOM  =       301.87538970
  ---------------------------------------------------
  free energy    TOTEN  =       -19.52935185 eV

  energy without entropy =      -19.52935185  energy(sigma->0) =      -19.52935185


--------------------------------------------------------------------------------------------------------




--------------------------------------- Iteration      1(  10)  ---------------------------------------


    POTLOK:  cpu time      0.9854: real time      0.9857
    SETDIJ:  cpu time      0.0035: real time      0.0035
    TRIAL :  cpu time      0.1479: real time      0.1479
    CORREC:  cpu time      1.1501: real time      1.1509
    CHARGE:  cpu time      0.1173: real time      0.1173
    --------------------------------------------
      LOOP:  cpu time      2.4445: real time      2.4459

 eigenvalue-minimisations  :     0
 total energy-change (2. order) :-0.5050849E-01  (-0.1453804E-01)
 number of electron       8.0000000 magnetization 
 augmentation part       -0.0090536 magnetization 

 Free energy of the ion-electron system (eV)
  ---------------------------------------------------
  alpha Z        PSCENC =         0.02212312
  Ewald energy   TEWEN  =       172.96321032
  -Hartree energ DENC   =      -422.31603608
  -exchange      EXHF   =         0.00000000
  -V(xc)+E(xc)   XCENC  =        25.50341528
  PAW double counting   =      2599.61236562    -2598.06441975
  entropy T*S    EENTRO =        -0.00000000
  eigenvalues    EBANDS =       -99.17590855
  atomic energy  EATOM  =       301.87538970
  ---------------------------------------------------
  free energy    TOTEN  =       -19.57986034 eV

  energy without entropy =      -19.57986034  energy(sigma->0) =      -19.57986034


--------------------------------------------------------------------------------------------------------




--------------------------------------- Iteration      1(  11)  ---------------------------------------


    POTLOK:  cpu time      0.9844: real time      0.9848
    SETDIJ:  cpu time      0.0015: real time      0.0015
    TRIAL :  cpu time      0.1481: real time      0.1481
    CORREC:  cpu time      1.1303: real time      1.1306
    CHARGE:  cpu time      0.1190: real time      0.1190
    --------------------------------------------
      LOOP:  cpu time      2.3961: real time      2.4142

 eigenvalue-minimisations  :     0
 total energy-change (2. order) :-0.1444989E-01  (-0.3611790E-02)
 number of electron       8.0000000 magnetization 
 augmentation part       -0.0089154 magnetization 

 Free energy of the ion-electron system (eV)
  ---------------------------------------------------
  alpha Z        PSCENC =         0.02212312
  Ewald energy   TEWEN  =       172.96321032
  -Hartree energ DENC   =      -421.93163017
  -exchange      EXHF   =         0.00000000
  -V(xc)+E(xc)   XCENC  =        25.47409533
  PAW double counting   =      2540.26678841    -2538.72006855
  entropy T*S    EENTRO =        -0.00000000
  eigenvalues    EBANDS =       -99.54421838
  atomic energy  EATOM  =       301.87538970
  ---------------------------------------------------
  free energy    TOTEN  =       -19.59431022 eV

  energy without entropy =      -19.59431022  energy(sigma->0) =      -19.59431022


--------------------------------------------------------------------------------------------------------




--------------------------------------- Iteration      1(  12)  ---------------------------------------


    POTLOK:  cpu time      0.9709: real time      0.9712
    SETDIJ:  cpu time      0.0030: real time      0.0030
    TRIAL :  cpu time      0.1479: real time      0.1480
    CORREC:  cpu time      1.1273: real time      1.1277
    CHARGE:  cpu time      0.1185: real time      0.1189
    --------------------------------------------
      LOOP:  cpu time      2.3834: real time      2.3985

 eigenvalue-minimisations  :     0
 total energy-change (2. order) :-0.3611103E-02  (-0.1089988E-02)
 number of electron       8.0000000 magnetization 
 augmentation part       -0.0087521 magnetization 

 Free energy of the ion-electron system (eV)
  ---------------------------------------------------
  alpha Z        PSCENC =         0.02212312
  Ewald energy   TEWEN  =       172.96321032
  -Hartree energ DENC   =      -421.94183998
  -exchange      EXHF   =         0.00000000
  -V(xc)+E(xc)   XCENC  =        25.46876900
  PAW double counting   =      2528.50964535    -2526.96444897
  entropy T*S    EENTRO =        -0.00000000
  eigenvalues    EBANDS =       -99.53076988
  atomic energy  EATOM  =       301.87538970
  ---------------------------------------------------
  free energy    TOTEN  =       -19.59792133 eV

  energy without entropy =      -19.59792133  energy(sigma->0) =      -19.59792133


--------------------------------------------------------------------------------------------------------




--------------------------------------- Iteration      1(  13)  ---------------------------------------


    POTLOK:  cpu time      0.9710: real time      0.9714
    SETDIJ:  cpu time      0.0026: real time      0.0026
    TRIAL :  cpu time      0.1475: real time      0.1475
    CORREC:  cpu time      1.1262: real time      1.1264
    CHARGE:  cpu time      0.1179: real time      0.1179
    --------------------------------------------
      LOOP:  cpu time      2.3776: real time      2.3962

 eigenvalue-minimisations  :     0
 total energy-change (2. order) :-0.1090554E-02  (-0.3199973E-03)
 number of electron       8.0000000 magnetization 
 augmentation part       -0.0086679 magnetization 

 Free energy of the ion-electron system (eV)
  ---------------------------------------------------
  alpha Z        PSCENC =         0.02212312
  Ewald energy   TEWEN  =       172.96321032
  -Hartree energ DENC   =      -422.00649785
  -exchange      EXHF   =         0.00000000
  -V(xc)+E(xc)   XCENC  =        25.46885853
  PAW double counting   =      2536.05306464    -2534.50878517
  entropy T*S    EENTRO =        -0.00000000
  eigenvalues    EBANDS =       -99.46637517
  atomic energy  EATOM  =       301.87538970
  ---------------------------------------------------
  free energy    TOTEN  =       -19.59901188 eV

  energy without entropy =      -19.59901188  energy(sigma->0) =      -19.59901188


--------------------------------------------------------------------------------------------------------




--------------------------------------- Iteration      1(  14)  ---------------------------------------


    POTLOK:  cpu time      0.9634: real time      0.9638
    SETDIJ:  cpu time      0.0026: real time      0.0026
    TRIAL :  cpu time      0.1473: real time      0.1473
    CORREC:  cpu time      1.1194: real time      1.1198
    CHARGE:  cpu time      0.1166: real time      0.1166
    --------------------------------------------
      LOOP:  cpu time      2.3650: real time      2.3806

 eigenvalue-minimisations  :     0
 total energy-change (2. order) :-0.3207323E-03  (-0.9291879E-04)
 number of electron       8.0000000 magnetization 
 augmentation part       -0.0086125 magnetization 

 Free energy of the ion-electron system (eV)
  ---------------------------------------------------
  alpha Z        PSCENC =         0.02212312
  Ewald energy   TEWEN  =       172.96321032
  -Hartree energ DENC   =      -421.96633198
  -exchange      EXHF   =         0.00000000
  -V(xc)+E(xc)   XCENC  =        25.46507091
  PAW double counting   =      2542.64429688    -2541.10014312
  entropy T*S    EENTRO =        -0.00000000
  eigenvalues    EBANDS =       -99.50294843
  atomic energy  EATOM  =       301.87538970
  ---------------------------------------------------
  free energy    TOTEN  =       -19.59933261 eV

  energy without entropy =      -19.59933261  energy(sigma->0) =      -19.59933261


--------------------------------------------------------------------------------------------------------




--------------------------------------- Iteration      1(  15)  ---------------------------------------


    POTLOK:  cpu time      0.9578: real time      0.9581
    SETDIJ:  cpu time      0.0024: real time      0.0024
    TRIAL :  cpu time      0.1481: real time      0.1481
    CORREC:  cpu time      1.1102: real time      1.1108
    CHARGE:  cpu time      0.1180: real time      0.1180
    --------------------------------------------
      LOOP:  cpu time      2.3522: real time      2.3693

 eigenvalue-minimisations  :     0
 total energy-change (2. order) :-0.9330140E-04  (-0.2883347E-04)
 number of electron       8.0000000 magnetization 
 augmentation part       -0.0085748 magnetization 

 Free energy of the ion-electron system (eV)
  ---------------------------------------------------
  alpha Z        PSCENC =         0.02212312
  Ewald energy   TEWEN  =       172.96321032
  -Hartree energ DENC   =      -422.01439383
  -exchange      EXHF   =         0.00000000
  -V(xc)+E(xc)   XCENC  =        25.46727910
  PAW double counting   =      2543.00863787    -2541.46473933
  entropy T*S    EENTRO =        -0.00000000
  eigenvalues    EBANDS =       -99.45693286
  atomic energy  EATOM  =       301.87538970
  ---------------------------------------------------
  free energy    TOTEN  =       -19.59942591 eV

  energy without entropy =      -19.59942591  energy(sigma->0) =      -19.59942591


--------------------------------------------------------------------------------------------------------




--------------------------------------- Iteration      1(  16)  ---------------------------------------


    POTLOK:  cpu time      0.9479: real time      0.9482
    SETDIJ:  cpu time      0.0035: real time      0.0035
    TRIAL :  cpu time      0.1476: real time      0.1477
    CORREC:  cpu time      1.1077: real time      1.1081
    CHARGE:  cpu time      0.1173: real time      0.1173
    --------------------------------------------
      LOOP:  cpu time      2.3402: real time      2.3551

 eigenvalue-minimisations  :     0
 total energy-change (2. order) :-0.2907738E-04  (-0.8787715E-05)
 number of electron       8.0000000 magnetization 
 augmentation part       -0.0085480 magnetization 

 Free energy of the ion-electron system (eV)
  ---------------------------------------------------
  alpha Z        PSCENC =         0.02212312
  Ewald energy   TEWEN  =       172.96321032
  -Hartree energ DENC   =      -422.01054890
  -exchange      EXHF   =         0.00000000
  -V(xc)+E(xc)   XCENC  =        25.46703072
  PAW double counting   =      2542.16489902    -2540.62102425
  entropy T*S    EENTRO =        -0.00000000
  eigenvalues    EBANDS =       -99.46053472
  atomic energy  EATOM  =       301.87538970
  ---------------------------------------------------
  free energy    TOTEN  =       -19.59945499 eV

  energy without entropy =      -19.59945499  energy(sigma->0) =      -19.59945499


--------------------------------------------------------------------------------------------------------




--------------------------------------- Iteration      1(  17)  ---------------------------------------


    POTLOK:  cpu time      0.9474: real time      0.9478
    SETDIJ:  cpu time      0.0007: real time      0.0008
    TRIAL :  cpu time      0.1475: real time      0.1475
    CORREC:  cpu time      1.1070: real time      1.1074
    CHARGE:  cpu time      0.1173: real time      0.1173
    --------------------------------------------
      LOOP:  cpu time      2.3372: real time      2.3520

 eigenvalue-minimisations  :     0
 total energy-change (2. order) :-0.8881135E-05  (-0.2541905E-05)
 number of electron       8.0000000 magnetization 
 augmentation part       -0.0085388 magnetization 

 Free energy of the ion-electron system (eV)
  ---------------------------------------------------
  alpha Z        PSCENC =         0.02212312
  Ewald energy   TEWEN  =       172.96321032
  -Hartree energ DENC   =      -422.02053574
  -exchange      EXHF   =         0.00000000
  -V(xc)+E(xc)   XCENC  =        25.46767658
  PAW double counting   =      2541.80141289    -2540.25758664
  entropy T*S    EENTRO =        -0.00000000
  eigenvalues    EBANDS =       -99.45115410
  atomic energy  EATOM  =       301.87538970
  ---------------------------------------------------
  free energy    TOTEN  =       -19.59946387 eV

  energy without entropy =      -19.59946387  energy(sigma->0) =      -19.59946387


--------------------------------------------------------------------------------------------------------




--------------------------------------- Iteration      1(  18)  ---------------------------------------


    POTLOK:  cpu time      0.9444: real time      0.9448
    SETDIJ:  cpu time      0.0018: real time      0.0018
    TRIAL :  cpu time      0.1477: real time      0.1482
    CORREC:  cpu time      1.1062: real time      1.1066
    CHARGE:  cpu time      0.1170: real time      0.1170
    --------------------------------------------
      LOOP:  cpu time      2.3477: real time      2.3494

 eigenvalue-minimisations  :     0
 total energy-change (2. order) :-0.2560647E-05  (-0.7931506E-06)
 number of electron       8.0000000 magnetization 
 augmentation part       -0.0085392 magnetization 

 Free energy of the ion-electron system (eV)
  ---------------------------------------------------
  alpha Z        PSCENC =         0.02212312
  Ewald energy   TEWEN  =       172.96321032
  -Hartree energ DENC   =      -422.02444001
  -exchange      EXHF   =         0.00000000
  -V(xc)+E(xc)   XCENC  =        25.46799994
  PAW double counting   =      2542.34794329    -2540.80412859
  entropy T*S    EENTRO =        -0.00000000
  eigenvalues    EBANDS =       -99.44756422
  atomic energy  EATOM  =       301.87538970
  ---------------------------------------------------
  free energy    TOTEN  =       -19.59946643 eV

  energy without entropy =      -19.59946643  energy(sigma->0) =      -19.59946643


--------------------------------------------------------------------------------------------------------




--------------------------------------- Iteration      1(  19)  ---------------------------------------


    POTLOK:  cpu time      0.9454: real time      0.9457
    SETDIJ:  cpu time      0.0300: real time      0.0301
    TRIAL :  cpu time      0.1468: real time      0.1469
    CORREC:  cpu time      1.1079: real time      1.1083
    CHARGE:  cpu time      0.1179: real time      0.1179
    --------------------------------------------
      LOOP:  cpu time      2.3669: real time      2.3829

 eigenvalue-minimisations  :     0
 total energy-change (2. order) :-0.7919066E-06  (-0.2447414E-06)
 number of electron       8.0000000 magnetization 
 augmentation part       -0.0085407 magnetization 

 Free energy of the ion-electron system (eV)
  ---------------------------------------------------
  alpha Z        PSCENC =         0.02212312
  Ewald energy   TEWEN  =       172.96321032
  -Hartree energ DENC   =      -422.02079363
  -exchange      EXHF   =         0.00000000
  -V(xc)+E(xc)   XCENC  =        25.46787709
  PAW double counting   =      2543.22563153    -2541.68179399
  entropy T*S    EENTRO =        -0.00000000
  eigenvalues    EBANDS =       -99.45111136
  atomic energy  EATOM  =       301.87538970
  ---------------------------------------------------
  free energy    TOTEN  =       -19.59946723 eV

  energy without entropy =      -19.59946723  energy(sigma->0) =      -19.59946723


--------------------------------------------------------------------------------------------------------




--------------------------------------- Iteration      1(  20)  ---------------------------------------


    POTLOK:  cpu time      0.9454: real time      0.9456
    SETDIJ:  cpu time      0.0008: real time      0.0008
    TRIAL :  cpu time      0.1471: real time      0.1471
    CORREC:  cpu time      1.1083: real time      1.1086
    CHARGE:  cpu time      0.1176: real time      0.1176
    --------------------------------------------
      LOOP:  cpu time      2.3369: real time      2.3517

 eigenvalue-minimisations  :     0
 total energy-change (2. order) :-0.2226066E-06  (-0.5185955E-07)
 number of electron       8.0000000 magnetization 
 augmentation part       -0.0085428 magnetization 

 Free energy of the ion-electron system (eV)
  ---------------------------------------------------
  alpha Z        PSCENC =         0.02212312
  Ewald energy   TEWEN  =       172.96321032
  -Hartree energ DENC   =      -422.02361425
  -exchange      EXHF   =         0.00000000
  -V(xc)+E(xc)   XCENC  =        25.46807853
  PAW double counting   =      2543.84306947    -2542.29923022
  entropy T*S    EENTRO =        -0.00000000
  eigenvalues    EBANDS =       -99.44849411
  atomic energy  EATOM  =       301.87538970
  ---------------------------------------------------
  free energy    TOTEN  =       -19.59946745 eV

  energy without entropy =      -19.59946745  energy(sigma->0) =      -19.59946745


--------------------------------------------------------------------------------------------------------




--------------------------------------- Iteration      1(  21)  ---------------------------------------


    POTLOK:  cpu time      0.9435: real time      0.9439
    SETDIJ:  cpu time      0.0024: real time      0.0024
    TRIAL :  cpu time      0.1474: real time      0.1478
    CORREC:  cpu time      1.1045: real time      1.1049
    EDDIAG:  cpu time      0.0656: real time      0.0661
    CHARGE:  cpu time      0.1167: real time      0.1167
    --------------------------------------------
      LOOP:  cpu time      2.3958: real time      2.4123

 eigenvalue-minimisations  :     0
 total energy-change (2. order) :-0.5061656E-07  (-0.2752038E-07)
 number of electron       8.0000000 magnetization 
 augmentation part       -0.0085434 magnetization 

 Free energy of the ion-electron system (eV)
  ---------------------------------------------------
  alpha Z        PSCENC =         0.02212312
  Ewald energy   TEWEN  =       172.96321032
  -Hartree energ DENC   =      -422.02141618
  -exchange      EXHF   =         0.00000000
  -V(xc)+E(xc)   XCENC  =        25.46796834
  PAW double counting   =      2544.04340750    -2542.49955567
  entropy T*S    EENTRO =        -0.00000000
  eigenvalues    EBANDS =       -99.45059463
  atomic energy  EATOM  =       301.87538970
  ---------------------------------------------------
  free energy    TOTEN  =       -19.59946750 eV

  energy without entropy =      -19.59946750  energy(sigma->0) =      -19.59946750


--------------------------------------------------------------------------------------------------------


  average scaling for gradient   1.1331


 average (electrostatic) potential at core
  the test charge radii are     0.4325  0.5902
  (the norm of the test charge is              1.0000)
       1 -46.3017       2 -46.3020       3 -46.3026       4-103.0608



 E-fermi :  -6.0424     XC(G=0):  -0.0976     alpha+bet : -0.0217

 Fermi energy:        -6.0423543766

 k-point     1 :       0.0000    0.0000    0.0000
  band No.  band energies     occupation 
      1     -21.1575      2.00000
      2     -11.2234      2.00000
      3     -11.2226      2.00000
      4      -6.1215      2.00000
      5      -0.8011      0.00000
      6       0.0543      0.00000
      7       0.2721      0.00000
      8       0.2724      0.00000


--------------------------------------------------------------------------------------------------------


 soft charge-density along one line, spin component           1
         0         1         2         3         4         5         6         7         8         9
 total charge-density along one line

 pseudopotential strength for first ion, spin component:           1
 -2.531  -5.380   0.000  -0.000   0.001
 -5.380 -11.413   0.001  -0.001   0.002
  0.000   0.001  -1.398  -0.000   0.001
 -0.000  -0.001  -0.000  -1.397  -0.001
  0.001   0.002   0.001  -0.001  -1.396
 total augmentation occupancy for first ion, spin component:           1
  3.884  -0.647  -0.087   0.143  -0.241
 -0.647   0.126   0.016  -0.023   0.042
 -0.087   0.016   0.006  -0.001   0.005
  0.143  -0.023  -0.001   0.010  -0.006
 -0.241   0.042   0.005  -0.006   0.017


------------------------ aborting loop because EDIFF is reached ----------------------------------------


    FORLOC:  cpu time      0.0295: real time      0.0295
    FORNL :  cpu time      0.0083: real time      0.0083
    FORCOR:  cpu time      0.8409: real time      0.8414
    OFIELD:  cpu time      0.0071: real time      0.0071

 ---------------------------------------------------------------------------------------------

         DFTD3 V3.0 Rev 1        
 IVDW         = 11
 DF revpbe    
 parameters
 VDW_S6       =    1.0000
 VDW_S8       =    1.0100
 VDW_SR       =    0.9230
 rs18     =    1.0000
 alpha6   =   14.0000
 alpha8   =   16.0000
 k1-k3    =   16.0000    1.3333   -4.0000
 VDW_RADIUS   =   50.2022 A
 VDW_CNRADIUS =   21.1671 A
 Edisp (eV)   -0.00325

 E6    (eV) :    -0.0026
 E8    (eV) :    -0.0006
 % E8        : 19.08
    FORVDW:  cpu time      0.0745: real time      0.0763

 VOLUME and BASIS-vectors are now :
 -----------------------------------------------------------------------------
  energy-cutoff  :     1000.00
  volume of cell :     8000.00
      direct lattice vectors                 reciprocal lattice vectors
    20.000000000  0.000000000  0.000000000     0.050000000  0.000000000  0.000000000
     0.000000000 20.000000000  0.000000000     0.000000000  0.050000000  0.000000000
     0.000000000  0.000000000 20.000000000     0.000000000  0.000000000  0.050000000

  length of vectors
    20.000000000 20.000000000 20.000000000     0.050000000  0.050000000  0.050000000


 FORCES acting on ions:
    Electron-Ion                     Ewald-Force                    Non-Local-Force
 -----------------------------------------------------------------------------------------------
   -.574E+02 -.197E+02 0.362E+02   0.633E+02 0.218E+02 -.398E+02   -.585E+01 -.206E+01 0.357E+01
   -.197E+02 0.362E+02 -.574E+02   0.218E+02 -.398E+02 0.633E+02   -.206E+01 0.357E+01 -.585E+01
   0.362E+02 -.574E+02 -.197E+02   -.398E+02 0.633E+02 0.218E+02   0.357E+01 -.585E+01 -.206E+01
   0.268E+02 0.268E+02 0.268E+02   -.453E+02 -.453E+02 -.453E+02   0.187E+02 0.187E+02 0.187E+02
 -----------------------------------------------------------------------------------------------
   -.143E+02 -.143E+02 -.143E+02   0.000E+00 0.711E-14 0.000E+00   0.143E+02 0.143E+02 0.143E+02


 POSITION                                       TOTAL-FORCE (eV/Angst)
 -----------------------------------------------------------------------------------
     10.66327     10.12950      9.33673         0.074387      0.037081     -0.018943
     10.12951      9.33673     10.66327         0.037037     -0.019253      0.075717
      9.33673     10.66327     10.12951        -0.020341      0.077319      0.038197
      9.82044      9.82050      9.82051        -0.091083     -0.095147     -0.094970
 -----------------------------------------------------------------------------------
    total drift:                                0.000468      0.000472      0.000470


--------------------------------------------------------------------------------------------------------



  FREE ENERGIE OF THE ION-ELECTRON SYSTEM (eV)
  ---------------------------------------------------
  free  energy   TOTEN  =       -19.60271609 eV

  energy  without entropy=      -19.60271609  energy(sigma->0) =      -19.60271609



--------------------------------------------------------------------------------------------------------


    POTLOK:  cpu time      0.9512: real time      0.9517


--------------------------------------------------------------------------------------------------------


 stress matrix after NEB project (eV)
      0.00855     -0.00424     -0.00424
     -0.00424      0.00855     -0.00424
     -0.00424     -0.00424      0.00855
  FORCES: max atom, RMS     0.162383    0.110637
  FORCE total and by dimension    0.221274    0.095147
  Stress total and by dimension    0.018094    0.008550
     LOOP+:  cpu time     42.7454: real time     43.0334
    4ORBIT:  cpu time      0.0000: real time      0.0000

 total amount of memory used by VASP MPI-rank0   113744. kBytes
=======================================================================

   base      :      30000. kBytes
   nonl-proj :       1724. kBytes
   fftplans  :      29139. kBytes
   grid      :      52019. kBytes
   one-center:          1. kBytes
   wavefun   :        861. kBytes

  
  
 General timing and accounting informations for this job:
 ========================================================
  
                  Total CPU time used (sec):       55.266
                            User time (sec):       53.062
                          System time (sec):        2.203
                         Elapsed time (sec):       59.130
  
                   Maximum memory used (kb):      323164.
                   Average memory used (kb):          N/A
  
                          Minor page faults:       158729
                          Major page faults:         1186
                 Voluntary context switches:         3332
