 vasp.6.4.1 05Apr23 (build Jun  6 2023 14:46:38) gamma-only                      
 executed on        HPECrayEX_GCC date 2024.08.21  01:11:20
 running  256 mpi-ranks, with    1 threads/rank, on    2 nodes
 distrk:  each k-point on  128 cores,    2 groups
 distr:  one band on NCORE=  32 cores,    4 groups


--------------------------------------------------------------------------------------------------------


 INCAR:
   ALGO = Conjugate
   KPAR = 2
   NCORE = 32
   ISMEAR = 0
   SIGMA = 0.01
   PREC = Accurate
   EDIFF = 1E-7
   ENCUT = 1000
   ISIF = 0
   METAGGA = SCAN
   LUSE_VDW = .TRUE.
   BPARAM = 15.7
   LASPH = .TRUE.
   SYMPREC = 1E-7
   NELM = 200
   LWAVE = .FALSE.
   LCHARG = .FALSE.

 POTCAR:    PAW_PBE H_h 06Feb2004                 
 POTCAR:    PAW_PBE N_h 06Feb2004                 
 -----------------------------------------------------------------------------
|                                                                             |
|               ----> ADVICE to this user running VASP <----                  |
|                                                                             |
|     You have switched on vdW-DFT.                                           |
|     This routine was written and supplied by Jiri Klimes. We recommend      |
|     that you carefully read and cite the following publications:            |
|       J. Klimes, D.R. Bowler, A. Michelides                                 |
|          J. Phys.: Cond Matt. 22 022201 (2010)                              |
|       J. Klimes, D.R. Bowler, A. Michelides                                 |
|          Phys. Rev. B. 83, 195131 (2011)                                    |
|     and references therein.                                                 |
|                                                                             |
 -----------------------------------------------------------------------------

 POTCAR:    PAW_PBE H_h 06Feb2004                 
   VRHFIN =H: ultrasoft test                                                                        
   LEXCH  = PE                                                                                      
   EATOM  =    12.4884 eV,    0.9179 Ry                                                             
                                                                                                    
   TITEL  = PAW_PBE H_h 06Feb2004                                                                   
   LULTRA =        F    use ultrasoft PP ?                                                          
   IUNSCR =        0    unscreen: 0-lin 1-nonlin 2-no                                               
   RPACOR =    0.000    partial core radius                                                         
   POMASS =    1.000; ZVAL   =    1.000    mass and valenz                                          
   RCORE  =    0.800    outmost cutoff radius                                                       
   RWIGS  =    0.700; RWIGS  =    0.370    wigner-seitz radius (au A)                               
   ENMAX  =  700.000; ENMIN  =  350.000 eV                                                          
   RCLOC  =    0.701    cutoff for local pot                                                        
   LCOR   =        T    correct aug charges                                                         
   LPAW   =        T    paw PP                                                                      
   EAUG   = 1000.000                                                                                
   RMAX   =    0.819    core radius for proj-oper                                                   
   RAUG   =    1.000    factor for augmentation sphere                                              
   RDEP   =    0.817    radius for radial grids                                                     
   RDEPT  =    0.817    core radius for aug-charge                                                  
                                                                                                    
   Atomic configuration                                                                             
    2 entries                                                                                       
     n  l   j            E        occ.                                                              
     1  0  0.50        -6.4927   1.0000                                                             
     2  1  0.50        -3.4015   0.0000                                                             
   Description                                                                                      
     l       E           TYP  RCUT    TYP  RCUT                                                     
     0     -6.4927493     23  0.800                                                                 
     0      6.8029130     23  0.800                                                                 
     1     -6.8029130     23  0.800                                                                 
  local pseudopotential read in
  atomic valenz-charges read in
  non local Contribution for L=           0  read in
    real space projection operators read in
  non local Contribution for L=           0  read in
    real space projection operators read in
  non local Contribution for L=           1  read in
    real space projection operators read in
    PAW grid and wavefunctions read in

   number of l-projection  operators is LMAX  =           3
   number of lm-projection operators is LMMAX =           5

 POTCAR:    PAW_PBE N_h 06Feb2004                 
   VRHFIN =N: s2p3                                                                                  
   LEXCH  = PE                                                                                      
   EATOM  =   264.5486 eV,   19.4438 Ry                                                             
                                                                                                    
   TITEL  = PAW_PBE N_h 06Feb2004                                                                   
   LULTRA =        F    use ultrasoft PP ?                                                          
   IUNSCR =        1    unscreen: 0-lin 1-nonlin 2-no                                               
   RPACOR =    0.800    partial core radius                                                         
   POMASS =   14.001; ZVAL   =    5.000    mass and valenz                                          
   RCORE  =    1.100    outmost cutoff radius                                                       
   RWIGS  =    1.480; RWIGS  =    0.783    wigner-seitz radius (au A)                               
   ENMAX  =  700.000; ENMIN  =  500.000 eV                                                          
   ICORE  =        2    local potential                                                             
   LCOR   =        T    correct aug charges                                                         
   LPAW   =        T    paw PP                                                                      
   EAUG   =  904.640                                                                                
   DEXC   =    0.000                                                                                
   RMAX   =    1.127    core radius for proj-oper                                                   
   RAUG   =    1.300    factor for augmentation sphere                                              
   RDEP   =    1.115    radius for radial grids                                                     
   RDEPT  =    1.106    core radius for aug-charge                                                  
                                                                                                    
   Atomic configuration                                                                             
    4 entries                                                                                       
     n  l   j            E        occ.                                                              
     1  0  0.50      -384.7179   2.0000                                                             
     2  0  0.50       -18.5828   2.0000                                                             
     2  1  0.50        -7.0898   3.0000                                                             
     3  2  1.50        -6.8029   0.0000                                                             
   Description                                                                                      
     l       E           TYP  RCUT    TYP  RCUT                                                     
     0    -18.5828117     23  1.100                                                                 
     0    -15.0750597     23  1.100                                                                 
     1     -7.0897851     23  1.100                                                                 
     1     -1.9663412     23  1.100                                                                 
     2     -6.8029130      7  1.100                                                                 
  local pseudopotential read in
  partial core-charges read in
  partial kinetic energy density read in
  kinetic energy density of atom read in
  atomic valenz-charges read in
  non local Contribution for L=           0  read in
    real space projection operators read in
  non local Contribution for L=           0  read in
    real space projection operators read in
  non local Contribution for L=           1  read in
    real space projection operators read in
  non local Contribution for L=           1  read in
    real space projection operators read in
    PAW grid and wavefunctions read in

   number of l-projection  operators is LMAX  =           4
   number of lm-projection operators is LMMAX =           8

  PAW_PBE H_h 06Feb2004                 :
 energy of atom  1       EATOM=  -12.4884
 kinetic energy error for atom=    0.0006 (will be added to EATOM!!)
  PAW_PBE N_h 06Feb2004                 :
 energy of atom  2       EATOM= -264.5486
 kinetic energy error for atom=    0.0081 (will be added to EATOM!!)


 POSCAR:  H  N
  positions in cartesian coordinates
  No initial velocities read in

 METAGGA = SCAN                                        LMAXTAU =  6    LMIXTAU =  F

 exchange correlation table for  LEXCH =        8
   RHO(1)=    0.500       N(1)  =     2000
   RHO(2)=  100.500       N(2)  =     4000

 VTST: version 4.1, (05/19/21)

 CHAIN: initializing optimizer
 
 OPT: Using VASP Dynamics algorithm
 CHAIN: Read ICHAIN            0

 POSCAR:  H  N
  positions in cartesian coordinates
  No initial velocities read in



--------------------------------------------------------------------------------------------------------


 ion  position               nearest neighbor table
   1  0.533  0.506  0.467-   4 1.02
   2  0.506  0.467  0.533-   4 1.02
   3  0.467  0.533  0.506-   4 1.02
   4  0.491  0.491  0.491-   3 1.02   2 1.02   1 1.02

  LATTYP: Found a simple cubic cell.
 ALAT       =    20.0000000000
  
  Lattice vectors:
  
 A1 = (  20.0000000000,   0.0000000000,   0.0000000000)
 A2 = (   0.0000000000,  20.0000000000,   0.0000000000)
 A3 = (   0.0000000000,   0.0000000000,  20.0000000000)


Analysis of symmetry for initial positions (statically):
=====================================================================
 Subroutine PRICEL returns:
 Original cell was already a primitive cell.
 

 Routine SETGRP: Setting up the symmetry group for a 
 simple cubic supercell.


 Subroutine GETGRP returns: Found  1 space group operations
 (whereof  1 operations were pure point group operations)
 out of a pool of 48 trial point group operations.


The static configuration has the point symmetry C_1 .


Analysis of symmetry for dynamics (positions and initial velocities):
=====================================================================
 Subroutine PRICEL returns:
 Original cell was already a primitive cell.
 

 Routine SETGRP: Setting up the symmetry group for a 
 simple cubic supercell.


 Subroutine GETGRP returns: Found  1 space group operations
 (whereof  1 operations were pure point group operations)
 out of a pool of 48 trial point group operations.


The dynamic configuration has the point symmetry C_1 .


 Subroutine INISYM returns: Found  1 space group operations
 (whereof  1 operations are pure point group operations),
 and found     1 'primitive' translations


----------------------------------------------------------------------------------------

                                     Primitive cell                                     

  volume of cell :    8000.0000

  direct lattice vectors                    reciprocal lattice vectors
    20.000000000  0.000000000  0.000000000     0.050000000  0.000000000  0.000000000
     0.000000000 20.000000000  0.000000000     0.000000000  0.050000000  0.000000000
     0.000000000  0.000000000 20.000000000     0.000000000  0.000000000  0.050000000

  length of vectors
    20.000000000 20.000000000 20.000000000     0.050000000  0.050000000  0.050000000

  position of ions in fractional coordinates (direct lattice)
     0.533163250  0.506474750  0.466836500
     0.506475750  0.466836250  0.533163500
     0.466836750  0.533163750  0.506475500
     0.491021750  0.491025250  0.491025500

  ion indices of the primitive-cell ions
   primitive index   ion index
                 1           1
                 2           2
                 3           3
                 4           4

----------------------------------------------------------------------------------------



 KPOINTS: auto                                    

Automatic generation of k-mesh.
 Grid dimensions read from file:
 generate k-points for:    1    1    1

 Generating k-lattice:

  Cartesian coordinates                     Fractional coordinates (reciprocal lattice)
     0.050000000  0.000000000  0.000000000     1.000000000  0.000000000  0.000000000
     0.000000000  0.050000000  0.000000000     0.000000000  1.000000000  0.000000000
     0.000000000  0.000000000  0.050000000     0.000000000  0.000000000  1.000000000

  Length of vectors
     0.050000000  0.050000000  0.050000000

  Shift w.r.t. Gamma in fractional coordinates (k-lattice)
     0.000000000  0.000000000  0.000000000

 
 Subroutine IBZKPT returns following result:
 ===========================================
 
 Found      1 irreducible k-points:
 
 Following reciprocal coordinates:
            Coordinates               Weight
  0.000000  0.000000  0.000000      1.000000
 
 Following cartesian coordinates:
            Coordinates               Weight
  0.000000  0.000000  0.000000      1.000000
 


--------------------------------------------------------------------------------------------------------




 Dimension of arrays:
   k-points           NKPTS =      1   k-points in BZ     NKDIM =      1   number of bands    NBANDS=      8
   number of dos      NEDOS =    301   number of ions     NIONS =      4
   non local maximal  LDIM  =      4   non local SUM 2l+1 LMDIM =      8
   total plane-waves  NPLWV = ******
   max r-space proj   IRMAX =      1   max aug-charges    IRDMAX=   8421
   dimension x,y,z NGX =   210 NGY =  210 NGZ =  210
   dimension x,y,z NGXF=   420 NGYF=  420 NGZF=  420
   support grid    NGXF=   420 NGYF=  420 NGZF=  420
   ions per type =               3   1
   NGX,Y,Z   is equivalent  to a cutoff of  17.46, 17.46, 17.46 a.u.
   NGXF,Y,Z  is equivalent  to a cutoff of  34.91, 34.91, 34.91 a.u.

 SYSTEM =  unknown system                          
 POSCAR =   H  N                                   

 Startparameter for this run:
   NWRITE =      2    write-flag & timer
   PREC   = accura    normal or accurate (medium, high low for compatibility)
   ISTART =      0    job   : 0-new  1-cont  2-samecut
   ICHARG =      2    charge: 1-file 2-atom 10-const
   ISPIN  =      1    spin polarized calculation?
   LNONCOLLINEAR =      F non collinear calculations
   LSORBIT =      F    spin-orbit coupling
   INIWAV =      1    electr: 0-lowe 1-rand  2-diag
   LASPH  =      T    aspherical Exc in radial PAW
 Electronic Relaxation 1
   ENCUT  = 1000.0 eV  73.50 Ry    8.57 a.u.  51.57 51.57 51.57*2*pi/ulx,y,z
   ENINI  = 1000.0     initial cutoff
   ENAUG  = 1000.0 eV  augmentation charge cutoff
   NELM   =    200;   NELMIN=  2; NELMDL= -5     # of ELM steps 
   EDIFF  = 0.1E-06   stopping-criterion for ELM
   LREAL  =      F    real-space projection
   NLSPLINE    = F    spline interpolate recip. space projectors
   LCOMPAT=      F    compatible to vasp.4.4
   GGA_COMPAT  = T    GGA compatible to vasp.4.4-vasp.4.6
   LMAXPAW     = -100 max onsite density
   LMAXMIX     =    2 max onsite mixed and CHGCAR
   VOSKOWN=      0    Vosko Wilk Nusair interpolation
   ROPT   =    0.00000   0.00000
 Ionic relaxation
   EDIFFG = 0.1E-05   stopping-criterion for IOM
   NSW    =      0    number of steps for IOM
   NBLOCK =      1;   KBLOCK =      1    inner block; outer block 
   IBRION =     -1    ionic relax: 0-MD 1-quasi-New 2-CG
   NFREE  =      0    steps in history (QN), initial steepest desc. (CG)
   ISIF   =      0    stress and relaxation
   IWAVPR =     10    prediction:  0-non 1-charg 2-wave 3-comb
   ISYM   =      2    0-nonsym 1-usesym 2-fastsym
   LCORR  =      T    Harris-Foulkes like correction to forces

   POTIM  = 0.5000    time-step for ionic-motion
   TEIN   =    0.0    initial temperature
   TEBEG  =    0.0;   TEEND  =   0.0 temperature during run
   SMASS  =  -3.00    Nose mass-parameter (am)
   estimated Nose-frequenzy (Omega)   =  0.10E-29 period in steps = 0.13E+47 mass=  -0.914E-26a.u.
   SCALEE = 1.0000    scale energy and forces
   NPACO  =    256;   APACO  = 10.0  distance and # of slots for P.C.
   PSTRESS=    0.0 pullay stress

  Mass of Ions in am
   POMASS =   1.00 14.00
  Ionic Valenz
   ZVAL   =   1.00  5.00
  Atomic Wigner-Seitz radii
   RWIGS  =  -1.00 -1.00
  virtual crystal weights 
   VCA    =   1.00  1.00
   NELECT =       8.0000    total number of electrons
   NUPDOWN=      -1.0000    fix difference up-down

 DOS related values:
   EMIN   =  10.00;   EMAX   =-10.00  energy-range for DOS
   EFERMI =   0.00;   METHOD = LEGACY      
   ISMEAR =     0;   SIGMA  =   0.01  broadening in eV -4-tet -1-fermi 0-gaus

 Electronic relaxation 2 (details)
   IALGO  =     58    algorithm
   LDIAG  =      T    sub-space diagonalisation (order eigenvalues)
   LSUBROT=      F    optimize rotation matrix (better conditioning)
   TURBO    =      0    0=normal 1=particle mesh
   IRESTART =      0    0=no restart 2=restart with 2 vectors
   NREBOOT  =      0    no. of reboots
   NMIN     =      0    reboot dimension
   EREF     =   0.00    reference energy to select bands
   IMIX   =      4    mixing-type and parameters
     AMIX     =   0.40;   BMIX     =  1.00
     AMIX_MAG =   1.60;   BMIX_MAG =  1.00
     AMIN     =   0.10
     WC   =   100.;   INIMIX=   1;  MIXPRE=   1;  MAXMIX= -45

 Intra band minimization:
   WEIMIN = 0.0000     energy-eigenvalue tresh-hold
   EBREAK =  0.31E-08  absolut break condition
   DEPER  =   0.30     relativ break condition  

   TIME   =   0.40     timestep for ELM

  volume/ion in A,a.u.               =    2000.00     13496.67
  Fermi-wavevector in a.u.,A,eV,Ry     =   0.163710  0.309367  0.364649  0.026801
  Thomas-Fermi vector in A             =   0.862763

 Write flags
   LWAVE        =      F    write WAVECAR
   LDOWNSAMPLE  =      F    k-point downsampling of WAVECAR
   LCHARG       =      F    write CHGCAR
   LVTOT        =      F    write LOCPOT, total local potential
   LVHAR        =      F    write LOCPOT, Hartree potential only
   LELF         =      F    write electronic localiz. function (ELF)
   LORBIT       =      0    0 simple, 1 ext, 2 COOP (PROOUT), +10 PAW based schemes


 Dipole corrections
   LMONO  =      F    monopole corrections only (constant potential shift)
   LDIPOL =      F    correct potential (dipole corrections)
   IDIPOL =      0    1-x, 2-y, 3-z, 4-all directions 
   EPSILON=  1.0000000 bulk dielectric constant

 Exchange correlation treatment:
   GGA     =    --    GGA type
   LEXCH   =     8    internal setting for exchange type
   LIBXC   =     F    Libxc                    
   VOSKOWN =     0    Vosko Wilk Nusair interpolation
   LHFCALC =     F    Hartree Fock is set to
   LHFONE  =     F    Hartree Fock one center treatment
   AEXX    =    0.0000 exact exchange contribution

 vdW DFT:
   LUSE_VDW   =     T    switch on vdW DFT
   IVDW_NL    =     2    kernel type
   LSPIN_VDW  =     F    use spin-polarized vdW DFT
   Zab_VDW    =-.8491    correlation parameter
   PARAM1     =0.1234
   PARAM2     =1.0000
   PARAM3     =0.0000
   -- rVV10 --
   BPARAM     =15.7000
   CPARAM     = 0.0093

 Linear response parameters
   LEPSILON=     F    determine dielectric tensor
   LRPA    =     F    only Hartree local field effects (RPA)
   LNABLA  =     F    use nabla operator in PAW spheres
   LVEL    =     F    velocity operator in full k-point grid
   CSHIFT  =0.1000    complex shift for real part using Kramers Kronig
   OMEGAMAX=  -1.0    maximum frequency
   DEG_THRESHOLD= 0.2000000E-02 threshold for treating states as degnerate
   RTIME   =   -0.100 relaxation time in fs
  (WPLASMAI=    0.000 imaginary part of plasma frequency in eV, 0.658/RTIME)
   DFIELD  = 0.0000000 0.0000000 0.0000000 field for delta impulse in time

  Optional k-point grid parameters
   LKPOINTS_OPT  =     F    use optional k-point grid
   KPOINTS_OPT_MODE=     1    mode for optional k-point grid

 Orbital magnetization related:
   ORBITALMAG=     F  switch on orbital magnetization
   LCHIMAG   =     F  perturbation theory with respect to B field
   DQ        =  0.001000  dq finite difference perturbation B field
   LLRAUG    =     F  two centre corrections for induced B field
   LBONE     =     F  B-component reconstruction in AE one-centre
   LVGVCALC  =     T  calculate vGv susceptibility
   LVGVAPPL  =     F  apply vGv susceptibility instead of pGv for G=0

 Random number generation:
   RANDOM_GENERATOR = DEFAULT
   PCG_SEED         = not used


--------------------------------------------------------------------------------------------------------


 Static calculation
 charge density and potential will be updated during run
 non-spin polarized calculation
 Conjugate gradient for all bands (Freysoldt, et al. PRB 79, 241103 (2009))
 preconditioned conjugated gradient                                        
 perform sub-space diagonalisation
    before iterative eigenvector-optimisation
 modified Broyden-mixing scheme, WC =      100.0
 initial mixing is a Kerker type mixing with AMIX =  0.4000 and BMIX =      1.0000
 Hartree-type preconditioning will be used
 using additional bands            4
 reciprocal scheme for non local part
 use partial core corrections
 no Harris-corrections to forces 
 use gradient corrections 
 use of overlap-Matrix (Vanderbilt PP)
 Gauss-broadening in eV      SIGMA  =   0.01


--------------------------------------------------------------------------------------------------------


  energy-cutoff  :     1000.00
  volume of cell :     8000.00
      direct lattice vectors                 reciprocal lattice vectors
    20.000000000  0.000000000  0.000000000     0.050000000  0.000000000  0.000000000
     0.000000000 20.000000000  0.000000000     0.000000000  0.050000000  0.000000000
     0.000000000  0.000000000 20.000000000     0.000000000  0.000000000  0.050000000

  length of vectors
    20.000000000 20.000000000 20.000000000     0.050000000  0.050000000  0.050000000



 k-points in units of 2pi/SCALE and weight: auto                                    
   0.00000000  0.00000000  0.00000000       1.000

 k-points in reciprocal lattice and weights: auto                                    
   0.00000000  0.00000000  0.00000000       1.000

 position of ions in fractional coordinates (direct lattice) 
   0.53316325  0.50647475  0.46683650
   0.50647575  0.46683625  0.53316350
   0.46683675  0.53316375  0.50647550
   0.49102175  0.49102525  0.49102550

 position of ions in cartesian coordinates  (Angst):
  10.66326500 10.12949500  9.33673000
  10.12951500  9.33672500 10.66327000
   9.33673500 10.66327500 10.12951000
   9.82043500  9.82050500  9.82051000



--------------------------------------------------------------------------------------------------------


 use parallel FFT for orbitals z direction half grid
 k-point   1 :   0.0000 0.0000 0.0000  plane waves:  287166

 maximum and minimum number of plane-waves per node :      8979     8970

 maximum number of plane-waves:    287166
 maximum index in each direction: 
   IXMAX=   51   IYMAX=   51   IZMAX=   51
   IXMIN=  -51   IYMIN=  -51   IZMIN=    0


 parallel 3D FFT for wavefunctions:
    minimum data exchange during FFTs selected (reduces bandwidth)
 parallel 3D FFT for charge:
    minimum data exchange during FFTs selected (reduces bandwidth)


 total amount of memory used by VASP MPI-rank0   129294. kBytes
=======================================================================

   base      :      30000. kBytes
   nonl-proj :       1724. kBytes
   fftplans  :      29139. kBytes
   grid      :      67569. kBytes
   one-center:          1. kBytes
   wavefun   :        861. kBytes

     INWAV:  cpu time      0.0000: real time      0.0000
 Broyden mixing: mesh for mixing (old mesh)
   NGX =103   NGY =103   NGZ =103
  (NGX  =420   NGY  =420   NGZ  =420)
  gives a total of ****** points

 initial charge density was supplied:
 charge density of overlapping atoms calculated
 number of electron       8.0000000 magnetization 
 keeping initial charge density in first step


--------------------------------------------------------------------------------------------------------


 Maximum index for augmentation-charges            0 (set IRDMAX)


--------------------------------------------------------------------------------------------------------


 First call to EWALD:  gamma=   0.089
 Maximum number of real-space cells 3x 3x 3
 Maximum number of reciprocal cells 3x 3x 3

    FEWALD:  cpu time      0.0010: real time      0.0010


--------------------------------------- Ionic step        1  -------------------------------------------




--------------------------------------- Iteration      1(   1)  ---------------------------------------


    POTLOK:  cpu time     22.5645: real time     22.5716
    SETDIJ:  cpu time      0.3744: real time      0.3746
    TRIAL :  cpu time      1.1921: real time      1.1942
    CORREC:  cpu time      0.0018: real time      0.0018
    --------------------------------------------
      LOOP:  cpu time     24.1435: real time     24.1529

 eigenvalue-minimisations  :    24
 total energy-change (2. order) : 0.7357196E+02  (-0.1527578E+03)
 number of electron       8.0000000 magnetization 
 augmentation part        8.0000000 magnetization 

 Free energy of the ion-electron system (eV)
  ---------------------------------------------------
  alpha Z        PSCENC =         0.02212312
  Ewald energy   TEWEN  =       172.96321032
  -Hartree energ DENC   =      -381.98205141
  -exchange      EXHF   =         0.00000000
  -V(xc)+E(xc)   XCENC  =        29.06386186
  PAW double counting   =       204.80663594     -205.72168960
  entropy T*S    EENTRO =        -0.00000000
  eigenvalues    EBANDS =       -47.58390638
  atomic energy  EATOM  =       302.00378002
  ---------------------------------------------------
  free energy    TOTEN  =        73.57196388 eV

  energy without entropy =       73.57196388  energy(sigma->0) =       73.57196388


--------------------------------------------------------------------------------------------------------




--------------------------------------- Iteration      1(   2)  ---------------------------------------


    TRIAL :  cpu time      1.3975: real time      1.3985
    CORREC:  cpu time      0.0001: real time      0.0001
    --------------------------------------------
      LOOP:  cpu time      1.4109: real time      1.4259

 eigenvalue-minimisations  :    32
 total energy-change (2. order) :-0.4440166E+02  (-0.4440166E+02)
 number of electron       8.0000000 magnetization 
 augmentation part        8.0000000 magnetization 

 Free energy of the ion-electron system (eV)
  ---------------------------------------------------
  alpha Z        PSCENC =         0.02212312
  Ewald energy   TEWEN  =       172.96321032
  -Hartree energ DENC   =      -381.98205141
  -exchange      EXHF   =         0.00000000
  -V(xc)+E(xc)   XCENC  =        29.06386186
  PAW double counting   =       204.80663594     -205.72168960
  entropy T*S    EENTRO =        -0.00000000
  eigenvalues    EBANDS =       -91.98556510
  atomic energy  EATOM  =       302.00378002
  ---------------------------------------------------
  free energy    TOTEN  =        29.17030517 eV

  energy without entropy =       29.17030517  energy(sigma->0) =       29.17030517


--------------------------------------------------------------------------------------------------------




--------------------------------------- Iteration      1(   3)  ---------------------------------------


    TRIAL :  cpu time      1.1528: real time      1.1533
    CORREC:  cpu time      0.0001: real time      0.0001
    --------------------------------------------
      LOOP:  cpu time      1.1646: real time      1.1822

 eigenvalue-minimisations  :    24
 total energy-change (2. order) :-0.5053796E+02  (-0.5053796E+02)
 number of electron       8.0000000 magnetization 
 augmentation part        8.0000000 magnetization 

 Free energy of the ion-electron system (eV)
  ---------------------------------------------------
  alpha Z        PSCENC =         0.02212312
  Ewald energy   TEWEN  =       172.96321032
  -Hartree energ DENC   =      -381.98205141
  -exchange      EXHF   =         0.00000000
  -V(xc)+E(xc)   XCENC  =        29.06386186
  PAW double counting   =       204.80663594     -205.72168960
  entropy T*S    EENTRO =        -0.00000000
  eigenvalues    EBANDS =      -142.52352214
  atomic energy  EATOM  =       302.00378002
  ---------------------------------------------------
  free energy    TOTEN  =       -21.36765188 eV

  energy without entropy =      -21.36765188  energy(sigma->0) =      -21.36765188


--------------------------------------------------------------------------------------------------------




--------------------------------------- Iteration      1(   4)  ---------------------------------------


    TRIAL :  cpu time      0.9102: real time      0.9107
    CORREC:  cpu time      0.0001: real time      0.0001
    --------------------------------------------
      LOOP:  cpu time      0.9387: real time      0.9395

 eigenvalue-minimisations  :    16
 total energy-change (2. order) :-0.4270391E+01  (-0.4270391E+01)
 number of electron       8.0000000 magnetization 
 augmentation part        8.0000000 magnetization 

 Free energy of the ion-electron system (eV)
  ---------------------------------------------------
  alpha Z        PSCENC =         0.02212312
  Ewald energy   TEWEN  =       172.96321032
  -Hartree energ DENC   =      -381.98205141
  -exchange      EXHF   =         0.00000000
  -V(xc)+E(xc)   XCENC  =        29.06386186
  PAW double counting   =       204.80663594     -205.72168960
  entropy T*S    EENTRO =        -0.00000000
  eigenvalues    EBANDS =      -146.79391285
  atomic energy  EATOM  =       302.00378002
  ---------------------------------------------------
  free energy    TOTEN  =       -25.63804259 eV

  energy without entropy =      -25.63804259  energy(sigma->0) =      -25.63804259


--------------------------------------------------------------------------------------------------------




--------------------------------------- Iteration      1(   5)  ---------------------------------------


    TRIAL :  cpu time      1.3928: real time      1.3934
    CORREC:  cpu time      0.0001: real time      0.0001
    CHARGE:  cpu time      0.3343: real time      0.3347
    --------------------------------------------
      LOOP:  cpu time      1.7407: real time      1.7572

 eigenvalue-minimisations  :    32
 total energy-change (2. order) :-0.1522183E+00  (-0.1522183E+00)
 number of electron       8.0000000 magnetization 
 augmentation part        0.0078960 magnetization 

 Free energy of the ion-electron system (eV)
  ---------------------------------------------------
  alpha Z        PSCENC =         0.02212312
  Ewald energy   TEWEN  =       172.96321032
  -Hartree energ DENC   =      -381.98205141
  -exchange      EXHF   =         0.00000000
  -V(xc)+E(xc)   XCENC  =        29.06386186
  PAW double counting   =       204.80663594     -205.72168960
  entropy T*S    EENTRO =        -0.00000000
  eigenvalues    EBANDS =      -146.94613117
  atomic energy  EATOM  =       302.00378002
  ---------------------------------------------------
  free energy    TOTEN  =       -25.79026091 eV

  energy without entropy =      -25.79026091  energy(sigma->0) =      -25.79026091


--------------------------------------------------------------------------------------------------------




--------------------------------------- Iteration      1(   6)  ---------------------------------------


    POTLOK:  cpu time     22.4483: real time     22.4555
    SETDIJ:  cpu time      0.3601: real time      0.3602
    TRIAL :  cpu time      0.9195: real time      0.9208
    CORREC:  cpu time     23.3008: real time     23.3100
    CHARGE:  cpu time      0.3046: real time      0.3047
    --------------------------------------------
      LOOP:  cpu time     47.3462: real time     47.3804

 eigenvalue-minimisations  :     0
 total energy-change (2. order) : 0.9245482E+01  (-0.3399616E+01)
 number of electron       8.0000000 magnetization 
 augmentation part       -0.0042263 magnetization 

 Free energy of the ion-electron system (eV)
  ---------------------------------------------------
  alpha Z        PSCENC =         0.02212312
  Ewald energy   TEWEN  =       172.96321032
  -Hartree energ DENC   =      -469.79848890
  -exchange      EXHF   =         0.00000000
  -V(xc)+E(xc)   XCENC  =        35.63579385
  PAW double counting   =      1443.17217695    -1444.71559871
  entropy T*S    EENTRO =        -0.00000000
  eigenvalues    EBANDS =       -55.82777596
  atomic energy  EATOM  =       302.00378002
  ---------------------------------------------------
  free energy    TOTEN  =       -16.54477932 eV

  energy without entropy =      -16.54477932  energy(sigma->0) =      -16.54477932


--------------------------------------------------------------------------------------------------------




--------------------------------------- Iteration      1(   7)  ---------------------------------------


    POTLOK:  cpu time     22.4837: real time     22.4911
    SETDIJ:  cpu time      0.2961: real time      0.2963
    TRIAL :  cpu time      0.9001: real time      0.9006
    CORREC:  cpu time     23.6545: real time     23.6624
    CHARGE:  cpu time      0.3026: real time      0.3031
    --------------------------------------------
      LOOP:  cpu time     47.6658: real time     47.6825

 eigenvalue-minimisations  :     0
 total energy-change (2. order) :-0.3455587E+01  (-0.2906720E+00)
 number of electron       8.0000000 magnetization 
 augmentation part       -0.0126308 magnetization 

 Free energy of the ion-electron system (eV)
  ---------------------------------------------------
  alpha Z        PSCENC =         0.02212312
  Ewald energy   TEWEN  =       172.96321032
  -Hartree energ DENC   =      -426.12833660
  -exchange      EXHF   =         0.00000000
  -V(xc)+E(xc)   XCENC  =        32.55744961
  PAW double counting   =      2558.00673906    -2559.10613098
  entropy T*S    EENTRO =        -0.00000000
  eigenvalues    EBANDS =      -100.31920077
  atomic energy  EATOM  =       302.00378002
  ---------------------------------------------------
  free energy    TOTEN  =       -20.00036622 eV

  energy without entropy =      -20.00036622  energy(sigma->0) =      -20.00036622


--------------------------------------------------------------------------------------------------------




--------------------------------------- Iteration      1(   8)  ---------------------------------------


    POTLOK:  cpu time     22.4434: real time     22.4502
    SETDIJ:  cpu time      0.3295: real time      0.3296
    TRIAL :  cpu time      0.9020: real time      0.9026
    CORREC:  cpu time     23.3570: real time     23.3646
    CHARGE:  cpu time      0.3049: real time      0.3049
    --------------------------------------------
      LOOP:  cpu time     47.3506: real time     47.3807

 eigenvalue-minimisations  :     0
 total energy-change (2. order) :-0.2914482E+00  (-0.1344564E+00)
 number of electron       8.0000000 magnetization 
 augmentation part       -0.0124888 magnetization 

 Free energy of the ion-electron system (eV)
  ---------------------------------------------------
  alpha Z        PSCENC =         0.02212312
  Ewald energy   TEWEN  =       172.96321032
  -Hartree energ DENC   =      -424.84633808
  -exchange      EXHF   =         0.00000000
  -V(xc)+E(xc)   XCENC  =        32.50424787
  PAW double counting   =      2899.16608020    -2900.21487766
  entropy T*S    EENTRO =        -0.00000000
  eigenvalues    EBANDS =      -101.89004021
  atomic energy  EATOM  =       302.00378002
  ---------------------------------------------------
  free energy    TOTEN  =       -20.29181440 eV

  energy without entropy =      -20.29181440  energy(sigma->0) =      -20.29181440


--------------------------------------------------------------------------------------------------------




--------------------------------------- Iteration      1(   9)  ---------------------------------------


    POTLOK:  cpu time     22.4429: real time     22.4504
    SETDIJ:  cpu time      0.4668: real time      0.4670
    TRIAL :  cpu time      0.9021: real time      0.9025
    CORREC:  cpu time     23.4215: real time     23.4294
    CHARGE:  cpu time      0.3046: real time      0.3047
    --------------------------------------------
      LOOP:  cpu time     47.5509: real time     47.5838

 eigenvalue-minimisations  :     0
 total energy-change (2. order) :-0.1319110E+00  (-0.5871422E-01)
 number of electron       8.0000000 magnetization 
 augmentation part       -0.0112306 magnetization 

 Free energy of the ion-electron system (eV)
  ---------------------------------------------------
  alpha Z        PSCENC =         0.02212312
  Ewald energy   TEWEN  =       172.96321032
  -Hartree energ DENC   =      -423.35583878
  -exchange      EXHF   =         0.00000000
  -V(xc)+E(xc)   XCENC  =        32.42866366
  PAW double counting   =      3136.43786159    -3137.45610508
  entropy T*S    EENTRO =        -0.00000000
  eigenvalues    EBANDS =      -103.46742022
  atomic energy  EATOM  =       302.00378002
  ---------------------------------------------------
  free energy    TOTEN  =       -20.42372537 eV

  energy without entropy =      -20.42372537  energy(sigma->0) =      -20.42372537


--------------------------------------------------------------------------------------------------------




--------------------------------------- Iteration      1(  10)  ---------------------------------------


    POTLOK:  cpu time     22.4316: real time     22.4377
    SETDIJ:  cpu time      0.3721: real time      0.3721
    TRIAL :  cpu time      0.9015: real time      0.9020
    CORREC:  cpu time     23.3246: real time     23.3323
    CHARGE:  cpu time      0.3038: real time      0.3039
    --------------------------------------------
      LOOP:  cpu time     47.3515: real time     47.3771

 eigenvalue-minimisations  :     0
 total energy-change (2. order) :-0.5778173E-01  (-0.1718414E-01)
 number of electron       8.0000000 magnetization 
 augmentation part       -0.0109017 magnetization 

 Free energy of the ion-electron system (eV)
  ---------------------------------------------------
  alpha Z        PSCENC =         0.02212312
  Ewald energy   TEWEN  =       172.96321032
  -Hartree energ DENC   =      -423.48605689
  -exchange      EXHF   =         0.00000000
  -V(xc)+E(xc)   XCENC  =        32.44638946
  PAW double counting   =      3124.12313558    -3125.14633640
  entropy T*S    EENTRO =        -0.00000000
  eigenvalues    EBANDS =      -103.40775231
  atomic energy  EATOM  =       302.00378002
  ---------------------------------------------------
  free energy    TOTEN  =       -20.48150710 eV

  energy without entropy =      -20.48150710  energy(sigma->0) =      -20.48150710


--------------------------------------------------------------------------------------------------------




--------------------------------------- Iteration      1(  11)  ---------------------------------------


    POTLOK:  cpu time     22.4534: real time     22.4598
    SETDIJ:  cpu time      0.3367: real time      0.3370
    TRIAL :  cpu time      0.9024: real time      0.9029
    CORREC:  cpu time     23.3219: real time     23.3297
    CHARGE:  cpu time      0.3041: real time      0.3041
    --------------------------------------------
      LOOP:  cpu time     47.3312: real time     47.3635

 eigenvalue-minimisations  :     0
 total energy-change (2. order) :-0.1707609E-01  (-0.4485776E-02)
 number of electron       8.0000000 magnetization 
 augmentation part       -0.0107016 magnetization 

 Free energy of the ion-electron system (eV)
  ---------------------------------------------------
  alpha Z        PSCENC =         0.02212312
  Ewald energy   TEWEN  =       172.96321032
  -Hartree energ DENC   =      -423.18457595
  -exchange      EXHF   =         0.00000000
  -V(xc)+E(xc)   XCENC  =        32.42286043
  PAW double counting   =      3033.46094888    -3034.49041274
  entropy T*S    EENTRO =        -0.00000000
  eigenvalues    EBANDS =      -103.69651728
  atomic energy  EATOM  =       302.00378002
  ---------------------------------------------------
  free energy    TOTEN  =       -20.49858319 eV

  energy without entropy =      -20.49858319  energy(sigma->0) =      -20.49858319


--------------------------------------------------------------------------------------------------------




--------------------------------------- Iteration      1(  12)  ---------------------------------------


    POTLOK:  cpu time     22.4362: real time     22.4443
    SETDIJ:  cpu time      0.3519: real time      0.3520
    TRIAL :  cpu time      0.9021: real time      0.9026
    CORREC:  cpu time     23.3523: real time     23.3604
    CHARGE:  cpu time      0.3039: real time      0.3042
    --------------------------------------------
      LOOP:  cpu time     47.3590: real time     47.3931

 eigenvalue-minimisations  :     0
 total energy-change (2. order) :-0.4478091E-02  (-0.1388565E-02)
 number of electron       8.0000000 magnetization 
 augmentation part       -0.0105875 magnetization 

 Free energy of the ion-electron system (eV)
  ---------------------------------------------------
  alpha Z        PSCENC =         0.02212312
  Ewald energy   TEWEN  =       172.96321032
  -Hartree energ DENC   =      -423.00434097
  -exchange      EXHF   =         0.00000000
  -V(xc)+E(xc)   XCENC  =        32.40559847
  PAW double counting   =      2974.14268398    -2975.17536432
  entropy T*S    EENTRO =        -0.00000000
  eigenvalues    EBANDS =      -103.86075192
  atomic energy  EATOM  =       302.00378002
  ---------------------------------------------------
  free energy    TOTEN  =       -20.50306128 eV

  energy without entropy =      -20.50306128  energy(sigma->0) =      -20.50306128


--------------------------------------------------------------------------------------------------------




--------------------------------------- Iteration      1(  13)  ---------------------------------------


    POTLOK:  cpu time     22.4801: real time     22.4873
    SETDIJ:  cpu time      0.3139: real time      0.3139
    TRIAL :  cpu time      0.9018: real time      0.9024
    CORREC:  cpu time     23.4032: real time     23.4112
    CHARGE:  cpu time      0.3045: real time      0.3046
    --------------------------------------------
      LOOP:  cpu time     47.4181: real time     47.4501

 eigenvalue-minimisations  :     0
 total energy-change (2. order) :-0.1378705E-02  (-0.4009556E-03)
 number of electron       8.0000000 magnetization 
 augmentation part       -0.0105648 magnetization 

 Free energy of the ion-electron system (eV)
  ---------------------------------------------------
  alpha Z        PSCENC =         0.02212312
  Ewald energy   TEWEN  =       172.96321032
  -Hartree energ DENC   =      -423.11805772
  -exchange      EXHF   =         0.00000000
  -V(xc)+E(xc)   XCENC  =        32.40966337
  PAW double counting   =      2946.44915736    -2947.48439982
  entropy T*S    EENTRO =        -0.00000000
  eigenvalues    EBANDS =      -103.74991664
  atomic energy  EATOM  =       302.00378002
  ---------------------------------------------------
  free energy    TOTEN  =       -20.50443999 eV

  energy without entropy =      -20.50443999  energy(sigma->0) =      -20.50443999


--------------------------------------------------------------------------------------------------------




--------------------------------------- Iteration      1(  14)  ---------------------------------------


    POTLOK:  cpu time     22.4507: real time     22.4584
    SETDIJ:  cpu time      0.3646: real time      0.3646
    TRIAL :  cpu time      0.9073: real time      0.9079
    CORREC:  cpu time     23.4008: real time     23.4082
    CHARGE:  cpu time      0.3043: real time      0.3047
    --------------------------------------------
      LOOP:  cpu time     47.4434: real time     47.4747

 eigenvalue-minimisations  :     0
 total energy-change (2. order) :-0.3962137E-03  (-0.1289366E-03)
 number of electron       8.0000000 magnetization 
 augmentation part       -0.0105468 magnetization 

 Free energy of the ion-electron system (eV)
  ---------------------------------------------------
  alpha Z        PSCENC =         0.02212312
  Ewald energy   TEWEN  =       172.96321032
  -Hartree energ DENC   =      -423.08222921
  -exchange      EXHF   =         0.00000000
  -V(xc)+E(xc)   XCENC  =        32.40490383
  PAW double counting   =      2938.44909177    -2939.48443414
  entropy T*S    EENTRO =        -0.00000000
  eigenvalues    EBANDS =      -103.78128191
  atomic energy  EATOM  =       302.00378002
  ---------------------------------------------------
  free energy    TOTEN  =       -20.50483620 eV

  energy without entropy =      -20.50483620  energy(sigma->0) =      -20.50483620


--------------------------------------------------------------------------------------------------------




--------------------------------------- Iteration      1(  15)  ---------------------------------------


    POTLOK:  cpu time     22.5301: real time     22.5370
    SETDIJ:  cpu time      0.3135: real time      0.3136
    TRIAL :  cpu time      0.9051: real time      0.9056
    CORREC:  cpu time     23.4817: real time     23.4894
    CHARGE:  cpu time      0.3027: real time      0.3028
    --------------------------------------------
      LOOP:  cpu time     47.5614: real time     47.5767

 eigenvalue-minimisations  :     0
 total energy-change (2. order) :-0.1256478E-03  (-0.4255652E-04)
 number of electron       8.0000000 magnetization 
 augmentation part       -0.0105201 magnetization 

 Free energy of the ion-electron system (eV)
  ---------------------------------------------------
  alpha Z        PSCENC =         0.02212312
  Ewald energy   TEWEN  =       172.96321032
  -Hartree energ DENC   =      -423.11911215
  -exchange      EXHF   =         0.00000000
  -V(xc)+E(xc)   XCENC  =        32.40686117
  PAW double counting   =      2934.35209241    -2935.38771448
  entropy T*S    EENTRO =        -0.00000000
  eigenvalues    EBANDS =      -103.74620227
  atomic energy  EATOM  =       302.00378002
  ---------------------------------------------------
  free energy    TOTEN  =       -20.50496185 eV

  energy without entropy =      -20.50496185  energy(sigma->0) =      -20.50496185


--------------------------------------------------------------------------------------------------------




--------------------------------------- Iteration      1(  16)  ---------------------------------------


    POTLOK:  cpu time     22.6228: real time     22.6296
    SETDIJ:  cpu time      0.1834: real time      0.1834
    TRIAL :  cpu time      0.9029: real time      0.9033
    CORREC:  cpu time     23.4099: real time     23.4170
    CHARGE:  cpu time      0.3043: real time      0.3048
    --------------------------------------------
      LOOP:  cpu time     47.4377: real time     47.4674

 eigenvalue-minimisations  :     0
 total energy-change (2. order) :-0.4132631E-04  (-0.1248271E-04)
 number of electron       8.0000000 magnetization 
 augmentation part       -0.0105036 magnetization 

 Free energy of the ion-electron system (eV)
  ---------------------------------------------------
  alpha Z        PSCENC =         0.02212312
  Ewald energy   TEWEN  =       172.96321032
  -Hartree energ DENC   =      -423.12664734
  -exchange      EXHF   =         0.00000000
  -V(xc)+E(xc)   XCENC  =        32.40743027
  PAW double counting   =      2932.69763428    -2933.73328539
  entropy T*S    EENTRO =        -0.00000000
  eigenvalues    EBANDS =      -103.73924846
  atomic energy  EATOM  =       302.00378002
  ---------------------------------------------------
  free energy    TOTEN  =       -20.50500318 eV

  energy without entropy =      -20.50500318  energy(sigma->0) =      -20.50500318


--------------------------------------------------------------------------------------------------------




--------------------------------------- Iteration      1(  17)  ---------------------------------------


    POTLOK:  cpu time     22.4570: real time     22.4632
    SETDIJ:  cpu time      0.3509: real time      0.3509
    TRIAL :  cpu time      0.9019: real time      0.9024
    CORREC:  cpu time     23.3618: real time     23.3688
    CHARGE:  cpu time      0.3043: real time      0.3043
    --------------------------------------------
      LOOP:  cpu time     47.3890: real time     47.4194

 eigenvalue-minimisations  :     0
 total energy-change (2. order) :-0.1244999E-04  (-0.3417858E-05)
 number of electron       8.0000000 magnetization 
 augmentation part       -0.0104978 magnetization 

 Free energy of the ion-electron system (eV)
  ---------------------------------------------------
  alpha Z        PSCENC =         0.02212312
  Ewald energy   TEWEN  =       172.96321032
  -Hartree energ DENC   =      -423.12641562
  -exchange      EXHF   =         0.00000000
  -V(xc)+E(xc)   XCENC  =        32.40765688
  PAW double counting   =      2932.98747386    -2934.02312341
  entropy T*S    EENTRO =        -0.00000000
  eigenvalues    EBANDS =      -103.73972079
  atomic energy  EATOM  =       302.00378002
  ---------------------------------------------------
  free energy    TOTEN  =       -20.50501563 eV

  energy without entropy =      -20.50501563  energy(sigma->0) =      -20.50501563


--------------------------------------------------------------------------------------------------------




--------------------------------------- Iteration      1(  18)  ---------------------------------------


    POTLOK:  cpu time     22.4340: real time     22.4416
    SETDIJ:  cpu time      0.3821: real time      0.3824
    TRIAL :  cpu time      0.9013: real time      0.9018
    CORREC:  cpu time     23.3589: real time     23.3670
    CHARGE:  cpu time      0.3037: real time      0.3038
    --------------------------------------------
      LOOP:  cpu time     47.4099: real time     47.4264

 eigenvalue-minimisations  :     0
 total energy-change (2. order) :-0.3558390E-05  (-0.8232524E-06)
 number of electron       8.0000000 magnetization 
 augmentation part       -0.0104982 magnetization 

 Free energy of the ion-electron system (eV)
  ---------------------------------------------------
  alpha Z        PSCENC =         0.02212312
  Ewald energy   TEWEN  =       172.96321032
  -Hartree energ DENC   =      -423.12973393
  -exchange      EXHF   =         0.00000000
  -V(xc)+E(xc)   XCENC  =        32.40807425
  PAW double counting   =      2934.16026461    -2935.19593752
  entropy T*S    EENTRO =        -0.00000000
  eigenvalues    EBANDS =      -103.73680006
  atomic energy  EATOM  =       302.00378002
  ---------------------------------------------------
  free energy    TOTEN  =       -20.50501918 eV

  energy without entropy =      -20.50501918  energy(sigma->0) =      -20.50501918


--------------------------------------------------------------------------------------------------------




--------------------------------------- Iteration      1(  19)  ---------------------------------------


    POTLOK:  cpu time     22.4674: real time     22.4750
    SETDIJ:  cpu time      0.4042: real time      0.4042
    TRIAL :  cpu time      0.9023: real time      0.9029
    CORREC:  cpu time     23.3595: real time     23.3681
    CHARGE:  cpu time      0.3042: real time      0.3042
    --------------------------------------------
      LOOP:  cpu time     47.4520: real time     47.4849

 eigenvalue-minimisations  :     0
 total energy-change (2. order) :-0.8130560E-06  (-0.2306690E-06)
 number of electron       8.0000000 magnetization 
 augmentation part       -0.0104993 magnetization 

 Free energy of the ion-electron system (eV)
  ---------------------------------------------------
  alpha Z        PSCENC =         0.02212312
  Ewald energy   TEWEN  =       172.96321032
  -Hartree energ DENC   =      -423.12839760
  -exchange      EXHF   =         0.00000000
  -V(xc)+E(xc)   XCENC  =        32.40804816
  PAW double counting   =      2935.16111483    -2936.19676664
  entropy T*S    EENTRO =        -0.00000000
  eigenvalues    EBANDS =      -103.73813221
  atomic energy  EATOM  =       302.00378002
  ---------------------------------------------------
  free energy    TOTEN  =       -20.50502000 eV

  energy without entropy =      -20.50502000  energy(sigma->0) =      -20.50502000


--------------------------------------------------------------------------------------------------------




--------------------------------------- Iteration      1(  20)  ---------------------------------------


    POTLOK:  cpu time     22.4987: real time     22.5055
    SETDIJ:  cpu time      0.3260: real time      0.3263
    TRIAL :  cpu time      0.9019: real time      0.9025
    CORREC:  cpu time     23.7421: real time     23.7496
    CHARGE:  cpu time      0.3035: real time      0.3040
    --------------------------------------------
      LOOP:  cpu time     47.7852: real time     47.8186

 eigenvalue-minimisations  :     0
 total energy-change (2. order) :-0.1657190E-06  (-0.6363265E-07)
 number of electron       8.0000000 magnetization 
 augmentation part       -0.0105001 magnetization 

 Free energy of the ion-electron system (eV)
  ---------------------------------------------------
  alpha Z        PSCENC =         0.02212312
  Ewald energy   TEWEN  =       172.96321032
  -Hartree energ DENC   =      -423.12781283
  -exchange      EXHF   =         0.00000000
  -V(xc)+E(xc)   XCENC  =        32.40803217
  PAW double counting   =      2935.75865435    -2936.79429106
  entropy T*S    EENTRO =        -0.00000000
  eigenvalues    EBANDS =      -103.73871625
  atomic energy  EATOM  =       302.00378002
  ---------------------------------------------------
  free energy    TOTEN  =       -20.50502016 eV

  energy without entropy =      -20.50502016  energy(sigma->0) =      -20.50502016


--------------------------------------------------------------------------------------------------------




--------------------------------------- Iteration      1(  21)  ---------------------------------------


    POTLOK:  cpu time     22.5666: real time     22.5741
    SETDIJ:  cpu time      0.2508: real time      0.2511
    TRIAL :  cpu time      0.9025: real time      0.9029
    CORREC:  cpu time     23.3686: real time     23.3768
    EDDIAG:  cpu time      0.2366: real time      0.2368
    CHARGE:  cpu time      0.3029: real time      0.3030
    --------------------------------------------
      LOOP:  cpu time     47.6415: real time     47.6747

 eigenvalue-minimisations  :     0
 total energy-change (2. order) :-0.3336845E-07  (-0.2960986E-07)
 number of electron       8.0000000 magnetization 
 augmentation part       -0.0105006 magnetization 

 Free energy of the ion-electron system (eV)
  ---------------------------------------------------
  alpha Z        PSCENC =         0.02212312
  Ewald energy   TEWEN  =       172.96321032
  -Hartree energ DENC   =      -423.12796765
  -exchange      EXHF   =         0.00000000
  -V(xc)+E(xc)   XCENC  =        32.40804969
  PAW double counting   =      2936.00923486    -2937.04486609
  entropy T*S    EENTRO =        -0.00000000
  eigenvalues    EBANDS =      -103.73858446
  atomic energy  EATOM  =       302.00378002
  ---------------------------------------------------
  free energy    TOTEN  =       -20.50502020 eV

  energy without entropy =      -20.50502020  energy(sigma->0) =      -20.50502020


--------------------------------------------------------------------------------------------------------


  average scaling for gradient   1.1955


 average (electrostatic) potential at core
  the test charge radii are     0.4325  0.5902
  (the norm of the test charge is              1.0000)
       1 -48.3620       2 -48.3623       3 -48.3629       4-105.7460



 E-fermi :  -6.3691     XC(G=0):  -0.0188     alpha+bet : -0.0217

 Fermi energy:        -6.3691312279

 k-point     1 :       0.0000    0.0000    0.0000
  band No.  band energies     occupation 
      1     -22.2278      2.00000
      2     -11.5911      2.00000
      3     -11.5898      2.00000
      4      -6.4607      2.00000
      5      -0.1536      0.00000
      6       0.1428      0.00000
      7       0.4198      0.00000
      8       0.4403      0.00000


--------------------------------------------------------------------------------------------------------


 soft charge-density along one line, spin component           1
         0         1         2         3         4         5         6         7         8         9
 total charge-density along one line

 pseudopotential strength for first ion, spin component:           1
 -2.531  -5.380   0.006  -0.010   0.015
 -5.380 -11.407   0.008  -0.015   0.022
  0.006   0.008  -1.174  -0.014   0.016
 -0.010  -0.015  -0.014  -1.158  -0.035
  0.015   0.022   0.016  -0.035  -1.130
 total augmentation occupancy for first ion, spin component:           1
  4.117  -0.729  -0.091   0.150  -0.253
 -0.729   0.146   0.017  -0.026   0.046
 -0.091   0.017   0.007  -0.001   0.005
  0.150  -0.026  -0.001   0.010  -0.007
 -0.253   0.046   0.005  -0.007   0.017


------------------------ aborting loop because EDIFF is reached ----------------------------------------


    FORLOC:  cpu time      0.0327: real time      0.0327
    FORNL :  cpu time      0.0089: real time      0.0093
    FORCOR:  cpu time     22.4081: real time     22.4151
    OFIELD:  cpu time      0.0071: real time      0.0072

 VOLUME and BASIS-vectors are now :
 -----------------------------------------------------------------------------
  energy-cutoff  :     1000.00
  volume of cell :     8000.00
      direct lattice vectors                 reciprocal lattice vectors
    20.000000000  0.000000000  0.000000000     0.050000000  0.000000000  0.000000000
     0.000000000 20.000000000  0.000000000     0.000000000  0.050000000  0.000000000
     0.000000000  0.000000000 20.000000000     0.000000000  0.000000000  0.050000000

  length of vectors
    20.000000000 20.000000000 20.000000000     0.050000000  0.050000000  0.050000000


 FORCES acting on ions:
    Electron-Ion                     Ewald-Force                    Non-Local-Force
 -----------------------------------------------------------------------------------------------
   -.576E+02 -.198E+02 0.363E+02   0.633E+02 0.218E+02 -.398E+02   -.594E+01 -.209E+01 0.363E+01
   -.198E+02 0.363E+02 -.576E+02   0.218E+02 -.398E+02 0.633E+02   -.209E+01 0.363E+01 -.594E+01
   0.363E+02 -.576E+02 -.198E+02   -.398E+02 0.633E+02 0.218E+02   0.363E+01 -.594E+01 -.209E+01
   0.263E+02 0.263E+02 0.263E+02   -.453E+02 -.453E+02 -.453E+02   0.191E+02 0.191E+02 0.191E+02
 -----------------------------------------------------------------------------------------------
   -.147E+02 -.147E+02 -.147E+02   0.000E+00 0.711E-14 0.000E+00   0.147E+02 0.147E+02 0.147E+02


 POSITION                                       TOTAL-FORCE (eV/Angst)
 -----------------------------------------------------------------------------------
     10.66327     10.12950      9.33673        -0.242201     -0.077968      0.164149
     10.12951      9.33673     10.66327        -0.078060      0.164009     -0.240635
      9.33673     10.66327     10.12951         0.162644     -0.239007     -0.077063
      9.82044      9.82050      9.82051         0.157617      0.152965      0.153549
 -----------------------------------------------------------------------------------
    total drift:                                0.008422      0.008110      0.008447


--------------------------------------------------------------------------------------------------------



  FREE ENERGIE OF THE ION-ELECTRON SYSTEM (eV)
  ---------------------------------------------------
  free  energy   TOTEN  =       -20.50502020 eV

  energy  without entropy=      -20.50502020  energy(sigma->0) =      -20.50502020



--------------------------------------------------------------------------------------------------------


    POTLOK:  cpu time     22.8318: real time     22.8395


--------------------------------------------------------------------------------------------------------


 stress matrix after NEB project (eV)
      0.00000      0.00000      0.00000
      0.00000      0.00000      0.00000
      0.00000      0.00000      0.00000
  FORCES: max atom, RMS     0.302796    0.293223
  FORCE total and by dimension    0.586445    0.242201
  Stress total and by dimension    0.000000    0.000000
     LOOP+:  cpu time    834.2077: real time    834.7629
    4ORBIT:  cpu time      0.0000: real time      0.0000

 total amount of memory used by VASP MPI-rank0   129294. kBytes
=======================================================================

   base      :      30000. kBytes
   nonl-proj :       1724. kBytes
   fftplans  :      29139. kBytes
   grid      :      67569. kBytes
   one-center:          1. kBytes
   wavefun   :        861. kBytes

  
  
 General timing and accounting informations for this job:
 ========================================================
  
                  Total CPU time used (sec):      846.829
                            User time (sec):      837.901
                          System time (sec):        8.929
                         Elapsed time (sec):      850.943
  
                   Maximum memory used (kb):      693800.
                   Average memory used (kb):          N/A
  
                          Minor page faults:       241599
                          Major page faults:         1147
                 Voluntary context switches:         3528
