18
Lattice="25.0 0.0 0.0 0.0 25.0 0.0 0.0 0.0 25.0" Properties=species:S:1:pos:R:3:forces:R:3 energy=-105.15550487 stress="3.860997545271384e-05 6.854425322044994e-05 -5.8507906546029665e-05 6.854425322044994e-05 -5.5405876510465685e-05 9.451517269325019e-05 -5.8507906546029665e-05 9.451517269325019e-05 -0.0001282879785734045" free_energy=-105.15550487 pbc="T T T" config_stress_weight = 0.0
C       12.41400000      11.30200000      14.68200000       0.88155600      -0.69105400       0.50402600
C       13.40500000      11.43600000      13.68900000       1.08198900      -1.78984100       1.61025600
C       13.15800000      12.10500000      12.51500000      -1.68275800       2.14512400       0.23994300
C       11.96600000      12.96700000      12.54100000       0.05554000      -1.23051200      -0.60140600
C       11.04800000      12.92600000      13.60600000      -0.08481800      -0.19607600       1.18533200
C       11.25800000      12.08200000      14.72200000      -0.19619700       0.88923900      -1.94799900
C       13.97300000      12.09600000      11.37900000       0.88337900       0.08919500       0.03573200
C       11.66600000      13.65600000      11.35900000      -0.61578000       0.97496400       0.08992200
C       12.48400000      13.60500000      10.26200000      -0.69402800       0.44190600      -0.42295700
C       13.64700000      12.83600000      10.24700000       1.15176900      -0.88906000       0.11561100
H       14.89600000      11.53600000      11.55800000      -0.08730400       0.09875600      -0.85322500
H       12.47800000      10.51500000      15.43600000       0.59104300       0.40182300       0.06018800
H       14.43500000      10.98600000      13.81200000      -1.38240900      -0.04643400      -0.04343400
H       10.16600000      13.54900000      13.50700000      -0.02971900      -0.00504000       0.22907300
H       10.54800000      12.00800000      15.53000000      -0.09328200      -0.06659600      -0.00433700
H       10.77400000      14.29700000      11.34300000       0.29240000      -0.30461200      -0.08119100
H       12.15600000      14.17200000       9.41000000       0.23834600       0.08246400      -0.43337500
H       14.30200000      12.80000000       9.36900000      -0.30972500       0.09575700       0.31784100
18
Lattice="25.0 0.0 0.0 0.0 25.0 0.0 0.0 0.0 25.0" Properties=species:S:1:pos:R:3:forces:R:3 energy=-105.5568141 stress="0.00014060247607877217 8.11957922186153e-05 -2.8398866522768828e-06 8.11957922186153e-05 0.00012882474835823046 -3.6200752930122895e-06 -2.8398866522768828e-06 -3.6200752930122895e-06 1.3356829529390173e-05" free_energy=-105.5568141 pbc="T T T" config_stress_weight = 0.0
C       10.73800000      10.62800000      12.64000000      -0.23824900       0.83548500      -0.41317800
C       12.11500000      10.68200000      12.57700000      -0.03818300      -1.35017100       0.37668900
C       12.85100000      11.86600000      12.47000000       0.21339200       1.26218300       0.37549400
C       12.15400000      13.14100000      12.50300000      -0.25229900      -0.49510200      -0.35750800
C       10.73500000      13.07900000      12.58200000      -0.71405300       0.28955900       0.16040700
C       10.02500000      11.87100000      12.60200000       0.03379900       0.42320700       0.26292800
C       14.26200000      11.91300000      12.43800000       1.17917600      -0.42394400      -0.15038000
C       12.88700000      14.36300000      12.42800000       0.11639100      -0.47197600       0.34607700
C       14.27200000      14.33800000      12.38200000      -0.35970400       0.77917400      -0.28779800
C       14.94700000      13.11900000      12.34700000       1.05368200      -0.95384800       0.28826900
H       14.87500000      10.99100000      12.49700000      -0.64031500       0.44626100      -0.15296600
H       10.22800000       9.66700000      12.66600000       0.01539700       0.27211800       0.12780100
H       12.67300000       9.75700000      12.70700000      -0.00059800       0.01887500      -0.27130800
H       10.19200000      14.03700000      12.68400000       0.19515600      -0.60032400      -0.24351400
H        8.92500000      11.92200000      12.65600000       0.63269100      -0.22369700      -0.03485000
H       12.34200000      15.29000000      12.47100000      -0.07641400       0.23969400      -0.04689300
H       14.85700000      15.25600000      12.34900000      -0.24903600      -0.07303300      -0.00710000
H       16.05800000      13.10500000      12.31100000      -0.87083000       0.02553900       0.02783000
18
Lattice="25.0 0.0 0.0 0.0 25.0 0.0 0.0 0.0 25.0" Properties=species:S:1:pos:R:3:forces:R:3 energy=-105.47082525 stress="-0.00011456290000558719 -9.998273468752392e-05 4.329734880625216e-05 -9.998273468752392e-05 0.0002712122960470052 1.634027089156237e-05 4.329734880625216e-05 1.634027089156237e-05 3.819803585040554e-06" free_energy=-105.47082525 pbc="T T T" config_stress_weight = 0.0
C       10.91800000      10.62800000      12.96300000      -1.75180700      -1.02521300       0.43345100
C       12.22400000      10.63300000      12.61900000       0.83686800       0.82215200      -0.48845600
C       12.85700000      11.90100000      12.41800000       0.19082200      -0.68053300      -0.05643700
C       12.12600000      13.12300000      12.58500000      -0.02929300      -0.44262700      -0.42923600
C       10.76300000      13.04600000      12.92600000      -0.62846700      -0.12730100       0.05677100
C       10.15400000      11.80600000      13.13200000      -0.60919000       1.24166100       0.31853900
C       14.20800000      11.94000000      12.03600000       0.77715200       1.22747800      -0.04695500
C       12.76400000      14.35100000      12.31100000      -0.24154800       1.14798600       0.35013900
C       14.12100000      14.39400000      12.08200000       0.66797600      -0.05885300      -0.39482800
C       14.86700000      13.17600000      11.94300000      -0.05084800      -0.48216900       0.06853700
H       14.71100000      11.00700000      11.81200000       0.18310600       0.06575100       0.18386100
H       10.37800000       9.69100000      13.08900000       0.20940500      -0.00377800       0.04689300
H       12.81200000       9.73600000      12.43200000      -0.25621800       0.06461300       0.16574600
H       10.26000000      14.01600000      12.96100000      -0.32796900      -0.49422500       0.25661000
H        9.08200000      11.76300000      13.45600000       1.09294400      -0.09199800      -0.45454200
H       12.16400000      15.29900000      12.34200000       0.60372100      -0.94820100       0.04369900
H       14.61500000      15.36300000      11.94100000      -0.10673300      -0.44958700       0.06822700
H       15.95500000      13.17500000      11.78700000      -0.55992100       0.23484500      -0.12201900
18
Lattice="25.0 0.0 0.0 0.0 25.0 0.0 0.0 0.0 25.0" Properties=species:S:1:pos:R:3:forces:R:3 energy=-105.47890799 stress="-0.00010516942877113289 0.00011871350357429958 2.6982043951193322e-05 0.00011871350357429958 -0.00010578733817459535 -2.2575538508319747e-05 2.6982043951193322e-05 -2.2575538508319747e-05 5.742188395812598e-07" free_energy=-105.47890799 pbc="T T T" config_stress_weight = 0.0
C       12.02500000      11.05900000      14.56500000       0.62895000       0.18981600      -1.49588000
C       12.90000000      10.96900000      13.49000000       0.13140100      -0.55961700       0.30502900
C       12.89300000      11.92300000      12.42900000       0.83030300      -0.08468300       0.29350300
C       12.04300000      13.07600000      12.51400000      -0.44660200      -1.20539700       1.07296200
C       11.14400000      13.15300000      13.62200000       0.00351200      -0.33513700      -0.08557300
C       11.11400000      12.15000000      14.55900000      -0.23573800      -0.55880100       1.61910900
C       13.84200000      11.84500000      11.37500000      -0.05813800       0.47293200       0.00679000
C       12.08300000      14.01500000      11.51000000       0.26492700       0.93790800      -1.44166200
C       13.01900000      13.93100000      10.47800000      -0.95546400       0.68233900       0.54274700
C       13.91700000      12.89300000      10.44300000       0.94876800      -2.12954000       0.30582900
H       14.51600000      10.98400000      11.37800000      -0.09707600       0.36233400      -0.26779000
H       12.04700000      10.30900000      15.34700000      -0.14864200       0.19118600       0.02364400
H       13.65200000      10.17100000      13.44400000      -0.34824800       0.20728500       0.01802400
H       10.48900000      14.00200000      13.69200000      -0.24762300       0.19097800       0.06421500
H       10.46100000      12.12100000      15.44200000      -0.12115100       0.66324700      -0.57347700
H       11.34500000      14.79500000      11.50300000      -0.11534300       0.40773600       0.04519000
H       13.05500000      14.65700000       9.69500000      -0.12176500       0.47869200      -0.25013600
H       14.66500000      12.83100000       9.66900000       0.08792900       0.08872200      -0.18252400
18
Lattice="25.0 0.0 0.0 0.0 25.0 0.0 0.0 0.0 25.0" Properties=species:S:1:pos:R:3:forces:R:3 energy=-105.42203286 stress="0.00028328961620558937 -5.7802616014804853e-05 -2.721922129797689e-05 -5.7802616014804853e-05 1.486103322872804e-05 6.750192119642744e-05 -2.721922129797689e-05 6.750192119642744e-05 -0.00015145646044868312" free_energy=-105.42203286 pbc="T T T" config_stress_weight = 0.0
C       12.49400000      11.49600000      14.79300000       1.75870000      -1.35354300       0.28130300
C       13.52800000      11.71600000      13.85100000      -1.20828300      -0.22696200       1.64257300
C       13.21800000      12.32700000      12.64700000      -0.62721000       0.13285400      -1.04541600
C       11.84100000      12.69600000      12.37800000      -0.57728500       0.03095800       0.95887800
C       10.83600000      12.46000000      13.36000000      -0.85386800       1.00292600       0.04108400
C       11.14800000      11.82300000      14.54300000      -0.32993300      -0.00460700       0.40801700
C       14.17100000      12.53000000      11.63100000       0.27908300       0.70627000      -0.75233400
C       11.48600000      13.31000000      11.17500000       0.97875700       0.51134700      -1.44826700
C       12.46600000      13.50700000      10.19800000      -0.54916600       0.03062100       0.41050300
C       13.81800000      13.13900000      10.43500000      -0.34014400      -0.49659300      -0.23569200
H       15.20600000      12.26100000      11.78500000       0.06821300      -0.16399600       0.14276600
H       12.79700000      10.91200000      15.69400000      -0.52995000       0.67805500      -0.54412700
H       14.55100000      11.43200000      14.05300000       0.00450400      -0.08498400       0.15183500
H        9.83700000      12.96800000      13.20300000       0.99804400      -1.04671900       0.09405900
H       10.37200000      11.57800000      15.29000000       0.50203700       0.28574000      -0.42618500
H       10.48100000      13.65600000      10.94200000       0.02559100      -0.27885900       0.35435400
H       12.11900000      13.93600000       9.26800000       0.41274500       0.07514100      -0.18382400
H       14.54300000      13.21300000       9.63000000      -0.01183600       0.20235000       0.15047100
18
Lattice="25.0 0.0 0.0 0.0 25.0 0.0 0.0 0.0 25.0" Properties=species:S:1:pos:R:3:forces:R:3 energy=-105.3990801 stress="0.00035463630702356084 2.9684617402700775e-05 6.7158638194503866e-06 2.9684617402700775e-05 3.3816496444035494e-05 -2.2906338491991557e-06 6.7158638194503866e-06 -2.2906338491991557e-06 5.4001536957141945e-05" free_energy=-105.3990801 pbc="T T T" config_stress_weight = 0.0
C       12.64500000      11.70700000      14.91300000      -0.27526200      -0.40988200       0.12602500
C       13.57300000      12.11200000      13.96700000       1.16432600      -0.35643600       1.54923100
C       13.18600000      12.54500000      12.69700000       0.59584700      -0.12703100      -1.29343400
C       11.80300000      12.51400000      12.32000000      -0.98846100       0.68038900       0.30357200
C       10.84600000      12.24000000      13.35800000      -0.82397200       0.19941700      -1.17693600
C       11.25500000      11.78600000      14.57100000       0.25127200      -0.46409800       1.32167700
C       14.17000000      12.91700000      11.71500000      -0.68914600       0.36714300      -0.06839000
C       11.39600000      12.82400000      10.98300000       0.65456500      -0.25390800      -0.26355100
C       12.39400000      13.15200000      10.04800000      -1.87954500      -0.80536000       0.00796700
C       13.73500000      13.22200000      10.43100000       1.32315800       0.65393600       0.13391500
H       15.22600000      13.04600000      11.99300000      -0.53624900      -0.22612200      -0.09434600
H       12.91000000      11.27300000      15.90300000       0.02564800       0.51070400      -0.88009200
H       14.67000000      12.08100000      14.18100000      -0.99455900       0.01854300      -0.04424600
H        9.76200000      12.40400000      13.15000000       0.90882500      -0.39251900       0.05619700
H       10.52400000      11.43700000      15.30800000       0.18531300       0.33750400      -0.19224100
H       10.33500000      12.69200000      10.68000000       0.84203700       0.25514900       0.27716200
H       12.07400000      13.20500000       9.00200000       0.39480300       0.42130700       0.29620600
H       14.46700000      13.64200000       9.73800000      -0.15860000      -0.40873600      -0.05871500
18
Lattice="25.0 0.0 0.0 0.0 25.0 0.0 0.0 0.0 25.0" Properties=species:S:1:pos:R:3:forces:R:3 energy=-105.37562055 stress="4.420860913863112e-05 -2.5502806288358993e-05 2.2169840415137334e-05 -2.5502806288358993e-05 0.00011264675670394105 -3.5308217125121594e-05 2.2169840415137334e-05 -3.5308217125121594e-05 1.8019236846424968e-05" free_energy=-105.37562055 pbc="T T T" config_stress_weight = 0.0
C       11.27700000      10.79300000      13.96600000       0.87459000       0.33981300      -0.94178500
C       12.46200000      10.77500000      13.22200000      -0.48537900      -0.53436300       0.66614000
C       12.86400000      11.90700000      12.49200000       0.47931400       0.38110300      -0.29332500
C       12.06000000      13.10800000      12.49000000       0.93473300      -0.55409200      -0.89784100
C       10.91200000      13.12300000      13.29900000       1.06397100      -0.26293600      -0.74403100
C       10.52900000      11.98600000      13.96100000      -1.26960700       0.11564500       0.90392500
C       14.09700000      11.89800000      11.78100000       1.04072600      -0.26253500      -0.98290500
C       12.47700000      14.19000000      11.63200000      -0.23180900       0.26779400       1.18464500
C       13.74600000      14.21100000      11.09100000       0.05131400      -0.72398700      -1.06588100
C       14.55600000      13.00400000      11.06600000      -0.89466500       0.65697600       1.19689100
H       14.70000000      10.96300000      11.75000000      -0.50417000       0.67328100       0.15486800
H       10.95100000       9.93200000      14.51900000      -0.11247000      -0.16615600       0.11145700
H       13.11600000       9.90100000      13.19700000      -0.25780600       0.12701600       0.09963700
H       10.49300000      14.08700000      13.37300000      -1.27261500       0.63835400       0.30576600
H        9.58700000      12.03300000      14.50500000       0.19942600      -0.13649100       0.16549900
H       11.77200000      15.03100000      11.54400000       0.57329100      -0.17836500       0.00651400
H       14.07800000      15.07900000      10.51900000      -0.06586400      -0.19989500       0.15138600
H       15.52900000      13.03500000      10.59000000      -0.12297900      -0.18116100      -0.02096000
18
Lattice="25.0 0.0 0.0 0.0 25.0 0.0 0.0 0.0 25.0" Properties=species:S:1:pos:R:3:forces:R:3 energy=-105.39785881 stress="0.00018559127385813867 -0.00012459924668000748 3.7293017027152464e-05 -0.00012459924668000748 0.0001119102586270868 -2.9016775926231264e-05 3.7293017027152464e-05 -2.9016775926231264e-05 3.706208118949479e-05" free_energy=-105.39785881 pbc="T T T" config_stress_weight = 0.0
C       12.40500000      11.49700000      14.82500000       0.57368400      -0.80269900       0.33056600
C       13.35800000      11.44000000      13.81100000      -0.53165200       0.90950500      -0.44384700
C       13.13600000      12.10900000      12.56900000      -0.62727500       1.03542800       0.66270200
C       11.88200000      12.94400000      12.45200000       1.90026000      -0.96080700      -0.97434700
C       10.95400000      12.90500000      13.48500000      -0.10689300      -0.49740400       1.29807700
C       11.18100000      12.17200000      14.66700000       0.04919300       0.54107300      -1.30434100
C       14.08600000      12.10900000      11.50800000      -0.57268300      -0.51429700      -1.32650100
C       11.69700000      13.66200000      11.23100000      -0.60104900      -0.18748100       0.58948100
C       12.58400000      13.48800000      10.19500000      -0.95010100       0.77708100      -0.75129200
C       13.72200000      12.68300000      10.27600000       1.02305300      -0.14691400       1.15754100
H       15.01600000      11.51000000      11.50600000      -0.62259500       0.34252000       0.49495900
H       12.61700000      10.95100000      15.75100000      -0.17222300       0.25589800      -0.24308900
H       14.32600000      10.99200000      13.93100000       0.13473700      -0.45194800       0.29329000
H       10.04600000      13.45600000      13.34900000      -0.46377000       0.19994000       0.08752500
H       10.40400000      12.11700000      15.40600000      -0.05066300       0.03915500       0.32134700
H       10.79600000      14.29700000      11.09000000       0.68943000      -0.46318600       0.17794200
H       12.30400000      14.02300000       9.29200000       0.43909200      -0.20184800      -0.21969600
H       14.40400000      12.56700000       9.44500000      -0.11054400       0.12598400      -0.15031800
18
Lattice="25.0 0.0 0.0 0.0 25.0 0.0 0.0 0.0 25.0" Properties=species:S:1:pos:R:3:forces:R:3 energy=-105.38338384 stress="3.3591802115503694e-05 6.292065349802912e-05 -5.667914437214587e-05 6.292065349802912e-05 -3.61633038753676e-05 1.25267088156477e-05 -5.667914437214587e-05 1.25267088156477e-05 5.2241431383642874e-05" free_energy=-105.38338384 pbc="T T T" config_stress_weight = 0.0
C       12.00300000      11.11300000      14.53700000       0.19795200      -2.04392500       0.16840500
C       12.82900000      10.92800000      13.44700000       0.81597100       0.30257600      -0.09116800
C       12.93400000      11.91900000      12.42000000      -1.65311000      -0.20998600       1.30075100
C       12.05700000      13.08700000      12.53300000       0.22294500      -1.09539400       0.80751500
C       11.14800000      13.17100000      13.62400000      -0.82013800      -0.13915100       0.84919500
C       11.06600000      12.13500000      14.57200000      -0.70934700       1.75176400      -0.12220400
C       13.79000000      11.79400000      11.34600000       1.09518100       0.66289300      -1.35576300
C       12.12400000      14.03600000      11.53700000       0.54803100       1.17660200      -1.32868700
C       13.08400000      13.94600000      10.52200000      -0.41887200       1.21761300      -0.15170000
C       13.95900000      12.86800000      10.45900000       0.54625300      -0.97868500      -0.15593300
H       14.35300000      10.88700000      11.17300000       0.18420900      -0.04614400       0.30088800
H       11.99400000      10.35200000      15.33900000       0.00737000       0.41545200      -0.49888700
H       13.52800000      10.09300000      13.37600000      -0.26839900       0.05042500       0.23025100
H       10.49700000      14.06800000      13.73900000       0.44001400      -0.79382900      -0.30770600
H       10.27800000      12.12800000      15.34700000       0.63971500       0.25473900      -0.37540600
H       11.46400000      14.89300000      11.56300000      -0.08691200       0.03879300       0.00180800
H       13.16800000      14.74800000       9.76700000      -0.10570700      -0.42306900       0.51233500
H       14.78200000      12.85900000       9.72600000      -0.63515700      -0.14067500       0.21630500
18
Lattice="25.0 0.0 0.0 0.0 25.0 0.0 0.0 0.0 25.0" Properties=species:S:1:pos:R:3:forces:R:3 energy=-105.44738473 stress="-7.217057002258811e-05 -6.735212497740625e-05 0.000113077420833627 -6.735212497740625e-05 -1.7825750063522583e-05 1.4243123825265595e-05 0.000113077420833627 1.4243123825265595e-05 0.0001351473971027502" free_energy=-105.44738473 pbc="T T T" config_stress_weight = 0.0
C       12.96100000      11.85000000      14.93200000       0.94046300       0.68057000      -0.16819100
C       13.71000000      12.47000000      13.91600000       0.35734400      -0.20361000       1.82125400
C       13.17100000      12.66700000      12.64800000      -0.00622900       0.08065700      -1.36243200
C       11.81100000      12.22600000      12.33300000       1.51429100       0.84625700       0.06393800
C       11.12900000      11.56600000      13.33800000      -1.60873700      -1.20878300       1.40098600
C       11.69200000      11.36000000      14.61300000      -0.74304600      -0.31173500      -0.21988400
C       13.90700000      13.32000000      11.61400000      -0.47086900       0.41184800      -0.50438800
C       11.29900000      12.58400000      11.07300000      -1.86690500      -0.66914800      -0.70420300
C       12.01000000      13.27600000      10.13200000      -0.72451100       0.20226400      -0.61161500
C       13.31600000      13.64100000      10.38400000       1.99476000       0.43456000       1.17235800
H       14.91000000      13.67100000      11.81200000       0.11031300      -0.07996000       0.09724800
H       13.35000000      11.82800000      15.97100000      -0.25290000      -0.25591700      -0.83456900
H       14.71400000      12.84300000      14.17400000      -0.46650600      -0.11923500      -0.35347900
H       10.08400000      11.21200000      13.15100000       0.95806800       0.25498200       0.13766900
H       11.16100000      10.80000000      15.38700000      -0.13882400       0.26773500      -0.35458500
H       10.26500000      12.29800000      10.78100000       0.64314000       0.09486000       0.53806600
H       11.52900000      13.59000000       9.21000000       0.03371000      -0.17906000       0.04171800
H       13.91300000      14.25100000       9.70800000      -0.27356300      -0.24628600      -0.15989200
36
Lattice="8.36469 0.0 0.0 0.0 6.05207 0.0 -4.833507419 0.0 7.247281048" Properties=species:S:1:pos:R:3:forces:R:3 energy=-212.39271928 stress="-0.0018215032987703925 -0.0007857123763118139 0.0040165546772157725 -0.0007857123763118139 -0.00633917626068508 0.003438335030284821 0.0040165546772157725 0.003438335030284821 -0.005785404605000213" free_energy=-212.39271928 pbc="T T T"
C       -1.00643000       6.02042000       2.37289000       0.67358100       0.95357600      -1.73487600
C        4.33913000       0.06589000       4.93254000      -0.23248700      -1.01410400      -0.92611800
C        0.46062000       3.12237000       4.88649000      -0.01640500      -0.13582700       0.35293100
C        3.24320000       3.04746000       2.33867000      -0.76584100       0.32053200      -0.19723400
C       -0.33126000       0.91271000       1.57847000       0.11707400      -0.95632600       0.62432600
C        3.62671000       5.14695000       5.59830000      -0.06663000       0.02463800       0.23362800
C       -0.33448000       3.98069000       5.62583000      -0.02309200      -0.17644300       0.01726400
C        3.85422000       2.09276000       1.57049000       1.24044800      -1.34028600      -0.06534300
C        0.15821000       0.56260000       0.31035000      -0.42215000      -0.54946700       0.13390400
C        3.32490000       5.34103000       6.97502000       0.61171200       1.39591600      -1.02453800
C       -0.79070000       3.68012000       6.95398000       0.32281600      -1.02006100      -0.86737100
C        4.34663000       2.39118000       0.27468000       0.59534100       0.38001700      -0.99547500
C       -3.92296000       1.48294000       6.82598000       1.03235200       1.31910200       0.20270700
C        7.48297000       4.44303000       0.49590000      -1.48305600      -1.85458400       2.22551100
C        3.23009000       4.55123000       0.42990000      -0.29428500       0.92718400       0.32556500
C        0.37791000       1.52974000       6.73370000      -0.74009800      -0.28287900       1.39492700
C       -3.55101000       1.25069000       5.53217000      -0.23887200      -0.09369300      -0.85559800
C       -1.21976000       4.74045000       1.84293000      -0.46682700      -1.11394500      -0.33046800
C        2.84998000       4.25879000       1.72385000       0.04183900       0.50740300       0.16010000
C        0.83922000       1.87994000       5.49391000       0.02879300      -0.04882600      -0.70535100
H       -1.46054000       0.34178000       3.24400000      -0.30522400      -0.11731700       1.35235700
H        4.49008000       5.89778000       3.88690000       0.34159900       0.33802600      -0.30914600
H        0.81367000       3.37556000       3.87349000      -0.33582500      -0.08864900       0.57484400
H        2.96410000       2.90068000       3.36784000      -0.00310800      -0.40553500       0.15163100
H       -0.08864000       1.90183000       1.91833000      -0.17663700       0.30027400       0.38728200
H        3.24205000       4.26435000       5.07785000       0.28773300       0.24269200       0.22388100
H       -0.68594000       4.90290000       5.21353000       0.02713600       0.53667600      -0.31460800
H        4.08047000       1.07262000       1.91896000      -0.13746800       0.55548900       0.25309000
H        1.23898000       2.37945000       0.11104000      -0.16329700      -0.07029100      -0.31819200
H        7.15646000       3.46805000       0.09034000       0.36563100       0.59927000       0.18737100
H       -1.86793000       5.50844000       7.23527000      -0.10691100      -0.10321300       0.01683800
H        0.65545000       0.58207000       7.20439000      -0.00502500       0.16276100      -0.34660900
H       -3.02560000       1.95219000       4.87812000       0.06744200       0.02498900       0.56139700
H        6.67095000       3.95139000       2.46927000       0.16411200       0.64573000      -0.54620700
H        2.25648000       4.98699000       2.27216000       0.05900300      -0.07563300       0.05722600
H        1.45141000       1.16554000       4.94052000       0.00662500       0.21280100       0.10035400
36
Lattice="8.36469 0.0 0.0 0.0 6.05207 0.0 -4.833507419 0.0 7.247281048" Properties=species:S:1:pos:R:3:forces:R:3 energy=-212.49689981 stress="0.00363791976760319 -0.0012235105509286433 -0.0051031639669772925 -0.0012235105509286433 -0.0006719046989104587 -0.008229623269259979 -0.0051031639669772925 -0.008229623269259979 0.01350192589203958" free_energy=-212.49689981 pbc="T T T"
C       -1.02455000       5.97262000       2.33404000       0.20776100       0.26599600       0.11520300
C        4.52419000       5.84483000       4.90671000      -0.32473400      -0.73876700      -0.50198700
C        0.28106000       3.15391000       4.88547000       0.81454900      -0.08780800      -0.68516200
C        3.20681000       3.09161000       2.35417000       0.05816100      -0.67335900       0.46311300
C       -0.23750000       0.78433000       1.58996000       0.08948200       0.59224500       0.81426300
C        3.84400000       4.93721000       5.69444000      -0.56757600      -0.70496100      -0.72825600
C       -0.35693000       4.09604000       5.63690000      -0.77447800       1.18803300       0.21529600
C        4.03485000       2.23112000       1.63618000      -0.52705000      -0.24181900       0.03363800
C        0.10222000       0.52014000       0.24850000       0.67346600      -0.13279400      -0.51946800
C        3.30036000       5.28150000       6.94883000      -0.07652000       0.16381000       0.66471200
C       -0.70853000       3.85300000       6.98109000      -0.65510000      -1.08052800       1.11807800
C        4.45125000       2.55879000       0.32537000       0.47744200       0.41424400      -0.45577700
C       -3.96774000       1.42554000       6.68565000      -0.27281500      -0.26494100       0.10059000
C        7.31916000       4.39844000       0.48943000      -0.29983400      -0.55658700      -0.76594200
C        3.32489000       4.71955000       0.53739000       0.23955300       0.58841800      -0.22321200
C        0.38658000       1.63628000       6.81236000      -0.13508300      -0.76181600      -0.73181000
C        4.75204000       1.06551000       5.38606000       1.04122900       1.70813800       0.98645300
C        6.90172000       4.75733000       1.76518000       0.25527300      -0.28507400      -0.52754400
C        2.86156000       4.33373000       1.79942000      -0.18422200       1.19263300      -0.55362800
C        0.68642000       1.93630000       5.46030000      -0.01689600      -1.20945600       1.51608400
H       -1.30344000       0.16570000       3.36075000       0.17720900      -0.00091400      -0.24639700
H        4.87523000       5.63617000       3.89718000      -0.14469800      -0.43308900       0.23780800
H        0.57159000       3.38190000       3.85934000      -0.24462300      -0.08746200       0.10541200
H        2.78913000       2.84150000       3.34477000       0.42817600      -0.09546000      -0.55021300