 vasp.6.4.1 05Apr23 (build Jun  6 2023 14:36:51) complex                         
 executed on        HPECrayEX_GCC date 2024.08.20  14:26:40
 running  256 mpi-ranks, with    1 threads/rank, on    2 nodes
 distrk:  each k-point on  128 cores,    2 groups
 distr:  one band on NCORE=  32 cores,    4 groups


--------------------------------------------------------------------------------------------------------


 INCAR:
   ALGO = Conjugate
   KPAR = 2
   NCORE = 32
   ISMEAR = 0
   SIGMA = 0.01
   PREC = Accurate
   EDIFF = 1E-7
   ENCUT = 1000
   ISIF = 0
   GGA = RE
   IVDW = 11
   LWAVE = .FALSE.
   LCHARGE = .FALSE.
   SYMPREC = 1E-7
   LWAVE = .FALSE.
   LCHARGE = .FALSE.

 POTCAR:    PAW_PBE C_h 06Feb2004                 
 POTCAR:    PAW_PBE H_h 06Feb2004                 
 POTCAR:    PAW_PBE C_h 06Feb2004                 
   VRHFIN =C: s2p2                                                                                  
   LEXCH  = PE                                                                                      
   EATOM  =   147.1560 eV,   10.8157 Ry                                                             
                                                                                                    
   TITEL  = PAW_PBE C_h 06Feb2004                                                                   
   LULTRA =        F    use ultrasoft PP ?                                                          
   IUNSCR =        1    unscreen: 0-lin 1-nonlin 2-no                                               
   RPACOR =    0.800    partial core radius                                                         
   POMASS =   12.011; ZVAL   =    4.000    mass and valenz                                          
   RCORE  =    1.100    outmost cutoff radius                                                       
   RWIGS  =    1.630; RWIGS  =    0.863    wigner-seitz radius (au A)                               
   ENMAX  =  700.000; ENMIN  =  500.000 eV                                                          
   ICORE  =        2    local potential                                                             
   LCOR   =        T    correct aug charges                                                         
   LPAW   =        T    paw PP                                                                      
   EAUG   =  946.768                                                                                
   DEXC   =    0.000                                                                                
   RMAX   =    1.128    core radius for proj-oper                                                   
   RAUG   =    1.300    factor for augmentation sphere                                              
   RDEP   =    1.162    radius for radial grids                                                     
   RDEPT  =    1.088    core radius for aug-charge                                                  
                                                                                                    
   Atomic configuration                                                                             
    4 entries                                                                                       
     n  l   j            E        occ.                                                              
     1  0  0.50      -273.3789   2.0000                                                             
     2  0  0.50       -13.7508   2.0000                                                             
     2  1  0.50        -5.2854   2.0000                                                             
     3  2  1.50        -5.4423   0.0000                                                             
   Description                                                                                      
     l       E           TYP  RCUT    TYP  RCUT                                                     
     0    -13.7508458     23  1.100                                                                 
     0     -8.2022199     23  1.100                                                                 
     1     -5.2854383     23  1.100                                                                 
     1      1.1560700     23  1.100                                                                 
     2     -5.4423304      7  1.100                                                                 
  local pseudopotential read in
  partial core-charges read in
  partial kinetic energy density read in
  atomic valenz-charges read in
  non local Contribution for L=           0  read in
    real space projection operators read in
  non local Contribution for L=           0  read in
    real space projection operators read in
  non local Contribution for L=           1  read in
    real space projection operators read in
  non local Contribution for L=           1  read in
    real space projection operators read in
    PAW grid and wavefunctions read in

   number of l-projection  operators is LMAX  =           4
   number of lm-projection operators is LMMAX =           8

 POTCAR:    PAW_PBE H_h 06Feb2004                 
   VRHFIN =H: ultrasoft test                                                                        
   LEXCH  = PE                                                                                      
   EATOM  =    12.4884 eV,    0.9179 Ry                                                             
                                                                                                    
   TITEL  = PAW_PBE H_h 06Feb2004                                                                   
   LULTRA =        F    use ultrasoft PP ?                                                          
   IUNSCR =        0    unscreen: 0-lin 1-nonlin 2-no                                               
   RPACOR =    0.000    partial core radius                                                         
   POMASS =    1.000; ZVAL   =    1.000    mass and valenz                                          
   RCORE  =    0.800    outmost cutoff radius                                                       
   RWIGS  =    0.700; RWIGS  =    0.370    wigner-seitz radius (au A)                               
   ENMAX  =  700.000; ENMIN  =  350.000 eV                                                          
   RCLOC  =    0.701    cutoff for local pot                                                        
   LCOR   =        T    correct aug charges                                                         
   LPAW   =        T    paw PP                                                                      
   EAUG   = 1000.000                                                                                
   RMAX   =    0.819    core radius for proj-oper                                                   
   RAUG   =    1.000    factor for augmentation sphere                                              
   RDEP   =    0.817    radius for radial grids                                                     
   RDEPT  =    0.817    core radius for aug-charge                                                  
                                                                                                    
   Atomic configuration                                                                             
    2 entries                                                                                       
     n  l   j            E        occ.                                                              
     1  0  0.50        -6.4927   1.0000                                                             
     2  1  0.50        -3.4015   0.0000                                                             
   Description                                                                                      
     l       E           TYP  RCUT    TYP  RCUT                                                     
     0     -6.4927493     23  0.800                                                                 
     0      6.8029130     23  0.800                                                                 
     1     -6.8029130     23  0.800                                                                 
  local pseudopotential read in
  atomic valenz-charges read in
  non local Contribution for L=           0  read in
    real space projection operators read in
  non local Contribution for L=           0  read in
    real space projection operators read in
  non local Contribution for L=           1  read in
    real space projection operators read in
    PAW grid and wavefunctions read in

   number of l-projection  operators is LMAX  =           3
   number of lm-projection operators is LMMAX =           5

 -----------------------------------------------------------------------------
|                                                                             |
|               ----> ADVICE to this user running VASP <----                  |
|                                                                             |
|     You have a (more or less) 'large supercell' and for larger cells it     |
|     might be more efficient to use real-space projection operators.         |
|     Therefore, try LREAL= Auto in the INCAR file.                           |
|     Mind: For very accurate calculation, you might also keep the            |
|     reciprocal projection scheme (i.e. LREAL=.FALSE.).                      |
|                                                                             |
 -----------------------------------------------------------------------------

 -----------------------------------------------------------------------------
|                                                                             |
|               ----> ADVICE to this user running VASP <----                  |
|                                                                             |
|     You enforced a specific xc type in the INCAR file but a different       |
|     type was found in the POTCAR file.                                      |
|     I HOPE YOU KNOW WHAT YOU ARE DOING!                                     |
|                                                                             |
 -----------------------------------------------------------------------------

  PAW_PBE C_h 06Feb2004                 :
 energy of atom  1       EATOM= -147.1560
 kinetic energy error for atom=    0.0031 (will be added to EATOM!!)
  PAW_PBE H_h 06Feb2004                 :
 energy of atom  2       EATOM=  -12.4884
 kinetic energy error for atom=    0.0006 (will be added to EATOM!!)


 POSCAR:  C  H
  positions in cartesian coordinates
  No initial velocities read in
 exchange correlation table for  LEXCH =       40
   RHO(1)=    0.500       N(1)  =     2000
   RHO(2)=  100.500       N(2)  =     4000

 VTST: version 4.1, (05/19/21)

 CHAIN: initializing optimizer
 
 OPT: Using VASP Dynamics algorithm
 CHAIN: Read ICHAIN            0

 POSCAR:  C  H
  positions in cartesian coordinates
  No initial velocities read in



--------------------------------------------------------------------------------------------------------


 ion  position               nearest neighbor table
   1  0.991  0.991  0.199-  25 1.10  21 1.10   2 1.54   4 1.54
   2  0.967  0.179  0.100-  22 1.10   5 1.54   1 1.54   3 1.54
   3  0.154  0.204  1.000-  23 1.10  24 1.10   6 1.54   2 1.54
   4  0.016  0.803  0.100-  26 1.10   8 1.54   1 1.54   7 1.54
   5  0.779  0.154  0.000-  27 1.10  28 1.10   2 1.54   9 1.54
   6  0.179  0.016  0.900-  29 1.10   3 1.54  10 1.54   8 1.54
   7  0.829  0.779  1.000-  30 1.10  31 1.10   9 1.54   4 1.54
   8  0.204  0.829  0.000-  32 1.10  33 1.10   4 1.54   6 1.54
   9  0.803  0.967  0.900-  34 1.10   7 1.54  10 1.54   5 1.54
  10  0.991  0.991  0.801-  36 1.10  35 1.10   9 1.54   6 1.54
  11  0.491  0.491  0.301-  39 1.10  37 1.10  13 1.54  15 1.54
  12  0.491  0.491  0.699-  38 1.10  40 1.10  14 1.54  16 1.54
  13  0.516  0.679  0.400-  41 1.10  18 1.54  11 1.54  17 1.54
  14  0.679  0.467  0.600-  42 1.10  19 1.54  12 1.54  18 1.54
  15  0.467  0.303  0.400-  43 1.10  20 1.54  11 1.54  19 1.54
  16  0.303  0.516  0.600-  44 1.10  17 1.54  12 1.54  20 1.54
  17  0.329  0.704  0.500-  45 1.10  49 1.10  16 1.54  13 1.54
  18  0.704  0.654  0.500-  46 1.10  50 1.10  13 1.54  14 1.54
  19  0.654  0.279  0.500-  47 1.10  51 1.10  14 1.54  15 1.54
  20  0.279  0.329  0.500-  48 1.10  52 1.10  15 1.54  16 1.54
  21  0.124  0.009  0.273-   1 1.10
  22  0.949  0.314  0.171-   2 1.10
  23  0.289  0.226  0.069-   3 1.10
  24  0.138  0.340  0.929-   3 1.10
  25  0.859  0.974  0.273-   1 1.10
  26  0.033  0.669  0.171-   4 1.10
  27  0.757  0.289  0.931-   5 1.10
  28  0.643  0.138  0.071-   5 1.10
  29  0.314  0.033  0.829-   6 1.10
  30  0.693  0.757  0.069-   7 1.10
  31  0.845  0.643  0.929-   7 1.10
  32  0.226  0.693  0.931-   8 1.10
  33  0.340  0.845  0.071-   8 1.10
  34  0.669  0.949  0.829-   9 1.10
  35  0.974  0.124  0.727-  10 1.10
  36  0.009  0.859  0.727-  10 1.10
  37  0.359  0.509  0.227-  11 1.10
  38  0.509  0.624  0.773-  12 1.10
  39  0.624  0.474  0.227-  11 1.10
  40  0.474  0.359  0.773-  12 1.10
  41  0.533  0.814  0.329-  13 1.10
  42  0.814  0.449  0.671-  14 1.10
  43  0.449  0.169  0.329-  15 1.10
  44  0.169  0.533  0.671-  16 1.10
  45  0.193  0.726  0.431-  17 1.10
  46  0.726  0.789  0.569-  18 1.10
  47  0.789  0.257  0.431-  19 1.10
  48  0.257  0.193  0.569-  20 1.10
  49  0.345  0.840  0.571-  17 1.10
  50  0.840  0.638  0.429-  18 1.10
  51  0.638  0.143  0.571-  19 1.10
  52  0.143  0.345  0.429-  20 1.10

  LATTYP: Found a simple tetragonal cell.
 ALAT       =     6.6390000000
 C/A-ratio  =     1.3432745895
  
  Lattice vectors:
  
 A1 = (   6.6390000000,   0.0000000000,   0.0000000000)
 A2 = (   0.0000000000,   6.6390000000,   0.0000000000)
 A3 = (   0.0000000000,   0.0000000000,   8.9180000000)


Analysis of symmetry for initial positions (statically):
=====================================================================
 Subroutine PRICEL returns:
 Original cell was already a primitive cell.
 

 Routine SETGRP: Setting up the symmetry group for a 
 simple tetragonal supercell.


 Subroutine GETGRP returns: Found  1 space group operations
 (whereof  1 operations were pure point group operations)
 out of a pool of 16 trial point group operations.


The static configuration has the point symmetry C_1 .


Analysis of symmetry for dynamics (positions and initial velocities):
=====================================================================
 Subroutine PRICEL returns:
 Original cell was already a primitive cell.
 

 Routine SETGRP: Setting up the symmetry group for a 
 simple tetragonal supercell.


 Subroutine GETGRP returns: Found  1 space group operations
 (whereof  1 operations were pure point group operations)
 out of a pool of 16 trial point group operations.


The dynamic configuration has the point symmetry C_1 .


 Subroutine INISYM returns: Found  1 space group operations
 (whereof  1 operations are pure point group operations),
 and found     1 'primitive' translations


----------------------------------------------------------------------------------------

                                     Primitive cell                                     

  volume of cell :     393.0726

  direct lattice vectors                    reciprocal lattice vectors
     6.639000000  0.000000000  0.000000000     0.150625094  0.000000000  0.000000000
     0.000000000  6.639000000  0.000000000     0.000000000  0.150625094  0.000000000
     0.000000000  0.000000000  8.918000000     0.000000000  0.000000000  0.112132765

  length of vectors
     6.639000000  6.639000000  8.918000000     0.150625094  0.150625094  0.112132765

  position of ions in fractional coordinates (direct lattice)
     0.991347273  0.991347645  0.199485019
     0.966613204  0.179408016  0.099919657
     0.153988129  0.204167579  0.999505602
     0.016081388  0.803287290  0.099919608
     0.778527630  0.153988553  0.000494412
     0.179407519  0.016081993  0.900080458
     0.828706437  0.778527711  0.999505600
     0.204166924  0.828706755  0.000494398
     0.803287057  0.966613357  0.900080459
     0.991347208  0.991347659  0.800514950
     0.491347319  0.491347699  0.300514851
     0.491347357  0.491347661  0.699484876
     0.516081342  0.679408041  0.400080248
     0.679407556  0.466613331  0.599919391
     0.466613259  0.303287298  0.400080201
     0.303287096  0.516081967  0.599919415
     0.328706404  0.704167588  0.500494306
     0.704166956  0.653988526  0.499505474
     0.653988207  0.278527734  0.500494260
     0.278527674  0.328706806  0.499505432
     0.123697939  0.008652341  0.273043096
     0.949198468  0.314120706  0.171236416
     0.289305722  0.226168082  0.069170298
     0.138070205  0.339664221  0.928850888
     0.858996637  0.974042961  0.273043097
     0.033496085  0.668574596  0.171236403
     0.756527446  0.289305594  0.930828983
     0.643030713  0.138070989  0.071148814
     0.314120580  0.033496380  0.828764097
     0.693388825  0.756527216  0.069170283
     0.844624363  0.643031072  0.928850867
     0.226167109  0.693389696  0.930828970
     0.339663838  0.844624302  0.071148809
     0.668573983  0.949198919  0.828764088
     0.974041824  0.123697988  0.726956627
     0.008652727  0.858997399  0.726956617
     0.358996630  0.508652407  0.226956805
     0.508652716  0.623697923  0.773043248
     0.623697964  0.474043008  0.226956801
     0.474041876  0.358997375  0.773043261
     0.533496106  0.814120742  0.328763462
     0.814120582  0.449198958  0.671235752
     0.449198514  0.168574623  0.328763414
     0.168574001  0.533496326  0.671235753
     0.193388867  0.726168073  0.430829573
     0.726167106  0.789305644  0.569170904
     0.789305757  0.256527272  0.430829553
     0.256527492  0.193389689  0.569170852
     0.344624356  0.839664199  0.571148997
     0.839663883  0.638071053  0.428851043
     0.638070250  0.143031129  0.571148951
     0.143030732  0.344624309  0.428851014

  ion indices of the primitive-cell ions
   primitive index   ion index
                 1           1
                 2           2
                 3           3
                 4           4
                 5           5
                 6           6
                 7           7
                 8           8
                 9           9
                10          10
                11          11
                12          12
                13          13
                14          14
                15          15
                16          16
                17          17
                18          18
                19          19
                20          20
                21          21
                22          22
                23          23
                24          24
                25          25
                26          26
                27          27
                28          28
                29          29
                30          30
                31          31
                32          32
                33          33
                34          34
                35          35
                36          36
                37          37
                38          38
                39          39
                40          40
                41          41
                42          42
                43          43
                44          44
                45          45
                46          46
                47          47
                48          48
                49          49
                50          50
                51          51
                52          52

----------------------------------------------------------------------------------------



 KPOINTS: auto                                    

Automatic generation of k-mesh.
 Grid dimensions read from file:
 generate k-points for:    4    4    3

 Generating k-lattice:

  Cartesian coordinates                     Fractional coordinates (reciprocal lattice)
     0.037656274  0.000000000  0.000000000     0.250000000  0.000000000  0.000000000
     0.000000000  0.037656274  0.000000000     0.000000000  0.250000000  0.000000000
     0.000000000  0.000000000  0.037377588     0.000000000  0.000000000  0.333333333

  Length of vectors
     0.037656274  0.037656274  0.037377588

  Shift w.r.t. Gamma in fractional coordinates (k-lattice)
     0.000000000  0.000000000  0.000000000

 
 Subroutine IBZKPT returns following result:
 ===========================================
 
 Found     26 irreducible k-points:
 
 Following reciprocal coordinates:
            Coordinates               Weight
  0.000000  0.000000  0.000000      1.000000
  0.250000  0.000000  0.000000      2.000000
  0.000000  0.250000  0.000000      2.000000
  0.500000  0.000000  0.000000      1.000000
  0.000000  0.500000  0.000000      1.000000
  0.250000  0.250000  0.000000      2.000000
 -0.250000  0.250000  0.000000      2.000000
  0.500000  0.250000  0.000000      2.000000
 -0.250000  0.500000  0.000000      2.000000
  0.500000  0.500000  0.000000      1.000000
  0.000000  0.000000  0.333333      2.000000
  0.250000  0.000000  0.333333      2.000000
  0.000000  0.250000  0.333333      2.000000
 -0.250000  0.000000  0.333333      2.000000
  0.000000 -0.250000  0.333333      2.000000
  0.500000  0.000000  0.333333      2.000000
  0.000000  0.500000  0.333333      2.000000
  0.250000  0.250000  0.333333      2.000000
 -0.250000  0.250000  0.333333      2.000000
 -0.250000 -0.250000  0.333333      2.000000
  0.250000 -0.250000  0.333333      2.000000
  0.500000  0.250000  0.333333      2.000000
 -0.250000  0.500000  0.333333      2.000000
  0.500000 -0.250000  0.333333      2.000000
  0.250000  0.500000  0.333333      2.000000
  0.500000  0.500000  0.333333      2.000000
 
 Following cartesian coordinates:
            Coordinates               Weight
  0.000000  0.000000  0.000000      1.000000
  0.037656  0.000000  0.000000      2.000000
  0.000000  0.037656  0.000000      2.000000
  0.075313  0.000000  0.000000      1.000000
  0.000000  0.075313  0.000000      1.000000
  0.037656  0.037656  0.000000      2.000000
 -0.037656  0.037656  0.000000      2.000000
  0.075313  0.037656  0.000000      2.000000
 -0.037656  0.075313  0.000000      2.000000
  0.075313  0.075313  0.000000      1.000000
  0.000000  0.000000  0.037378      2.000000
  0.037656  0.000000  0.037378      2.000000
  0.000000  0.037656  0.037378      2.000000
 -0.037656  0.000000  0.037378      2.000000
  0.000000 -0.037656  0.037378      2.000000
  0.075313  0.000000  0.037378      2.000000
  0.000000  0.075313  0.037378      2.000000
  0.037656  0.037656  0.037378      2.000000
 -0.037656  0.037656  0.037378      2.000000
 -0.037656 -0.037656  0.037378      2.000000
  0.037656 -0.037656  0.037378      2.000000
  0.075313  0.037656  0.037378      2.000000
 -0.037656  0.075313  0.037378      2.000000
  0.075313 -0.037656  0.037378      2.000000
  0.037656  0.075313  0.037378      2.000000
  0.075313  0.075313  0.037378      2.000000
 


--------------------------------------------------------------------------------------------------------




 Dimension of arrays:
   k-points           NKPTS =     26   k-points in BZ     NKDIM =     26   number of bands    NBANDS=     84
   number of dos      NEDOS =    301   number of ions     NIONS =     52
   non local maximal  LDIM  =      4   non local SUM 2l+1 LMDIM =      8
   total plane-waves  NPLWV = 470400
   max r-space proj   IRMAX =      1   max aug-charges    IRDMAX=   8137
   dimension x,y,z NGX =    70 NGY =   70 NGZ =   96
   dimension x,y,z NGXF=   140 NGYF=  140 NGZF=  192
   support grid    NGXF=   140 NGYF=  140 NGZF=  192
   ions per type =              20  32
   NGX,Y,Z   is equivalent  to a cutoff of  17.53, 17.53, 17.90 a.u.
   NGXF,Y,Z  is equivalent  to a cutoff of  35.06, 35.06, 35.79 a.u.

 SYSTEM =  unknown system                          
 POSCAR =   C  H                                   

 Startparameter for this run:
   NWRITE =      2    write-flag & timer
   PREC   = accura    normal or accurate (medium, high low for compatibility)
   ISTART =      0    job   : 0-new  1-cont  2-samecut
   ICHARG =      2    charge: 1-file 2-atom 10-const
   ISPIN  =      1    spin polarized calculation?
   LNONCOLLINEAR =      F non collinear calculations
   LSORBIT =      F    spin-orbit coupling
   INIWAV =      1    electr: 0-lowe 1-rand  2-diag
   LASPH  =      F    aspherical Exc in radial PAW
 Electronic Relaxation 1
   ENCUT  = 1000.0 eV  73.50 Ry    8.57 a.u.  17.12 17.12 22.99*2*pi/ulx,y,z
   ENINI  = 1000.0     initial cutoff
   ENAUG  = 1000.0 eV  augmentation charge cutoff
   NELM   =     60;   NELMIN=  2; NELMDL= -5     # of ELM steps 
   EDIFF  = 0.1E-06   stopping-criterion for ELM
   LREAL  =      F    real-space projection
   NLSPLINE    = F    spline interpolate recip. space projectors
   LCOMPAT=      F    compatible to vasp.4.4
   GGA_COMPAT  = T    GGA compatible to vasp.4.4-vasp.4.6
   LMAXPAW     = -100 max onsite density
   LMAXMIX     =    2 max onsite mixed and CHGCAR
   VOSKOWN=      0    Vosko Wilk Nusair interpolation
   ROPT   =    0.00000   0.00000
 Ionic relaxation
   EDIFFG = 0.1E-05   stopping-criterion for IOM
   NSW    =      0    number of steps for IOM
   NBLOCK =      1;   KBLOCK =      1    inner block; outer block 
   IBRION =     -1    ionic relax: 0-MD 1-quasi-New 2-CG
   NFREE  =      0    steps in history (QN), initial steepest desc. (CG)
   ISIF   =      0    stress and relaxation
   IWAVPR =     10    prediction:  0-non 1-charg 2-wave 3-comb
   ISYM   =      2    0-nonsym 1-usesym 2-fastsym
   LCORR  =      T    Harris-Foulkes like correction to forces

   POTIM  = 0.5000    time-step for ionic-motion
   TEIN   =    0.0    initial temperature
   TEBEG  =    0.0;   TEEND  =   0.0 temperature during run
   SMASS  =  -3.00    Nose mass-parameter (am)
   estimated Nose-frequenzy (Omega)   =  0.10E-29 period in steps = 0.13E+47 mass=  -0.101E-26a.u.
   SCALEE = 1.0000    scale energy and forces
   NPACO  =    256;   APACO  = 10.0  distance and # of slots for P.C.
   PSTRESS=    0.0 pullay stress

  Mass of Ions in am
   POMASS =  12.01  1.00
  Ionic Valenz
   ZVAL   =   4.00  1.00
  Atomic Wigner-Seitz radii
   RWIGS  =  -1.00 -1.00
  virtual crystal weights 
   VCA    =   1.00  1.00
   NELECT =     112.0000    total number of electrons
   NUPDOWN=      -1.0000    fix difference up-down

 DOS related values:
   EMIN   =  10.00;   EMAX   =-10.00  energy-range for DOS
   EFERMI =   0.00;   METHOD = LEGACY      
   ISMEAR =     0;   SIGMA  =   0.01  broadening in eV -4-tet -1-fermi 0-gaus

 Electronic relaxation 2 (details)
   IALGO  =     58    algorithm
   LDIAG  =      T    sub-space diagonalisation (order eigenvalues)
   LSUBROT=      F    optimize rotation matrix (better conditioning)
   TURBO    =      0    0=normal 1=particle mesh
   IRESTART =      0    0=no restart 2=restart with 2 vectors
   NREBOOT  =      0    no. of reboots
   NMIN     =      0    reboot dimension
   EREF     =   0.00    reference energy to select bands
   IMIX   =      4    mixing-type and parameters
     AMIX     =   0.40;   BMIX     =  1.00
     AMIX_MAG =   1.60;   BMIX_MAG =  1.00
     AMIN     =   0.10
     WC   =   100.;   INIMIX=   1;  MIXPRE=   1;  MAXMIX= -45

 Intra band minimization:
   WEIMIN = 0.0000     energy-eigenvalue tresh-hold
   EBREAK =  0.30E-09  absolut break condition
   DEPER  =   0.30     relativ break condition  

   TIME   =   0.40     timestep for ELM

  volume/ion in A,a.u.               =       7.56        51.01
  Fermi-wavevector in a.u.,A,eV,Ry     =   1.077267  2.035739 15.789609  1.160504
  Thomas-Fermi vector in A             =   2.213174

 Write flags
   LWAVE        =      F    write WAVECAR
   LDOWNSAMPLE  =      F    k-point downsampling of WAVECAR
   LCHARG       =      T    write CHGCAR
   LVTOT        =      F    write LOCPOT, total local potential
   LVHAR        =      F    write LOCPOT, Hartree potential only
   LELF         =      F    write electronic localiz. function (ELF)
   LORBIT       =      0    0 simple, 1 ext, 2 COOP (PROOUT), +10 PAW based schemes


 Dipole corrections
   LMONO  =      F    monopole corrections only (constant potential shift)
   LDIPOL =      F    correct potential (dipole corrections)
   IDIPOL =      0    1-x, 2-y, 3-z, 4-all directions 
   EPSILON=  1.0000000 bulk dielectric constant

 Exchange correlation treatment:
   GGA     =    RE    GGA type
   LEXCH   =    40    internal setting for exchange type
   LIBXC   =     F    Libxc                    
   VOSKOWN =     0    Vosko Wilk Nusair interpolation
   LHFCALC =     F    Hartree Fock is set to
   LHFONE  =     F    Hartree Fock one center treatment
   AEXX    =    0.0000 exact exchange contribution

 Linear response parameters
   LEPSILON=     F    determine dielectric tensor
   LRPA    =     F    only Hartree local field effects (RPA)
   LNABLA  =     F    use nabla operator in PAW spheres
   LVEL    =     F    velocity operator in full k-point grid
   CSHIFT  =0.1000    complex shift for real part using Kramers Kronig
   OMEGAMAX=  -1.0    maximum frequency
   DEG_THRESHOLD= 0.2000000E-02 threshold for treating states as degnerate
   RTIME   =   -0.100 relaxation time in fs
  (WPLASMAI=    0.000 imaginary part of plasma frequency in eV, 0.658/RTIME)
   DFIELD  = 0.0000000 0.0000000 0.0000000 field for delta impulse in time

  Optional k-point grid parameters
   LKPOINTS_OPT  =     F    use optional k-point grid
   KPOINTS_OPT_MODE=     1    mode for optional k-point grid

 Orbital magnetization related:
   ORBITALMAG=     F  switch on orbital magnetization
   LCHIMAG   =     F  perturbation theory with respect to B field
   DQ        =  0.001000  dq finite difference perturbation B field
   LLRAUG    =     F  two centre corrections for induced B field
   LBONE     =     F  B-component reconstruction in AE one-centre
   LVGVCALC  =     T  calculate vGv susceptibility
   LVGVAPPL  =     F  apply vGv susceptibility instead of pGv for G=0

 Random number generation:
   RANDOM_GENERATOR = DEFAULT
   PCG_SEED         = not used


--------------------------------------------------------------------------------------------------------


 Static calculation
 charge density and potential will be updated during run
 non-spin polarized calculation
 Conjugate gradient for all bands (Freysoldt, et al. PRB 79, 241103 (2009))
 preconditioned conjugated gradient                                        
 perform sub-space diagonalisation
    before iterative eigenvector-optimisation
 modified Broyden-mixing scheme, WC =      100.0
 initial mixing is a Kerker type mixing with AMIX =  0.4000 and BMIX =      1.0000
 Hartree-type preconditioning will be used
 using additional bands           28
 reciprocal scheme for non local part
 use partial core corrections
 no Harris-corrections to forces 
 use gradient corrections 
 use of overlap-Matrix (Vanderbilt PP)
 Gauss-broadening in eV      SIGMA  =   0.01


--------------------------------------------------------------------------------------------------------


  energy-cutoff  :     1000.00
  volume of cell :      393.07
      direct lattice vectors                 reciprocal lattice vectors
     6.639000000  0.000000000  0.000000000     0.150625094  0.000000000  0.000000000
     0.000000000  6.639000000  0.000000000     0.000000000  0.150625094  0.000000000
     0.000000000  0.000000000  8.918000000     0.000000000  0.000000000  0.112132765

  length of vectors
     6.639000000  6.639000000  8.918000000     0.150625094  0.150625094  0.112132765



 k-points in units of 2pi/SCALE and weight: auto                                    
   0.00000000  0.00000000  0.00000000       0.021
   0.03765627  0.00000000  0.00000000       0.042
   0.00000000  0.03765627  0.00000000       0.042
   0.07531255  0.00000000  0.00000000       0.021
   0.00000000  0.07531255  0.00000000       0.021
   0.03765627  0.03765627  0.00000000       0.042
  -0.03765627  0.03765627  0.00000000       0.042
   0.07531255  0.03765627  0.00000000       0.042
  -0.03765627  0.07531255  0.00000000       0.042
   0.07531255  0.07531255  0.00000000       0.021
   0.00000000  0.00000000  0.03737759       0.042
   0.03765627  0.00000000  0.03737759       0.042
   0.00000000  0.03765627  0.03737759       0.042
  -0.03765627  0.00000000  0.03737759       0.042
   0.00000000 -0.03765627  0.03737759       0.042
   0.07531255  0.00000000  0.03737759       0.042
   0.00000000  0.07531255  0.03737759       0.042
   0.03765627  0.03765627  0.03737759       0.042
  -0.03765627  0.03765627  0.03737759       0.042
  -0.03765627 -0.03765627  0.03737759       0.042
   0.03765627 -0.03765627  0.03737759       0.042
   0.07531255  0.03765627  0.03737759       0.042
  -0.03765627  0.07531255  0.03737759       0.042
   0.07531255 -0.03765627  0.03737759       0.042
   0.03765627  0.07531255  0.03737759       0.042
   0.07531255  0.07531255  0.03737759       0.042

 k-points in reciprocal lattice and weights: auto                                    
   0.00000000  0.00000000  0.00000000       0.021
   0.25000000  0.00000000  0.00000000       0.042
   0.00000000  0.25000000  0.00000000       0.042
   0.50000000  0.00000000  0.00000000       0.021
   0.00000000  0.50000000  0.00000000       0.021
   0.25000000  0.25000000  0.00000000       0.042
  -0.25000000  0.25000000  0.00000000       0.042
   0.50000000  0.25000000  0.00000000       0.042
  -0.25000000  0.50000000  0.00000000       0.042
   0.50000000  0.50000000  0.00000000       0.021
   0.00000000  0.00000000  0.33333333       0.042
   0.25000000  0.00000000  0.33333333       0.042
   0.00000000  0.25000000  0.33333333       0.042
  -0.25000000  0.00000000  0.33333333       0.042
   0.00000000 -0.25000000  0.33333333       0.042
   0.50000000  0.00000000  0.33333333       0.042
   0.00000000  0.50000000  0.33333333       0.042
   0.25000000  0.25000000  0.33333333       0.042
  -0.25000000  0.25000000  0.33333333       0.042
  -0.25000000 -0.25000000  0.33333333       0.042
   0.25000000 -0.25000000  0.33333333       0.042
   0.50000000  0.25000000  0.33333333       0.042
  -0.25000000  0.50000000  0.33333333       0.042
   0.50000000 -0.25000000  0.33333333       0.042
   0.25000000  0.50000000  0.33333333       0.042
   0.50000000  0.50000000  0.33333333       0.042

 position of ions in fractional coordinates (direct lattice) 
   0.99134727  0.99134764  0.19948502
   0.96661320  0.17940802  0.09991966
   0.15398813  0.20416758  0.99950560
   0.01608139  0.80328729  0.09991961
   0.77852763  0.15398855  0.00049441
   0.17940752  0.01608199  0.90008046
   0.82870644  0.77852771  0.99950560
   0.20416692  0.82870676  0.00049440
   0.80328706  0.96661336  0.90008046
   0.99134721  0.99134766  0.80051495
   0.49134732  0.49134770  0.30051485
   0.49134736  0.49134766  0.69948488
   0.51608134  0.67940804  0.40008025
   0.67940756  0.46661333  0.59991939
   0.46661326  0.30328730  0.40008020
   0.30328710  0.51608197  0.59991941
   0.32870640  0.70416759  0.50049431
   0.70416696  0.65398853  0.49950547
   0.65398821  0.27852773  0.50049426
   0.27852767  0.32870681  0.49950543
   0.12369794  0.00865234  0.27304310
   0.94919847  0.31412071  0.17123642
   0.28930572  0.22616808  0.06917030
   0.13807020  0.33966422  0.92885089
   0.85899664  0.97404296  0.27304310
   0.03349608  0.66857460  0.17123640
   0.75652745  0.28930559  0.93082898
   0.64303071  0.13807099  0.07114881
   0.31412058  0.03349638  0.82876410
   0.69338882  0.75652722  0.06917028
   0.84462436  0.64303107  0.92885087
   0.22616711  0.69338970  0.93082897
   0.33966384  0.84462430  0.07114881
   0.66857398  0.94919892  0.82876409
   0.97404182  0.12369799  0.72695663
   0.00865273  0.85899740  0.72695662
   0.35899663  0.50865241  0.22695681
   0.50865272  0.62369792  0.77304325
   0.62369796  0.47404301  0.22695680
   0.47404188  0.35899737  0.77304326
   0.53349611  0.81412074  0.32876346
   0.81412058  0.44919896  0.67123575
   0.44919851  0.16857462  0.32876341
   0.16857400  0.53349633  0.67123575
   0.19338887  0.72616807  0.43082957
   0.72616711  0.78930564  0.56917090
   0.78930576  0.25652727  0.43082955
   0.25652749  0.19338969  0.56917085
   0.34462436  0.83966420  0.57114900
   0.83966388  0.63807105  0.42885104
   0.63807025  0.14303113  0.57114895
   0.14303073  0.34462431  0.42885101

 position of ions in cartesian coordinates  (Angst):
   6.58155455  6.58155701  1.77900740
   6.41734506  1.19108982  0.89108350
   1.02232719  1.35546855  8.91359096
   0.10676434  5.33302432  0.89108306
   5.16864494  1.02233000  0.00440917
   1.19108652  0.10676835  8.02691752
   5.50178203  5.16864547  8.91359094
   1.35546421  5.50178415  0.00440904
   5.33302277  6.41734608  8.02691754
   6.58155411  6.58155710  7.13899232
   3.26205485  3.26205737  2.67999144
   3.26205510  3.26205712  6.23800612
   3.42626403  4.51058999  3.56791565
   4.51058677  3.09784590  5.35008113
   3.09784543  2.01352437  3.56791523
   2.01352303  3.42626818  5.35008134
   2.18228182  4.67496862  4.46340822
   4.67496442  4.34182982  4.45458981
   4.34182770  1.84914562  4.46340781
   1.84914523  2.18228448  4.45458944
   0.82123061  0.05744290  2.43499833
   6.30172863  2.08544737  1.52708636
   1.92070069  1.50152990  0.61686072
   0.91664809  2.25503076  8.28349222
   5.70287867  6.46667122  2.43499834
   0.22238051  4.43866674  1.52708624
   5.02258571  1.92069984  8.30113287
   4.26908091  0.91665330  0.63450513
   2.08544653  0.22238246  7.39091822
   4.60340841  5.02258419  0.61686058
   5.60746114  4.26908328  8.28349203
   1.50152343  4.60341419  8.30113275
   2.25502822  5.60746074  0.63450508
   4.43866268  6.30173163  7.39091814
   6.46666367  0.82123094  6.48299920
   0.05744545  5.70288373  6.48299911
   2.38337863  3.37694333  2.02400079
   3.37694538  4.14073051  6.89399969
   4.14073079  3.14717153  2.02400075
   3.14716401  2.38338357  6.89399980
   3.54188065  5.40494761  2.93191255
   5.40494655  2.98223188  5.98608044
   2.98222893  1.11916692  2.93191212
   1.11916279  3.54188211  5.98608044
   1.28390869  4.82102984  3.84213813
   4.82102342  5.24020017  5.07586612
   5.24020092  1.70308456  3.84213796
   1.70308602  1.28391414  5.07586565
   2.28796110  5.57453062  5.09350675
   5.57452852  4.23615372  3.82449360
   4.23614839  0.94958366  5.09350634
   0.94958103  2.28796079  3.82449334



--------------------------------------------------------------------------------------------------------


 k-point   1 :   0.0000 0.0000 0.0000  plane waves:   28161
 k-point   2 :   0.2500 0.0000 0.0000  plane waves:   28188
 k-point   3 :   0.0000 0.2500 0.0000  plane waves:   28188
 k-point   4 :   0.5000 0.0000 0.0000  plane waves:   28206
 k-point   5 :   0.0000 0.5000 0.0000  plane waves:   28206
 k-point   6 :   0.2500 0.2500 0.0000  plane waves:   28230
 k-point   7 :  -0.2500 0.2500 0.0000  plane waves:   28230
 k-point   8 :   0.5000 0.2500 0.0000  plane waves:   28224
 k-point   9 :  -0.2500 0.5000 0.0000  plane waves:   28224
 k-point  10 :   0.5000 0.5000 0.0000  plane waves:   28240
 k-point  11 :   0.0000 0.0000 0.3333  plane waves:   28218
 k-point  12 :   0.2500 0.0000 0.3333  plane waves:   28210
 k-point  13 :   0.0000 0.2500 0.3333  plane waves:   28210
 k-point  14 :  -0.2500 0.0000 0.3333  plane waves:   28210
 k-point  15 :   0.0000-0.2500 0.3333  plane waves:   28210
 k-point  16 :   0.5000 0.0000 0.3333  plane waves:   28234
 k-point  17 :   0.0000 0.5000 0.3333  plane waves:   28234
 k-point  18 :   0.2500 0.2500 0.3333  plane waves:   28241
 k-point  19 :  -0.2500 0.2500 0.3333  plane waves:   28241
 k-point  20 :  -0.2500-0.2500 0.3333  plane waves:   28241
 k-point  21 :   0.2500-0.2500 0.3333  plane waves:   28241
 k-point  22 :   0.5000 0.2500 0.3333  plane waves:   28226
 k-point  23 :  -0.2500 0.5000 0.3333  plane waves:   28226
 k-point  24 :   0.5000-0.2500 0.3333  plane waves:   28226
 k-point  25 :   0.2500 0.5000 0.3333  plane waves:   28226
 k-point  26 :   0.5000 0.5000 0.3333  plane waves:   28272

 maximum and minimum number of plane-waves per node :       910      854

 maximum number of plane-waves:     28272
 maximum index in each direction: 
   IXMAX=   17   IYMAX=   17   IZMAX=   22
   IXMIN=  -17   IYMIN=  -17   IZMIN=  -23


 parallel 3D FFT for wavefunctions:
    minimum data exchange during FFTs selected (reduces bandwidth)
 parallel 3D FFT for charge:
    minimum data exchange during FFTs selected (reduces bandwidth)


 total amount of memory used by VASP MPI-rank0    63468. kBytes
=======================================================================

   base      :      30000. kBytes
   nonl-proj :       3694. kBytes
   fftplans  :       2235. kBytes
   grid      :       3842. kBytes
   one-center:          6. kBytes
   wavefun   :      23691. kBytes

     INWAV:  cpu time      0.0019: real time      0.0021
 Broyden mixing: mesh for mixing (old mesh)
   NGX = 35   NGY = 35   NGZ = 45
  (NGX  =140   NGY  =140   NGZ  =192)
  gives a total of  55125 points

 initial charge density was supplied:
 charge density of overlapping atoms calculated
 number of electron     112.0000000 magnetization 
 keeping initial charge density in first step


--------------------------------------------------------------------------------------------------------


 Maximum index for augmentation-charges          707 (set IRDMAX)


--------------------------------------------------------------------------------------------------------


 First call to EWALD:  gamma=   0.242
 Maximum number of real-space cells 3x 3x 2
 Maximum number of reciprocal cells 3x 3x 3

    FEWALD:  cpu time      0.0055: real time      0.0055


--------------------------------------- Ionic step        1  -------------------------------------------




--------------------------------------- Iteration      1(   1)  ---------------------------------------


    POTLOK:  cpu time      0.0530: real time      0.0534
    SETDIJ:  cpu time      0.0073: real time      0.0079
    TRIAL :  cpu time      1.7321: real time      1.7345
    CORREC:  cpu time      0.0031: real time      0.0031
    --------------------------------------------
      LOOP:  cpu time      1.8137: real time      1.8173

 eigenvalue-minimisations  :  4368
 total energy-change (2. order) : 0.6814011E+03  (-0.8161381E+04)
 number of electron     112.0000000 magnetization 
 augmentation part      112.0000000 magnetization 

 Free energy of the ion-electron system (eV)
  ---------------------------------------------------
  alpha Z        PSCENC =       100.17147629
  Ewald energy   TEWEN  =     -1306.10277904
  -Hartree energ DENC   =     -1735.88974361
  -exchange      EXHF   =         0.00000000
  -V(xc)+E(xc)   XCENC  =       223.48348853
  PAW double counting   =      2314.69630980    -2204.52750713
  entropy T*S    EENTRO =        -0.00035029
  eigenvalues    EBANDS =       -51.88327036
  atomic energy  EATOM  =      3341.45351784
  ---------------------------------------------------
  free energy    TOTEN  =       681.40114202 eV

  energy without entropy =      681.40149232  energy(sigma->0) =      681.40131717


--------------------------------------------------------------------------------------------------------




--------------------------------------- Iteration      1(   2)  ---------------------------------------


    TRIAL :  cpu time      2.1068: real time      2.1075
    CORREC:  cpu time      0.0003: real time      0.0003
    --------------------------------------------
      LOOP:  cpu time      2.1204: real time      2.1361

 eigenvalue-minimisations  :  5688
 total energy-change (2. order) :-0.8896965E+03  (-0.8388738E+03)
 number of electron     112.0000000 magnetization 
 augmentation part      112.0000000 magnetization 

 Free energy of the ion-electron system (eV)
  ---------------------------------------------------
  alpha Z        PSCENC =       100.17147629
  Ewald energy   TEWEN  =     -1306.10277904
  -Hartree energ DENC   =     -1735.88974361
  -exchange      EXHF   =         0.00000000
  -V(xc)+E(xc)   XCENC  =       223.48348853
  PAW double counting   =      2314.69630980    -2204.52750713
  entropy T*S    EENTRO =        -0.00000000
  eigenvalues    EBANDS =      -941.58008789
  atomic energy  EATOM  =      3341.45351784
  ---------------------------------------------------
  free energy    TOTEN  =      -208.29532522 eV

  energy without entropy =     -208.29532522  energy(sigma->0) =     -208.29532522


--------------------------------------------------------------------------------------------------------




--------------------------------------- Iteration      1(   3)  ---------------------------------------


    TRIAL :  cpu time      1.9818: real time      1.9824
    CORREC:  cpu time      0.0003: real time      0.0003
    --------------------------------------------
      LOOP:  cpu time      1.9940: real time      2.0119

 eigenvalue-minimisations  :  5488
 total energy-change (2. order) :-0.1079027E+03  (-0.1070322E+03)
 number of electron     112.0000000 magnetization 
 augmentation part      112.0000000 magnetization 

 Free energy of the ion-electron system (eV)
  ---------------------------------------------------
  alpha Z        PSCENC =       100.17147629
  Ewald energy   TEWEN  =     -1306.10277904
  -Hartree energ DENC   =     -1735.88974361
  -exchange      EXHF   =         0.00000000
  -V(xc)+E(xc)   XCENC  =       223.48348853
  PAW double counting   =      2314.69630980    -2204.52750713
  entropy T*S    EENTRO =        -0.00000000
  eigenvalues    EBANDS =     -1049.48275006
  atomic energy  EATOM  =      3341.45351784
  ---------------------------------------------------
  free energy    TOTEN  =      -316.19798738 eV

  energy without entropy =     -316.19798738  energy(sigma->0) =     -316.19798738


--------------------------------------------------------------------------------------------------------




--------------------------------------- Iteration      1(   4)  ---------------------------------------


    TRIAL :  cpu time      2.0599: real time      2.0607
    CORREC:  cpu time      0.0004: real time      0.0004
    --------------------------------------------
      LOOP:  cpu time      2.0895: real time      2.0905

 eigenvalue-minimisations  :  5808
 total energy-change (2. order) :-0.3591370E+01  (-0.3581210E+01)
 number of electron     112.0000000 magnetization 
 augmentation part      112.0000000 magnetization 

 Free energy of the ion-electron system (eV)
  ---------------------------------------------------
  alpha Z        PSCENC =       100.17147629
  Ewald energy   TEWEN  =     -1306.10277904
  -Hartree energ DENC   =     -1735.88974361
  -exchange      EXHF   =         0.00000000
  -V(xc)+E(xc)   XCENC  =       223.48348853
  PAW double counting   =      2314.69630980    -2204.52750713
  entropy T*S    EENTRO =        -0.00000000
  eigenvalues    EBANDS =     -1053.07411992
  atomic energy  EATOM  =      3341.45351784
  ---------------------------------------------------
  free energy    TOTEN  =      -319.78935724 eV

  energy without entropy =     -319.78935724  energy(sigma->0) =     -319.78935724


--------------------------------------------------------------------------------------------------------




--------------------------------------- Iteration      1(   5)  ---------------------------------------


    TRIAL :  cpu time      2.1009: real time      2.1019
    CORREC:  cpu time      0.0004: real time      0.0004
    CHARGE:  cpu time      0.0730: real time      0.0739
    --------------------------------------------
      LOOP:  cpu time      2.1879: real time      2.2055

 eigenvalue-minimisations  :  5968
 total energy-change (2. order) :-0.1334030E+00  (-0.1332762E+00)
 number of electron     112.0000000 magnetization 
 augmentation part        0.0513254 magnetization 

 Free energy of the ion-electron system (eV)
  ---------------------------------------------------
  alpha Z        PSCENC =       100.17147629
  Ewald energy   TEWEN  =     -1306.10277904
  -Hartree energ DENC   =     -1735.88974361
  -exchange      EXHF   =         0.00000000
  -V(xc)+E(xc)   XCENC  =       223.48348853
  PAW double counting   =      2314.69630980    -2204.52750713
  entropy T*S    EENTRO =        -0.00000000
  eigenvalues    EBANDS =     -1053.20752289
  atomic energy  EATOM  =      3341.45351784
  ---------------------------------------------------
  free energy    TOTEN  =      -319.92276021 eV

  energy without entropy =     -319.92276021  energy(sigma->0) =     -319.92276021


--------------------------------------------------------------------------------------------------------




--------------------------------------- Iteration      1(   6)  ---------------------------------------


    POTLOK:  cpu time      0.0364: real time      0.0364
    SETDIJ:  cpu time      0.0021: real time      0.0021
    TRIAL :  cpu time      0.9540: real time      0.9564
    CORREC:  cpu time      0.4238: real time      0.4252
    CHARGE:  cpu time      0.0593: real time      0.0594
    --------------------------------------------
      LOOP:  cpu time      1.4903: real time      1.5083

 eigenvalue-minimisations  :     0
 total energy-change (2. order) : 0.4838381E+02  (-0.2025122E+02)
 number of electron     112.0000000 magnetization 
 augmentation part        0.0211430 magnetization 

 Free energy of the ion-electron system (eV)
  ---------------------------------------------------
  alpha Z        PSCENC =       100.17147629
  Ewald energy   TEWEN  =     -1306.10277904
  -Hartree energ DENC   =     -2428.61709478
  -exchange      EXHF   =         0.00000000
  -V(xc)+E(xc)   XCENC  =       259.59872197
  PAW double counting   =     32845.66145767   -32737.88017947
  entropy T*S    EENTRO =        -0.00000000
  eigenvalues    EBANDS =      -345.82407122
  atomic energy  EATOM  =      3341.45351784
  ---------------------------------------------------
  free energy    TOTEN  =      -271.53895074 eV

  energy without entropy =     -271.53895074  energy(sigma->0) =     -271.53895074


--------------------------------------------------------------------------------------------------------




--------------------------------------- Iteration      1(   7)  ---------------------------------------


    POTLOK:  cpu time      0.0354: real time      0.0354
    SETDIJ:  cpu time      0.0021: real time      0.0021
    TRIAL :  cpu time      0.9314: real time      0.9317
    CORREC:  cpu time      0.4144: real time      0.4147
    CHARGE:  cpu time      0.0598: real time      0.0598
    --------------------------------------------
      LOOP:  cpu time      1.4720: real time      1.4728

 eigenvalue-minimisations  :     0
 total energy-change (2. order) :-0.2019830E+02  (-0.2744519E+01)
 number of electron     111.9999999 magnetization 
 augmentation part        0.0011463 magnetization 

 Free energy of the ion-electron system (eV)
  ---------------------------------------------------
  alpha Z        PSCENC =       100.17147629
  Ewald energy   TEWEN  =     -1306.10277904
  -Hartree energ DENC   =     -2110.80445889
  -exchange      EXHF   =         0.00000000
  -V(xc)+E(xc)   XCENC  =       247.10298801
  PAW double counting   =     40895.92782580   -40786.82599073
  entropy T*S    EENTRO =        -0.00000000
  eigenvalues    EBANDS =      -672.65982779
  atomic energy  EATOM  =      3341.45351784
  ---------------------------------------------------
  free energy    TOTEN  =      -291.73724853 eV

  energy without entropy =     -291.73724853  energy(sigma->0) =     -291.73724853


--------------------------------------------------------------------------------------------------------




--------------------------------------- Iteration      1(   8)  ---------------------------------------


    POTLOK:  cpu time      0.0353: real time      0.0353
    SETDIJ:  cpu time      0.0021: real time      0.0021
    TRIAL :  cpu time      0.9241: real time      0.9245
    CORREC:  cpu time      0.4138: real time      0.4138
    CHARGE:  cpu time      0.0592: real time      0.0592
    --------------------------------------------
      LOOP:  cpu time      1.4462: real time      1.4641

 eigenvalue-minimisations  :     0
 total energy-change (2. order) :-0.2725249E+01  (-0.6485396E+00)
 number of electron     111.9999999 magnetization 
 augmentation part        0.0039702 magnetization 

 Free energy of the ion-electron system (eV)
  ---------------------------------------------------
  alpha Z        PSCENC =       100.17147629
  Ewald energy   TEWEN  =     -1306.10277904
  -Hartree energ DENC   =     -2098.51999381
  -exchange      EXHF   =         0.00000000
  -V(xc)+E(xc)   XCENC  =       246.53019711
  PAW double counting   =     42742.08456360   -42632.78600614
  entropy T*S    EENTRO =        -0.00000000
  eigenvalues    EBANDS =      -687.29347304
  atomic energy  EATOM  =      3341.45351784
  ---------------------------------------------------
  free energy    TOTEN  =      -294.46249720 eV

  energy without entropy =     -294.46249720  energy(sigma->0) =     -294.46249720


--------------------------------------------------------------------------------------------------------




--------------------------------------- Iteration      1(   9)  ---------------------------------------


    POTLOK:  cpu time      0.0352: real time      0.0352
    SETDIJ:  cpu time      0.0018: real time      0.0018
    TRIAL :  cpu time      0.9244: real time      0.9248
    CORREC:  cpu time      0.4131: real time      0.4135
    CHARGE:  cpu time      0.0593: real time      0.0593
    --------------------------------------------
      LOOP:  cpu time      1.4457: real time      1.4640

 eigenvalue-minimisations  :     0
 total energy-change (2. order) :-0.6413788E+00  (-0.1471223E+00)
 number of electron     111.9999999 magnetization 
 augmentation part        0.0029545 magnetization 

 Free energy of the ion-electron system (eV)
  ---------------------------------------------------
  alpha Z        PSCENC =       100.17147629
  Ewald energy   TEWEN  =     -1306.10277904
  -Hartree energ DENC   =     -2078.16554029
  -exchange      EXHF   =         0.00000000
  -V(xc)+E(xc)   XCENC  =       245.94067236
  PAW double counting   =     41489.11168118   -41379.77409075
  entropy T*S    EENTRO =        -0.00000000
  eigenvalues    EBANDS =      -707.73881358
  atomic energy  EATOM  =      3341.45351784
  ---------------------------------------------------
  free energy    TOTEN  =      -295.10387600 eV

  energy without entropy =     -295.10387600  energy(sigma->0) =     -295.10387600


--------------------------------------------------------------------------------------------------------




--------------------------------------- Iteration      1(  10)  ---------------------------------------


    POTLOK:  cpu time      0.0361: real time      0.0361
    SETDIJ:  cpu time      0.0017: real time      0.0017
    TRIAL :  cpu time      0.9825: real time      0.9829
    CORREC:  cpu time      0.4125: real time      0.4125
    CHARGE:  cpu time      0.0590: real time      0.0591
    --------------------------------------------
      LOOP:  cpu time      1.5212: real time      1.5217

 eigenvalue-minimisations  :     0
 total energy-change (2. order) :-0.1470327E+00  (-0.3130504E-01)
 number of electron     111.9999999 magnetization 
 augmentation part        0.0017505 magnetization 

 Free energy of the ion-electron system (eV)
  ---------------------------------------------------
  alpha Z        PSCENC =       100.17147629
  Ewald energy   TEWEN  =     -1306.10277904
  -Hartree energ DENC   =     -2078.95674379
  -exchange      EXHF   =         0.00000000
  -V(xc)+E(xc)   XCENC  =       245.91256069
  PAW double counting   =     40443.65114513   -40334.35827178
  entropy T*S    EENTRO =        -0.00000000
  eigenvalues    EBANDS =      -707.02181401
  atomic energy  EATOM  =      3341.45351784
  ---------------------------------------------------
  free energy    TOTEN  =      -295.25090866 eV

  energy without entropy =     -295.25090866  energy(sigma->0) =     -295.25090866


--------------------------------------------------------------------------------------------------------




--------------------------------------- Iteration      1(  11)  ---------------------------------------


    POTLOK:  cpu time      0.0352: real time      0.0352
    SETDIJ:  cpu time      0.0017: real time      0.0017
    TRIAL :  cpu time      0.9240: real time      0.9244
    CORREC:  cpu time      0.4121: real time      0.4125
    CHARGE:  cpu time      0.0591: real time      0.0591
    --------------------------------------------
      LOOP:  cpu time      1.4459: real time      1.4623

 eigenvalue-minimisations  :     0
 total energy-change (2. order) :-0.3128703E-01  (-0.7133721E-02)
 number of electron     111.9999999 magnetization 
 augmentation part        0.0015042 magnetization 

 Free energy of the ion-electron system (eV)
  ---------------------------------------------------
  alpha Z        PSCENC =       100.17147629
  Ewald energy   TEWEN  =     -1306.10277904
  -Hartree energ DENC   =     -2078.39013842
  -exchange      EXHF   =         0.00000000
  -V(xc)+E(xc)   XCENC  =       245.78041718
  PAW double counting   =     40310.64378144   -40201.35985012
  entropy T*S    EENTRO =        -0.00000000
  eigenvalues    EBANDS =      -707.47862087
  atomic energy  EATOM  =      3341.45351784
  ---------------------------------------------------
  free energy    TOTEN  =      -295.28219570 eV

  energy without entropy =     -295.28219570  energy(sigma->0) =     -295.28219570


--------------------------------------------------------------------------------------------------------




--------------------------------------- Iteration      1(  12)  ---------------------------------------


    POTLOK:  cpu time      0.0350: real time      0.0350
    SETDIJ:  cpu time      0.0019: real time      0.0019
    TRIAL :  cpu time      0.9237: real time      0.9243
    CORREC:  cpu time      0.4352: real time      0.4352
    CHARGE:  cpu time      0.0628: real time      0.0628
    --------------------------------------------
      LOOP:  cpu time      1.4718: real time      1.4888

 eigenvalue-minimisations  :     0
 total energy-change (2. order) :-0.7133892E-02  (-0.1568541E-02)
 number of electron     111.9999999 magnetization 
 augmentation part        0.0018273 magnetization 

 Free energy of the ion-electron system (eV)
  ---------------------------------------------------
  alpha Z        PSCENC =       100.17147629
  Ewald energy   TEWEN  =     -1306.10277904
  -Hartree energ DENC   =     -2077.30129755
  -exchange      EXHF   =         0.00000000
  -V(xc)+E(xc)   XCENC  =       245.71441399
  PAW double counting   =     40420.15570772   -40310.87035424
  entropy T*S    EENTRO =        -0.00000000
  eigenvalues    EBANDS =      -708.51001460
  atomic energy  EATOM  =      3341.45351784
  ---------------------------------------------------
  free energy    TOTEN  =      -295.28932959 eV

  energy without entropy =     -295.28932959  energy(sigma->0) =     -295.28932959


--------------------------------------------------------------------------------------------------------




--------------------------------------- Iteration      1(  13)  ---------------------------------------


    POTLOK:  cpu time      0.0354: real time      0.0354
    SETDIJ:  cpu time      0.0023: real time      0.0023
    TRIAL :  cpu time      0.9229: real time      0.9233
    CORREC:  cpu time      0.4142: real time      0.4142
    CHARGE:  cpu time      0.0590: real time      0.0594
    --------------------------------------------
      LOOP:  cpu time      1.4462: real time      1.4643

 eigenvalue-minimisations  :     0
 total energy-change (2. order) :-0.1567447E-02  (-0.3294868E-03)
 number of electron     111.9999999 magnetization 
 augmentation part        0.0020560 magnetization 

 Free energy of the ion-electron system (eV)
  ---------------------------------------------------
  alpha Z        PSCENC =       100.17147629
  Ewald energy   TEWEN  =     -1306.10277904
  -Hartree energ DENC   =     -2078.23199883
  -exchange      EXHF   =         0.00000000
  -V(xc)+E(xc)   XCENC  =       245.74180134
  PAW double counting   =     40453.78392607   -40344.50190419
  entropy T*S    EENTRO =        -0.00000000
  eigenvalues    EBANDS =      -707.60493651
  atomic energy  EATOM  =      3341.45351784
  ---------------------------------------------------
  free energy    TOTEN  =      -295.29089704 eV

  energy without entropy =     -295.29089704  energy(sigma->0) =     -295.29089704


--------------------------------------------------------------------------------------------------------




--------------------------------------- Iteration      1(  14)  ---------------------------------------


    POTLOK:  cpu time      0.0349: real time      0.0349
    SETDIJ:  cpu time      0.0020: real time      0.0020
    TRIAL :  cpu time      0.9215: real time      0.9219
    CORREC:  cpu time      0.4121: real time      0.4121
    CHARGE:  cpu time      0.0589: real time      0.0589
    --------------------------------------------
      LOOP:  cpu time      1.4407: real time      1.4596

 eigenvalue-minimisations  :     0
 total energy-change (2. order) :-0.3322866E-03  (-0.7638249E-04)
 number of electron     111.9999999 magnetization 
 augmentation part        0.0021965 magnetization 

 Free energy of the ion-electron system (eV)
  ---------------------------------------------------
  alpha Z        PSCENC =       100.17147629
  Ewald energy   TEWEN  =     -1306.10277904
  -Hartree energ DENC   =     -2077.86767729
  -exchange      EXHF   =         0.00000000
  -V(xc)+E(xc)   XCENC  =       245.72634917
  PAW double counting   =     40458.82626851   -40349.54302352
  entropy T*S    EENTRO =        -0.00000000
  eigenvalues    EBANDS =      -707.95536128
  atomic energy  EATOM  =      3341.45351784
  ---------------------------------------------------
  free energy    TOTEN  =      -295.29122932 eV

  energy without entropy =     -295.29122932  energy(sigma->0) =     -295.29122932


--------------------------------------------------------------------------------------------------------




--------------------------------------- Iteration      1(  15)  ---------------------------------------


    POTLOK:  cpu time      0.0350: real time      0.0350
    SETDIJ:  cpu time      0.0019: real time      0.0019
    TRIAL :  cpu time      0.9230: real time      0.9236
    CORREC:  cpu time      0.4124: real time      0.4124
    CHARGE:  cpu time      0.0589: real time      0.0589
    --------------------------------------------
      LOOP:  cpu time      1.4462: real time      1.4611

 eigenvalue-minimisations  :     0
 total energy-change (2. order) :-0.7678814E-04  (-0.1815597E-04)
 number of electron     111.9999999 magnetization 
 augmentation part        0.0022116 magnetization 

 Free energy of the ion-electron system (eV)
  ---------------------------------------------------
  alpha Z        PSCENC =       100.17147629
  Ewald energy   TEWEN  =     -1306.10277904
  -Hartree energ DENC   =     -2078.03925741
  -exchange      EXHF   =         0.00000000
  -V(xc)+E(xc)   XCENC  =       245.73102010
  PAW double counting   =     40457.69248561   -40348.40959392
  entropy T*S    EENTRO =        -0.00000000
  eigenvalues    EBANDS =      -707.78817557
  atomic energy  EATOM  =      3341.45351784
  ---------------------------------------------------
  free energy    TOTEN  =      -295.29130611 eV

  energy without entropy =     -295.29130611  energy(sigma->0) =     -295.29130611


--------------------------------------------------------------------------------------------------------




--------------------------------------- Iteration      1(  16)  ---------------------------------------


    POTLOK:  cpu time      0.0346: real time      0.0351
    SETDIJ:  cpu time      0.0017: real time      0.0017
    TRIAL :  cpu time      0.9227: real time      0.9228
    CORREC:  cpu time      0.4125: real time      0.4129
    CHARGE:  cpu time      0.0593: real time      0.0593
    --------------------------------------------
      LOOP:  cpu time      1.4425: real time      1.4612

 eigenvalue-minimisations  :     0
 total energy-change (2. order) :-0.1834434E-04  (-0.5412857E-05)
 number of electron     111.9999999 magnetization 
 augmentation part        0.0021982 magnetization 

 Free energy of the ion-electron system (eV)
  ---------------------------------------------------
  alpha Z        PSCENC =       100.17147629
  Ewald energy   TEWEN  =     -1306.10277904
  -Hartree energ DENC   =     -2078.00003104
  -exchange      EXHF   =         0.00000000
  -V(xc)+E(xc)   XCENC  =       245.73048388
  PAW double counting   =     40461.85848474   -40352.57536375
  entropy T*S    EENTRO =        -0.00000000
  eigenvalues    EBANDS =      -707.82711337
  atomic energy  EATOM  =      3341.45351784
  ---------------------------------------------------
  free energy    TOTEN  =      -295.29132446 eV

  energy without entropy =     -295.29132446  energy(sigma->0) =     -295.29132446


--------------------------------------------------------------------------------------------------------




--------------------------------------- Iteration      1(  17)  ---------------------------------------


    POTLOK:  cpu time      0.0349: real time      0.0349
    SETDIJ:  cpu time      0.0019: real time      0.0019
    TRIAL :  cpu time      0.9211: real time      0.9216
    CORREC:  cpu time      0.4149: real time      0.4149
    CHARGE:  cpu time      0.0591: real time      0.0591
    --------------------------------------------
      LOOP:  cpu time      1.4457: real time      1.4617

 eigenvalue-minimisations  :     0
 total energy-change (2. order) :-0.5218419E-05  (-0.1535032E-05)
 number of electron     111.9999999 magnetization 
 augmentation part        0.0021867 magnetization 

 Free energy of the ion-electron system (eV)
  ---------------------------------------------------
  alpha Z        PSCENC =       100.17147629
  Ewald energy   TEWEN  =     -1306.10277904
  -Hartree energ DENC   =     -2078.02138522
  -exchange      EXHF   =         0.00000000
  -V(xc)+E(xc)   XCENC  =       245.73130928
  PAW double counting   =     40463.93578220   -40354.65263085
  entropy T*S    EENTRO =        -0.00000000
  eigenvalues    EBANDS =      -707.80662017
  atomic energy  EATOM  =      3341.45351784
  ---------------------------------------------------
  free energy    TOTEN  =      -295.29132968 eV

  energy without entropy =     -295.29132968  energy(sigma->0) =     -295.29132968


--------------------------------------------------------------------------------------------------------




--------------------------------------- Iteration      1(  18)  ---------------------------------------


    POTLOK:  cpu time      0.0350: real time      0.0350
    SETDIJ:  cpu time      0.0018: real time      0.0018
    TRIAL :  cpu time      0.9218: real time      0.9222
    CORREC:  cpu time      0.4118: real time      0.4122
    CHARGE:  cpu time      0.0590: real time      0.0590
    --------------------------------------------
      LOOP:  cpu time      1.4585: real time      1.4598

 eigenvalue-minimisations  :     0
 total energy-change (2. order) :-0.1498069E-05  (-0.4526640E-06)
 number of electron     111.9999999 magnetization 
 augmentation part        0.0021876 magnetization 

 Free energy of the ion-electron system (eV)
  ---------------------------------------------------
  alpha Z        PSCENC =       100.17147629
  Ewald energy   TEWEN  =     -1306.10277904
  -Hartree energ DENC   =     -2078.00766734
  -exchange      EXHF   =         0.00000000
  -V(xc)+E(xc)   XCENC  =       245.73102704
  PAW double counting   =     40462.10398426   -40352.82080972
  entropy T*S    EENTRO =        -0.00000000
  eigenvalues    EBANDS =      -707.82008050
  atomic energy  EATOM  =      3341.45351784
  ---------------------------------------------------
  free energy    TOTEN  =      -295.29133117 eV

  energy without entropy =     -295.29133117  energy(sigma->0) =     -295.29133117


--------------------------------------------------------------------------------------------------------




--------------------------------------- Iteration      1(  19)  ---------------------------------------


    POTLOK:  cpu time      0.0348: real time      0.0348
    SETDIJ:  cpu time      0.0021: real time      0.0021
    TRIAL :  cpu time      0.9221: real time      0.9227
    CORREC:  cpu time      0.4145: real time      0.4145
    CHARGE:  cpu time      0.0589: real time      0.0589
    --------------------------------------------
      LOOP:  cpu time      1.4459: real time      1.4624

 eigenvalue-minimisations  :     0
 total energy-change (2. order) :-0.4128160E-06  (-0.6008059E-07)
 number of electron     111.9999999 magnetization 
 augmentation part        0.0021870 magnetization 

 Free energy of the ion-electron system (eV)
  ---------------------------------------------------
  alpha Z        PSCENC =       100.17147629
  Ewald energy   TEWEN  =     -1306.10277904
  -Hartree energ DENC   =     -2078.01984675
  -exchange      EXHF   =         0.00000000
  -V(xc)+E(xc)   XCENC  =       245.73139580
  PAW double counting   =     40459.88996977   -40350.60685913
  entropy T*S    EENTRO =        -0.00000000
  eigenvalues    EBANDS =      -707.80820637
  atomic energy  EATOM  =      3341.45351784
  ---------------------------------------------------
  free energy    TOTEN  =      -295.29133159 eV

  energy without entropy =     -295.29133159  energy(sigma->0) =     -295.29133159


--------------------------------------------------------------------------------------------------------




--------------------------------------- Iteration      1(  20)  ---------------------------------------


    POTLOK:  cpu time      0.0349: real time      0.0349
    SETDIJ:  cpu time      0.0018: real time      0.0018
    TRIAL :  cpu time      0.9222: real time      0.9228
    CORREC:  cpu time      0.4170: real time      0.4174
    EDDIAG:  cpu time      0.3561: real time      0.3566
    CHARGE:  cpu time      0.0572: real time      0.0572
    --------------------------------------------
      LOOP:  cpu time      1.8019: real time      1.8201

 eigenvalue-minimisations  :     0
 total energy-change (2. order) :-0.5483162E-07  (-0.2503745E-07)
 number of electron     111.9999999 magnetization 
 augmentation part        0.0021867 magnetization 

 Free energy of the ion-electron system (eV)
  ---------------------------------------------------
  alpha Z        PSCENC =       100.17147629
  Ewald energy   TEWEN  =     -1306.10277904
  -Hartree energ DENC   =     -2078.01359531
  -exchange      EXHF   =         0.00000000
  -V(xc)+E(xc)   XCENC  =       245.73118938
  PAW double counting   =     40459.83489296   -40350.55176569
  entropy T*S    EENTRO =        -0.00000000
  eigenvalues    EBANDS =      -707.81426806
  atomic energy  EATOM  =      3341.45351784
  ---------------------------------------------------
  free energy    TOTEN  =      -295.29133164 eV

  energy without entropy =     -295.29133164  energy(sigma->0) =     -295.29133164


--------------------------------------------------------------------------------------------------------


  average scaling for gradient   1.0441


 average (electrostatic) potential at core
  the test charge radii are     0.5770  0.4325
  (the norm of the test charge is              1.0000)
       1 -80.4813       2 -80.7162       3 -80.5001       4 -80.7162       5 -80.5001
       6 -80.7162       7 -80.5001       8 -80.5001       9 -80.7162      10 -80.4813
      11 -80.4813      12 -80.4813      13 -80.7162      14 -80.7162      15 -80.7162
      16 -80.7162      17 -80.5001      18 -80.5001      19 -80.5001      20 -80.5001
      21 -39.1614      22 -39.1710      23 -39.1755      24 -39.1811      25 -39.1614
      26 -39.1710      27 -39.1755      28 -39.1812      29 -39.1710      30 -39.1756
      31 -39.1812      32 -39.1755      33 -39.1812      34 -39.1710      35 -39.1614
      36 -39.1614      37 -39.1614      38 -39.1614      39 -39.1614      40 -39.1614
      41 -39.1710      42 -39.1710      43 -39.1710      44 -39.1710      45 -39.1755
      46 -39.1755      47 -39.1755      48 -39.1756      49 -39.1811      50 -39.1811
      51 -39.1812      52 -39.1812



 E-fermi :  -0.9310     XC(G=0):  -7.9756     alpha+bet : -7.5643

 Fermi energy:        -0.9309861839

 k-point     1 :       0.0000    0.0000    0.0000
  band No.  band energies     occupation 
      1     -16.3054      2.00000
      2     -16.2183      2.00000
      3     -13.6821      2.00000
      4     -13.6141      2.00000
      5     -13.6141      2.00000
      6     -13.5489      2.00000
      7     -13.5411      2.00000
      8     -13.5411      2.00000
      9     -11.1616      2.00000
     10     -10.9536      2.00000
     11     -10.8998      2.00000
     12     -10.8871      2.00000
     13      -9.0686      2.00000
     14      -8.9062      2.00000
     15      -8.9062      2.00000
     16      -8.8687      2.00000
     17      -8.8209      2.00000
     18      -8.8209      2.00000
     19      -7.9425      2.00000
     20      -7.2090      2.00000
     21      -6.0495      2.00000
     22      -5.8660      2.00000
     23      -5.7444      2.00000
     24      -5.6767      2.00000
     25      -5.6767      2.00000
     26      -5.6362      2.00000
     27      -5.6362      2.00000
     28      -5.5081      2.00000
     29      -4.6595      2.00000
     30      -4.5568      2.00000
     31      -4.5568      2.00000
     32      -4.5231      2.00000
     33      -4.3240      2.00000
     34      -4.3240      2.00000
     35      -4.2886      2.00000
     36      -3.8917      2.00000
     37      -3.8917      2.00000
     38      -3.7537      2.00000
     39      -3.6648      2.00000
     40      -3.6648      2.00000
     41      -2.8642      2.00000
     42      -2.6224      2.00000
     43      -2.6224      2.00000
     44      -2.3356      2.00000
     45      -2.3127      2.00000
     46      -2.2904      2.00000
     47      -2.1972      2.00000
     48      -2.1967      2.00000
     49      -2.1139      2.00000
     50      -2.1139      2.00000
     51      -1.5470      2.00000
     52      -1.1753      2.00000
     53      -1.1368      2.00000
     54      -1.1368      2.00000
     55      -0.9850      2.00000
     56      -0.9850      2.00000
     57       4.3260      0.00000
     58       5.8473      0.00000
     59       6.1915      0.00000
     60       6.2945      0.00000
     61       6.3484      0.00000
     62       6.5623      0.00000
     63       6.6326      0.00000
     64       6.6326      0.00000
     65       7.0729      0.00000
     66       7.5159      0.00000
     67       7.5159      0.00000
     68       7.7395      0.00000
     69       7.7395      0.00000
     70       7.7715      0.00000
     71       7.9705      0.00000
     72       8.0292      0.00000
     73       8.8161      0.00000
     74       8.9500      0.00000
     75       9.3289      0.00000
     76       9.3365      0.00000
     77       9.4282      0.00000
     78       9.8426      0.00000
     79      10.0951      0.00000
     80      10.1654      0.00000
     81      10.2507      0.00000
     82      10.2979      0.00000
     83      10.5456      0.00000
     84      10.7143      0.00000

 k-point     2 :       0.2500    0.0000    0.0000
  band No.  band energies     occupation 
      1     -16.2850      2.00000
      2     -16.2227      2.00000
      3     -13.6633      2.00000
      4     -13.6444      2.00000
      5     -13.5970      2.00000
      6     -13.5863      2.00000
      7     -13.5644      2.00000
      8     -13.5443      2.00000
      9     -11.1035      2.00000
     10     -10.9761      2.00000
     11     -10.9391      2.00000
     12     -10.9086      2.00000
     13      -9.0197      2.00000
     14      -8.9199      2.00000
     15      -8.9068      2.00000
     16      -8.8603      2.00000
     17      -8.8481      2.00000
     18      -8.8127      2.00000
     19      -7.7852      2.00000
     20      -7.2586      2.00000
     21      -5.9485      2.00000
     22      -5.7828      2.00000
     23      -5.7424      2.00000
     24      -5.6798      2.00000
     25      -5.6753      2.00000
     26      -5.5981      2.00000
     27      -5.5581      2.00000
     28      -5.4757      2.00000
     29      -4.5355      2.00000
     30      -4.5328      2.00000
     31      -4.5165      2.00000
     32      -4.4761      2.00000
     33      -4.3859      2.00000
     34      -4.3267      2.00000
     35      -4.3249      2.00000
     36      -4.1456      2.00000
     37      -3.9612      2.00000
     38      -3.8080      2.00000
     39      -3.7770      2.00000
     40      -3.7227      2.00000
     41      -2.7308      2.00000
     42      -2.5737      2.00000
     43      -2.5442      2.00000
     44      -2.4486      2.00000
     45      -2.3896      2.00000
     46      -2.3319      2.00000
     47      -2.2555      2.00000
     48      -2.2287      2.00000
     49      -2.2120      2.00000
     50      -2.1492      2.00000
     51      -1.4283      2.00000
     52      -1.2714      2.00000
     53      -1.2470      2.00000
     54      -1.1703      2.00000
     55      -1.0505      2.00000
     56      -1.0381      2.00000
     57       4.6633      0.00000
     58       5.9757      0.00000
     59       6.1718      0.00000
     60       6.2572      0.00000
     61       6.4746      0.00000
     62       6.6880      0.00000
     63       6.8903      0.00000
     64       6.9425      0.00000
     65       7.0824      0.00000
     66       7.3983      0.00000
     67       7.4983      0.00000
     68       7.5776      0.00000
     69       7.8326      0.00000
     70       8.2420      0.00000
     71       8.4998      0.00000
     72       8.6095      0.00000
     73       8.6662      0.00000
     74       8.6727      0.00000
     75       8.7966      0.00000
     76       9.2387      0.00000
     77       9.4347      0.00000
     78       9.6386      0.00000
     79       9.7138      0.00000
     80       9.8059      0.00000
     81       9.9445      0.00000
     82      10.4473      0.00000
     83      10.5559      0.00000
     84      10.7242      0.00000

 k-point     3 :       0.0000    0.2500    0.0000
  band No.  band energies     occupation 
      1     -16.2850      2.00000
      2     -16.2227      2.00000
      3     -13.6633      2.00000
      4     -13.6444      2.00000
      5     -13.5970      2.00000
      6     -13.5863      2.00000
      7     -13.5644      2.00000
      8     -13.5443      2.00000
      9     -11.1035      2.00000
     10     -10.9761      2.00000
     11     -10.9391      2.00000
     12     -10.9086      2.00000
     13      -9.0197      2.00000
     14      -8.9199      2.00000
     15      -8.9068      2.00000
     16      -8.8602      2.00000
     17      -8.8481      2.00000
     18      -8.8127      2.00000
     19      -7.7852      2.00000
     20      -7.2586      2.00000
     21      -5.9485      2.00000
     22      -5.7828      2.00000
     23      -5.7424      2.00000
     24      -5.6798      2.00000
[...]
     32      -4.5580      2.00000
     33      -4.3840      2.00000
     34      -4.3840      2.00000
     35      -4.3130      2.00000
     36      -4.3130      2.00000
     37      -4.0111      2.00000
     38      -4.0111      2.00000
     39      -3.7883      2.00000
     40      -3.7883      2.00000
     41      -2.6909      2.00000
     42      -2.6909      2.00000
     43      -2.5422      2.00000
     44      -2.5422      2.00000
     45      -2.4063      2.00000
     46      -2.4063      2.00000
     47      -2.3529      2.00000
     48      -2.3529      2.00000
     49      -2.2004      2.00000
     50      -2.2004      2.00000
     51      -1.4597      2.00000
     52      -1.4597      2.00000
     53      -1.2308      2.00000
     54      -1.2307      2.00000
     55      -1.1535      2.00000
     56      -1.1535      2.00000
     57       5.7125      0.00000
     58       5.7125      0.00000
     59       6.1738      0.00000
     60       6.1738      0.00000
     61       6.6536      0.00000
     62       6.6536      0.00000
     63       7.3827      0.00000
     64       7.3827      0.00000
     65       7.5207      0.00000
     66       7.5207      0.00000
     67       7.7937      0.00000
     68       7.7937      0.00000
     69       8.2072      0.00000
     70       8.2072      0.00000
     71       8.5310      0.00000
     72       8.5311      0.00000
     73       8.7710      0.00000
     74       8.7743      0.00000
     75       9.2957      0.00000
     76       9.3031      0.00000
     77       9.8741      0.00000
     78       9.9103      0.00000
     79      10.0125      0.00000
     80      10.0492      0.00000
     81      10.1909      0.00000
     82      10.2727      0.00000
     83      10.4623      0.00000
     84      10.6243      0.00000

 k-point    26 :       0.5000    0.5000    0.3333
  band No.  band energies     occupation 
      1     -16.2284      2.00000
      2     -16.2284      2.00000
      3     -13.6634      2.00000
      4     -13.6634      2.00000
      5     -13.6208      2.00000
      6     -13.6208      2.00000
      7     -13.6009      2.00000
      8     -13.6009      2.00000
      9     -11.0803      2.00000
     10     -11.0803      2.00000
     11     -10.9155      2.00000
     12     -10.9155      2.00000
     13      -8.9929      2.00000
     14      -8.9929      2.00000
     15      -8.8488      2.00000
     16      -8.8488      2.00000
     17      -8.7987      2.00000
     18      -8.7987      2.00000
     19      -7.2997      2.00000
     20      -7.2997      2.00000
     21      -5.6491      2.00000
     22      -5.6491      2.00000
     23      -5.5980      2.00000
     24      -5.5980      2.00000
     25      -5.4787      2.00000
     26      -5.4787      2.00000
     27      -5.4539      2.00000
     28      -5.4539      2.00000
     29      -4.5588      2.00000
     30      -4.5588      2.00000
     31      -4.5376      2.00000
     32      -4.5376      2.00000
     33      -4.5116      2.00000
     34      -4.5116      2.00000
     35      -4.3695      2.00000
     36      -4.3695      2.00000
     37      -4.0035      2.00000
     38      -4.0035      2.00000
     39      -3.8749      2.00000
     40      -3.8749      2.00000
     41      -2.6852      2.00000
     42      -2.6852      2.00000
     43      -2.5318      2.00000
     44      -2.5318      2.00000
     45      -2.4992      2.00000
     46      -2.4992      2.00000
     47      -2.3431      2.00000
     48      -2.3431      2.00000
     49      -2.2664      2.00000
     50      -2.2664      2.00000
     51      -1.5064      2.00000
     52      -1.5064      2.00000
     53      -1.3193      2.00000
     54      -1.3193      2.00000
     55      -1.1292      2.00000
     56      -1.1292      2.00000
     57       6.1299      0.00000
     58       6.1299      0.00000
     59       6.3118      0.00000
     60       6.3118      0.00000
     61       6.4862      0.00000
     62       6.4862      0.00000
     63       7.1427      0.00000
     64       7.1427      0.00000
     65       7.9553      0.00000
     66       7.9553      0.00000
     67       8.1344      0.00000
     68       8.1344      0.00000
     69       8.4818      0.00000
     70       8.4818      0.00000
     71       8.5385      0.00000
     72       8.5386      0.00000
     73       8.7547      0.00000
     74       8.7548      0.00000
     75       9.0941      0.00000
     76       9.0979      0.00000
     77       9.5546      0.00000
     78       9.6181      0.00000
     79      10.0565      0.00000
     80      10.1285      0.00000
     81      10.3741      0.00000
     82      10.4183      0.00000
     83      10.5513      0.00000
     84      10.7237      0.00000


--------------------------------------------------------------------------------------------------------


 soft charge-density along one line, spin component           1
         0         1         2         3         4         5         6         7         8         9
 total charge-density along one line

 pseudopotential strength for first ion, spin component:           1
 12.519  21.063  -0.000  -0.001  -0.000  -0.000  -0.002  -0.000
 21.063  35.437  -0.000  -0.001  -0.000  -0.000  -0.003  -0.000
 -0.000  -0.000  -3.025  -0.000  -0.000  -5.415  -0.000  -0.000
 -0.001  -0.001  -0.000  -3.025  -0.000  -0.000  -5.415  -0.000
 -0.000  -0.000  -0.000  -0.000  -3.025  -0.000  -0.000  -5.415
 -0.000  -0.000  -5.415  -0.000  -0.000  -9.672  -0.000  -0.000
 -0.002  -0.003  -0.000  -5.415  -0.000  -0.000  -9.673  -0.000
 -0.000  -0.000  -0.000  -0.000  -5.415  -0.000  -0.000  -9.672
 total augmentation occupancy for first ion, spin component:           1
  7.852  -2.756  -0.000   0.085  -0.000   0.000  -0.008   0.000
 -2.756   0.993   0.000  -0.008   0.000  -0.000  -0.016  -0.000
 -0.000   0.000   5.888  -0.000   0.020  -1.931   0.000  -0.003
  0.085  -0.008  -0.000   6.068  -0.000   0.000  -1.995   0.000
 -0.000   0.000   0.020  -0.000   6.056  -0.003   0.000  -1.960
  0.000  -0.000  -1.931   0.000  -0.003   0.646  -0.000  -0.001
 -0.008  -0.016   0.000  -1.995   0.000  -0.000   0.664  -0.000
  0.000  -0.000  -0.003   0.000  -1.960  -0.001  -0.000   0.638


------------------------ aborting loop because EDIFF is reached ----------------------------------------


    FORLOC:  cpu time      0.0103: real time      0.0103
    FORNL :  cpu time      0.9184: real time      0.9194
    FORCOR:  cpu time      0.0391: real time      0.0391
    OFIELD:  cpu time      0.0032: real time      0.0035

 ---------------------------------------------------------------------------------------------

         DFTD3 V3.0 Rev 1        
 IVDW         = 11
 DF revpbe    
 parameters
 VDW_S6       =    1.0000
 VDW_S8       =    1.0100
 VDW_SR       =    0.9230
 rs18     =    1.0000
 alpha6   =   14.0000
 alpha8   =   16.0000
 k1-k3    =   16.0000    1.3333   -4.0000
 VDW_RADIUS   =   50.2022 A
 VDW_CNRADIUS =   21.1671 A
 Edisp (eV)   -4.94823

 E6    (eV) :    -3.6254
 E8    (eV) :    -1.3228
 % E8        : 26.73
    FORVDW:  cpu time      0.9531: real time      0.9554

 VOLUME and BASIS-vectors are now :
 -----------------------------------------------------------------------------
  energy-cutoff  :     1000.00
  volume of cell :      393.07
      direct lattice vectors                 reciprocal lattice vectors
     6.639000000  0.000000000  0.000000000     0.150625094  0.000000000  0.000000000
     0.000000000  6.639000000  0.000000000     0.000000000  0.150625094  0.000000000
     0.000000000  0.000000000  8.918000000     0.000000000  0.000000000  0.112132765

  length of vectors
     6.639000000  6.639000000  8.918000000     0.150625094  0.150625094  0.112132765


 FORCES acting on ions:
    Electron-Ion                     Ewald-Force                    Non-Local-Force
 -----------------------------------------------------------------------------------------------
   -.209E-06 0.392E-04 -.149E+03   0.463E-05 -.407E-04 0.150E+03   -.658E-05 -.151E-04 -.578E+00
   0.142E+02 -.111E+03 -.781E+02   -.144E+02 0.112E+03 0.787E+02   0.115E+00 -.836E+00 -.610E+00
   -.906E+02 -.118E+03 0.608E+00   0.910E+02 0.118E+03 -.558E+00   -.387E+00 -.349E+00 -.535E-01
   -.142E+02 0.111E+03 -.781E+02   0.144E+02 -.112E+03 0.787E+02   -.115E+00 0.836E+00 -.610E+00
   0.118E+03 -.906E+02 -.608E+00   -.118E+03 0.910E+02 0.558E+00   0.349E+00 -.387E+00 0.534E-01
   -.111E+03 -.142E+02 0.781E+02   0.112E+03 0.144E+02 -.787E+02   -.836E+00 -.115E+00 0.610E+00
   0.906E+02 0.118E+03 0.608E+00   -.910E+02 -.118E+03 -.558E+00   0.387E+00 0.349E+00 -.535E-01
   -.118E+03 0.906E+02 -.607E+00   0.118E+03 -.910E+02 0.558E+00   -.349E+00 0.387E+00 0.534E-01
   0.111E+03 0.142E+02 0.781E+02   -.112E+03 -.144E+02 -.787E+02   0.836E+00 0.115E+00 0.610E+00
   -.447E-04 -.230E-04 0.149E+03   0.518E-04 0.190E-04 -.150E+03   0.124E-05 0.120E-05 0.578E+00
   0.132E-04 -.712E-05 0.149E+03   -.762E-05 0.167E-04 -.150E+03   -.238E-04 -.170E-04 0.578E+00
   0.384E-05 0.336E-04 -.149E+03   0.197E-05 -.256E-04 0.150E+03   -.274E-04 -.198E-04 -.578E+00
   -.142E+02 -.111E+03 0.781E+02   0.144E+02 0.112E+03 -.787E+02   -.115E+00 -.836E+00 0.610E+00
   -.111E+03 0.142E+02 -.781E+02   0.112E+03 -.144E+02 0.787E+02   -.836E+00 0.115E+00 -.610E+00
   0.142E+02 0.111E+03 0.781E+02   -.144E+02 -.112E+03 -.787E+02   0.115E+00 0.836E+00 0.610E+00
   0.111E+03 -.142E+02 -.781E+02   -.112E+03 0.144E+02 0.787E+02   0.836E+00 -.115E+00 -.610E+00
   0.906E+02 -.118E+03 -.608E+00   -.910E+02 0.118E+03 0.558E+00   0.387E+00 -.349E+00 0.534E-01
   -.118E+03 -.906E+02 0.608E+00   0.118E+03 0.910E+02 -.558E+00   -.349E+00 -.387E+00 -.534E-01
   -.906E+02 0.118E+03 -.607E+00   0.910E+02 -.118E+03 0.558E+00   -.387E+00 0.349E+00 0.534E-01
   0.118E+03 0.906E+02 0.608E+00   -.118E+03 -.910E+02 -.558E+00   0.349E+00 0.387E+00 -.534E-01
   -.374E+02 -.455E+01 -.462E+02   0.416E+02 0.511E+01 0.494E+02   -.429E+01 -.567E+00 -.327E+01
   0.571E+01 -.501E+02 -.354E+02   -.627E+01 0.544E+02 0.385E+02   0.567E+00 -.439E+01 -.311E+01
   -.505E+02 -.197E+02 -.253E+02   0.549E+02 0.205E+02 0.283E+02   -.444E+01 -.769E+00 -.304E+01
   -.514E+01 -.526E+02 0.275E+02   0.468E+01 0.569E+02 -.305E+02   0.474E+00 -.442E+01 0.306E+01
   0.374E+02 0.455E+01 -.462E+02   -.416E+02 -.511E+01 0.494E+02   0.429E+01 0.567E+00 -.327E+01
   -.571E+01 0.501E+02 -.354E+02   0.627E+01 -.544E+02 0.385E+02   -.567E+00 0.439E+01 -.311E+01
   0.197E+02 -.505E+02 0.253E+02   -.205E+02 0.549E+02 -.283E+02   0.769E+00 -.444E+01 0.304E+01
   0.526E+02 -.514E+01 -.275E+02   -.569E+02 0.468E+01 0.305E+02   0.442E+01 0.474E+00 -.306E+01
   -.501E+02 -.571E+01 0.354E+02   0.544E+02 0.627E+01 -.385E+02   -.439E+01 -.567E+00 0.311E+01
   0.505E+02 0.197E+02 -.253E+02   -.549E+02 -.205E+02 0.283E+02   0.444E+01 0.769E+00 -.304E+01
   0.514E+01 0.526E+02 0.275E+02   -.468E+01 -.569E+02 -.305E+02   -.474E+00 0.442E+01 0.306E+01
   -.197E+02 0.505E+02 0.253E+02   0.205E+02 -.549E+02 -.283E+02   -.769E+00 0.444E+01 0.304E+01
   -.526E+02 0.514E+01 -.275E+02   0.569E+02 -.468E+01 0.305E+02   -.442E+01 -.474E+00 -.306E+01
   0.501E+02 0.571E+01 0.354E+02   -.544E+02 -.627E+01 -.385E+02   0.439E+01 0.567E+00 0.311E+01
   0.455E+01 -.374E+02 0.462E+02   -.511E+01 0.416E+02 -.494E+02   0.567E+00 -.429E+01 0.327E+01
   -.455E+01 0.374E+02 0.462E+02   0.511E+01 -.416E+02 -.494E+02   -.567E+00 0.429E+01 0.327E+01
   0.374E+02 -.455E+01 0.462E+02   -.416E+02 0.511E+01 -.494E+02   0.429E+01 -.567E+00 0.327E+01
   -.455E+01 -.374E+02 -.462E+02   0.511E+01 0.416E+02 0.494E+02   -.567E+00 -.429E+01 -.327E+01
   -.374E+02 0.455E+01 0.462E+02   0.416E+02 -.511E+01 -.494E+02   -.429E+01 0.567E+00 0.327E+01
   0.455E+01 0.374E+02 -.462E+02   -.511E+01 -.416E+02 0.494E+02   0.567E+00 0.429E+01 -.327E+01
   -.571E+01 -.501E+02 0.354E+02   0.627E+01 0.544E+02 -.385E+02   -.567E+00 -.439E+01 0.311E+01
   -.501E+02 0.571E+01 -.354E+02   0.544E+02 -.627E+01 0.385E+02   -.439E+01 0.567E+00 -.311E+01
   0.571E+01 0.501E+02 0.354E+02   -.627E+01 -.544E+02 -.385E+02   0.567E+00 0.439E+01 0.311E+01
   0.501E+02 -.571E+01 -.354E+02   -.544E+02 0.627E+01 0.385E+02   0.439E+01 -.567E+00 -.311E+01
   0.505E+02 -.197E+02 0.253E+02   -.549E+02 0.205E+02 -.283E+02   0.444E+01 -.769E+00 0.304E+01
   -.197E+02 -.505E+02 -.253E+02   0.205E+02 0.549E+02 0.283E+02   -.769E+00 -.444E+01 -.304E+01
   -.505E+02 0.197E+02 0.253E+02   0.549E+02 -.205E+02 -.283E+02   -.444E+01 0.769E+00 0.304E+01
   0.197E+02 0.505E+02 -.253E+02   -.205E+02 -.549E+02 0.283E+02   0.769E+00 0.444E+01 -.304E+01
   0.514E+01 -.526E+02 -.275E+02   -.468E+01 0.569E+02 0.305E+02   -.474E+00 -.442E+01 -.306E+01
   -.526E+02 -.514E+01 0.275E+02   0.569E+02 0.468E+01 -.305E+02   -.442E+01 0.474E+00 0.306E+01
   -.514E+01 0.526E+02 -.275E+02   0.468E+01 -.569E+02 0.305E+02   0.474E+00 0.442E+01 -.306E+01
   0.526E+02 0.514E+01 0.275E+02   -.569E+02 -.468E+01 -.305E+02   0.442E+01 -.474E+00 0.306E+01
 -----------------------------------------------------------------------------------------------
   0.337E-04 0.150E-04 0.462E-05   0.711E-14 -.178E-13 -.167E-12   -.588E-04 -.588E-04 -.391E-04


 POSITION                                       TOTAL-FORCE (eV/Angst)
 -----------------------------------------------------------------------------------
      6.58155      6.58156      1.77901        -0.000006     -0.000016      0.189472
      6.41735      1.19109      0.89108        -0.017132      0.133496      0.100932
      1.02233      1.35547      8.91359         0.108155      0.149745     -0.000959
      0.10676      5.33302      0.89108         0.017148     -0.133500      0.100941
      5.16864      1.02233      0.00441        -0.149732      0.108137      0.000933
      1.19109      0.10677      8.02692         0.133494      0.017137     -0.100924
      5.50178      5.16865      8.91359        -0.108147     -0.149745     -0.000974
      1.35546      5.50178      0.00441         0.149725     -0.108147      0.000926
      5.33302      6.41735      8.02692        -0.133502     -0.017137     -0.100917
      6.58155      6.58156      7.13899         0.000008     -0.000006     -0.189488
      3.26205      3.26206      2.67999        -0.000021     -0.000007     -0.189455
      3.26206      3.26206      6.23801        -0.000021     -0.000015      0.189487
      3.42626      4.51059      3.56792         0.017173      0.133495     -0.100922
      4.51059      3.09785      5.35008         0.133486     -0.017108      0.100909
      3.09785      2.01352      3.56792        -0.017140     -0.133476     -0.100920
      2.01352      3.42627      5.35008        -0.133482      0.017142      0.100903
      2.18228      4.67497      4.46341        -0.108130      0.149720      0.000953
      4.67496      4.34183      4.45459         0.149719      0.108159     -0.000933
      4.34183      1.84915      4.46341         0.108133     -0.149723      0.000956
      1.84915      2.18228      4.45459        -0.149726     -0.108144     -0.000931
      0.82123      0.05744      2.43500        -0.038801      0.007496     -0.033136
      6.30173      2.08545      1.52709         0.002812     -0.049058     -0.024317
      1.92070      1.50153      0.61686        -0.042975     -0.008931     -0.019960
      0.91665      2.25503      8.28349         0.003065     -0.043602      0.022465
      5.70288      6.46667      2.43500         0.038776     -0.007516     -0.033135
      0.22238      4.43867      1.52709        -0.002787      0.049071     -0.024318
      5.02259      1.92070      8.30113         0.008958     -0.042970      0.019996
      4.26908      0.91665      0.63451         0.043607      0.003073     -0.022445
      2.08545      0.22238      7.39092        -0.049062     -0.002792      0.024293
      4.60341      5.02258      0.61686         0.042981      0.008955     -0.019968
      5.60746      4.26908      8.28349        -0.003087      0.043614      0.022462
      1.50152      4.60341      8.30113        -0.008943      0.042973      0.019997
      2.25503      5.60746      0.63451        -0.043606     -0.003094     -0.022451
      4.43866      6.30173      7.39092         0.049066      0.002810      0.024295
      6.46666      0.82123      6.48300        -0.007498     -0.038785      0.033148
      0.05745      5.70288      6.48300         0.007478      0.038758      0.033150
      2.38338      3.37694      2.02400         0.038782      0.007497      0.033139
      3.37695      4.14073      6.89400         0.007483     -0.038779     -0.033155
      4.14073      3.14717      2.02400        -0.038799     -0.007512      0.033132
      3.14716      2.38338      6.89400        -0.007495      0.038767     -0.033159
      3.54188      5.40495      2.93191        -0.002801     -0.049066      0.024321
      5.40495      2.98223      5.98608        -0.049060      0.002805     -0.024298
      2.98223      1.11917      2.93191         0.002818      0.049063      0.024314
      1.11916      3.54188      5.98608         0.049075     -0.002779     -0.024295
      1.28391      4.82103      3.84214         0.042974     -0.008942      0.019969
      4.82102      5.24020      5.07587        -0.008935     -0.042987     -0.019996
      5.24020      1.70308      3.84214        -0.042972      0.008959      0.019966
      1.70309      1.28391      5.07587         0.008957      0.042983     -0.020001
      2.28796      5.57453      5.09351        -0.003091     -0.043603     -0.022459
      5.57453      4.23615      3.82449        -0.043610      0.003065      0.022457
      4.23615      0.94958      5.09351         0.003071      0.043605     -0.022455
      0.94958      2.28796      3.82449         0.043615     -0.003085      0.022452
 -----------------------------------------------------------------------------------
    total drift:                               -0.000025     -0.000044     -0.000034


--------------------------------------------------------------------------------------------------------



  FREE ENERGIE OF THE ION-ELECTRON SYSTEM (eV)
  ---------------------------------------------------
  free  energy   TOTEN  =      -300.23956647 eV

  energy  without entropy=     -300.23956647  energy(sigma->0) =     -300.23956647



--------------------------------------------------------------------------------------------------------


    POTLOK:  cpu time      0.0412: real time      0.0415


--------------------------------------------------------------------------------------------------------


 stress matrix after NEB project (eV)
     -5.13553     -0.00000      0.00000
     -0.00000     -5.13553     -0.00000
      0.00000     -0.00000     -5.39539
  FORCES: max atom, RMS     0.189488    0.118172
  FORCE total and by dimension    0.852153    0.189488
  Stress total and by dimension    9.047520    5.395390
     LOOP+:  cpu time     40.1244: real time     40.4050
    4ORBIT:  cpu time      0.0000: real time      0.0000

 total amount of memory used by VASP MPI-rank0    63468. kBytes
=======================================================================

   base      :      30000. kBytes
   nonl-proj :       3694. kBytes
   fftplans  :       2235. kBytes
   grid      :       3842. kBytes
   one-center:          6. kBytes
   wavefun   :      23691. kBytes

  
  
 General timing and accounting informations for this job:
 ========================================================
  
                  Total CPU time used (sec):       56.535
                            User time (sec):       54.555
                          System time (sec):        1.980
                         Elapsed time (sec):       60.035
  
                   Maximum memory used (kb):      358964.
                   Average memory used (kb):          N/A
  
                          Minor page faults:        33375
                          Major page faults:          754
                 Voluntary context switches:         3219
