 vasp.6.4.1 05Apr23 (build Jun  6 2023 14:36:51) complex                         
 executed on        HPECrayEX_GCC date 2024.08.20  14:39:22
 running  256 mpi-ranks, with    1 threads/rank, on    2 nodes
 distrk:  each k-point on  128 cores,    2 groups
 distr:  one band on NCORE=  32 cores,    4 groups


--------------------------------------------------------------------------------------------------------


 INCAR:
   ALGO = Conjugate
   KPAR = 2
   NCORE = 32
   ISMEAR = 0
   SIGMA = 0.01
   PREC = Accurate
   EDIFF = 1E-7
   ENCUT = 1000
   ISIF = 0
   METAGGA = RSCAN
   LASPH = .TRUE.
   SYMPREC = 1E-7
   LWAVE = .FALSE.
   LCHARG = .FALSE.
   LWAVE = .FALSE.
   LCHARGE = .FALSE.

 POTCAR:    PAW_PBE C_h 06Feb2004                 
 POTCAR:    PAW_PBE H_h 06Feb2004                 
 POTCAR:    PAW_PBE C_h 06Feb2004                 
   VRHFIN =C: s2p2                                                                                  
   LEXCH  = PE                                                                                      
   EATOM  =   147.1560 eV,   10.8157 Ry                                                             
                                                                                                    
   TITEL  = PAW_PBE C_h 06Feb2004                                                                   
   LULTRA =        F    use ultrasoft PP ?                                                          
   IUNSCR =        1    unscreen: 0-lin 1-nonlin 2-no                                               
   RPACOR =    0.800    partial core radius                                                         
   POMASS =   12.011; ZVAL   =    4.000    mass and valenz                                          
   RCORE  =    1.100    outmost cutoff radius                                                       
   RWIGS  =    1.630; RWIGS  =    0.863    wigner-seitz radius (au A)                               
   ENMAX  =  700.000; ENMIN  =  500.000 eV                                                          
   ICORE  =        2    local potential                                                             
   LCOR   =        T    correct aug charges                                                         
   LPAW   =        T    paw PP                                                                      
   EAUG   =  946.768                                                                                
   DEXC   =    0.000                                                                                
   RMAX   =    1.128    core radius for proj-oper                                                   
   RAUG   =    1.300    factor for augmentation sphere                                              
   RDEP   =    1.162    radius for radial grids                                                     
   RDEPT  =    1.088    core radius for aug-charge                                                  
                                                                                                    
   Atomic configuration                                                                             
    4 entries                                                                                       
     n  l   j            E        occ.                                                              
     1  0  0.50      -273.3789   2.0000                                                             
     2  0  0.50       -13.7508   2.0000                                                             
     2  1  0.50        -5.2854   2.0000                                                             
     3  2  1.50        -5.4423   0.0000                                                             
   Description                                                                                      
     l       E           TYP  RCUT    TYP  RCUT                                                     
     0    -13.7508458     23  1.100                                                                 
     0     -8.2022199     23  1.100                                                                 
     1     -5.2854383     23  1.100                                                                 
     1      1.1560700     23  1.100                                                                 
     2     -5.4423304      7  1.100                                                                 
  local pseudopotential read in
  partial core-charges read in
  partial kinetic energy density read in
  atomic valenz-charges read in
  non local Contribution for L=           0  read in
    real space projection operators read in
  non local Contribution for L=           0  read in
    real space projection operators read in
  non local Contribution for L=           1  read in
    real space projection operators read in
  non local Contribution for L=           1  read in
    real space projection operators read in
    PAW grid and wavefunctions read in

   number of l-projection  operators is LMAX  =           4
   number of lm-projection operators is LMMAX =           8

 POTCAR:    PAW_PBE H_h 06Feb2004                 
   VRHFIN =H: ultrasoft test                                                                        
   LEXCH  = PE                                                                                      
   EATOM  =    12.4884 eV,    0.9179 Ry                                                             
                                                                                                    
   TITEL  = PAW_PBE H_h 06Feb2004                                                                   
   LULTRA =        F    use ultrasoft PP ?                                                          
   IUNSCR =        0    unscreen: 0-lin 1-nonlin 2-no                                               
   RPACOR =    0.000    partial core radius                                                         
   POMASS =    1.000; ZVAL   =    1.000    mass and valenz                                          
   RCORE  =    0.800    outmost cutoff radius                                                       
   RWIGS  =    0.700; RWIGS  =    0.370    wigner-seitz radius (au A)                               
   ENMAX  =  700.000; ENMIN  =  350.000 eV                                                          
   RCLOC  =    0.701    cutoff for local pot                                                        
   LCOR   =        T    correct aug charges                                                         
   LPAW   =        T    paw PP                                                                      
   EAUG   = 1000.000                                                                                
   RMAX   =    0.819    core radius for proj-oper                                                   
   RAUG   =    1.000    factor for augmentation sphere                                              
   RDEP   =    0.817    radius for radial grids                                                     
   RDEPT  =    0.817    core radius for aug-charge                                                  
                                                                                                    
   Atomic configuration                                                                             
    2 entries                                                                                       
     n  l   j            E        occ.                                                              
     1  0  0.50        -6.4927   1.0000                                                             
     2  1  0.50        -3.4015   0.0000                                                             
   Description                                                                                      
     l       E           TYP  RCUT    TYP  RCUT                                                     
     0     -6.4927493     23  0.800                                                                 
     0      6.8029130     23  0.800                                                                 
     1     -6.8029130     23  0.800                                                                 
  local pseudopotential read in
  atomic valenz-charges read in
  non local Contribution for L=           0  read in
    real space projection operators read in
  non local Contribution for L=           0  read in
    real space projection operators read in
  non local Contribution for L=           1  read in
    real space projection operators read in
    PAW grid and wavefunctions read in

   number of l-projection  operators is LMAX  =           3
   number of lm-projection operators is LMMAX =           5

 -----------------------------------------------------------------------------
|                                                                             |
|               ----> ADVICE to this user running VASP <----                  |
|                                                                             |
|     You have a (more or less) 'large supercell' and for larger cells it     |
|     might be more efficient to use real-space projection operators.         |
|     Therefore, try LREAL= Auto in the INCAR file.                           |
|     Mind: For very accurate calculation, you might also keep the            |
|     reciprocal projection scheme (i.e. LREAL=.FALSE.).                      |
|                                                                             |
 -----------------------------------------------------------------------------

  PAW_PBE C_h 06Feb2004                 :
 energy of atom  1       EATOM= -147.1560
 kinetic energy error for atom=    0.0031 (will be added to EATOM!!)
  PAW_PBE H_h 06Feb2004                 :
 energy of atom  2       EATOM=  -12.4884
 kinetic energy error for atom=    0.0006 (will be added to EATOM!!)


 POSCAR:  C  H
  positions in cartesian coordinates
  No initial velocities read in

 METAGGA = RSCAN                                       LMAXTAU =  6    LMIXTAU =  F

 exchange correlation table for  LEXCH =        8
   RHO(1)=    0.500       N(1)  =     2000
   RHO(2)=  100.500       N(2)  =     4000

 VTST: version 4.1, (05/19/21)

 CHAIN: initializing optimizer
 
 OPT: Using VASP Dynamics algorithm
 CHAIN: Read ICHAIN            0

 POSCAR:  C  H
  positions in cartesian coordinates
  No initial velocities read in



--------------------------------------------------------------------------------------------------------


 ion  position               nearest neighbor table
   1  0.991  0.991  0.199-  25 1.10  21 1.10   2 1.54   4 1.54
   2  0.967  0.179  0.100-  22 1.10   5 1.54   1 1.54   3 1.54
   3  0.154  0.204  1.000-  23 1.10  24 1.10   6 1.54   2 1.54
   4  0.016  0.803  0.100-  26 1.10   8 1.54   1 1.54   7 1.54
   5  0.779  0.154  0.000-  27 1.10  28 1.10   2 1.54   9 1.54
   6  0.179  0.016  0.900-  29 1.10   3 1.54  10 1.54   8 1.54
   7  0.829  0.779  1.000-  30 1.10  31 1.10   9 1.54   4 1.54
   8  0.204  0.829  0.000-  32 1.10  33 1.10   4 1.54   6 1.54
   9  0.803  0.967  0.900-  34 1.10   7 1.54  10 1.54   5 1.54
  10  0.991  0.991  0.801-  36 1.10  35 1.10   9 1.54   6 1.54
  11  0.491  0.491  0.301-  39 1.10  37 1.10  13 1.54  15 1.54
  12  0.491  0.491  0.699-  38 1.10  40 1.10  14 1.54  16 1.54
  13  0.516  0.679  0.400-  41 1.10  18 1.54  11 1.54  17 1.54
  14  0.679  0.467  0.600-  42 1.10  19 1.54  12 1.54  18 1.54
  15  0.467  0.303  0.400-  43 1.10  20 1.54  11 1.54  19 1.54
  16  0.303  0.516  0.600-  44 1.10  17 1.54  12 1.54  20 1.54
  17  0.329  0.704  0.500-  45 1.10  49 1.10  16 1.54  13 1.54
  18  0.704  0.654  0.500-  46 1.10  50 1.10  13 1.54  14 1.54
  19  0.654  0.279  0.500-  47 1.10  51 1.10  14 1.54  15 1.54
  20  0.279  0.329  0.500-  48 1.10  52 1.10  15 1.54  16 1.54
  21  0.124  0.009  0.273-   1 1.10
  22  0.949  0.314  0.171-   2 1.10
  23  0.289  0.226  0.069-   3 1.10
  24  0.138  0.340  0.929-   3 1.10
  25  0.859  0.974  0.273-   1 1.10
  26  0.033  0.669  0.171-   4 1.10
  27  0.757  0.289  0.931-   5 1.10
  28  0.643  0.138  0.071-   5 1.10
  29  0.314  0.033  0.829-   6 1.10
  30  0.693  0.757  0.069-   7 1.10
  31  0.845  0.643  0.929-   7 1.10
  32  0.226  0.693  0.931-   8 1.10
  33  0.340  0.845  0.071-   8 1.10
  34  0.669  0.949  0.829-   9 1.10
  35  0.974  0.124  0.727-  10 1.10
  36  0.009  0.859  0.727-  10 1.10
  37  0.359  0.509  0.227-  11 1.10
  38  0.509  0.624  0.773-  12 1.10
  39  0.624  0.474  0.227-  11 1.10
  40  0.474  0.359  0.773-  12 1.10
  41  0.533  0.814  0.329-  13 1.10
  42  0.814  0.449  0.671-  14 1.10
  43  0.449  0.169  0.329-  15 1.10
  44  0.169  0.533  0.671-  16 1.10
  45  0.193  0.726  0.431-  17 1.10
  46  0.726  0.789  0.569-  18 1.10
  47  0.789  0.257  0.431-  19 1.10
  48  0.257  0.193  0.569-  20 1.10
  49  0.345  0.840  0.571-  17 1.10
  50  0.840  0.638  0.429-  18 1.10
  51  0.638  0.143  0.571-  19 1.10
  52  0.143  0.345  0.429-  20 1.10

  LATTYP: Found a simple tetragonal cell.
 ALAT       =     6.6390000000
 C/A-ratio  =     1.3432745895
  
  Lattice vectors:
  
 A1 = (   6.6390000000,   0.0000000000,   0.0000000000)
 A2 = (   0.0000000000,   6.6390000000,   0.0000000000)
 A3 = (   0.0000000000,   0.0000000000,   8.9180000000)


Analysis of symmetry for initial positions (statically):
=====================================================================
 Subroutine PRICEL returns:
 Original cell was already a primitive cell.
 

 Routine SETGRP: Setting up the symmetry group for a 
 simple tetragonal supercell.


 Subroutine GETGRP returns: Found  1 space group operations
 (whereof  1 operations were pure point group operations)
 out of a pool of 16 trial point group operations.


The static configuration has the point symmetry C_1 .


Analysis of symmetry for dynamics (positions and initial velocities):
=====================================================================
 Subroutine PRICEL returns:
 Original cell was already a primitive cell.
 

 Routine SETGRP: Setting up the symmetry group for a 
 simple tetragonal supercell.


 Subroutine GETGRP returns: Found  1 space group operations
 (whereof  1 operations were pure point group operations)
 out of a pool of 16 trial point group operations.


The dynamic configuration has the point symmetry C_1 .


 Subroutine INISYM returns: Found  1 space group operations
 (whereof  1 operations are pure point group operations),
 and found     1 'primitive' translations


----------------------------------------------------------------------------------------

                                     Primitive cell                                     

  volume of cell :     393.0726

  direct lattice vectors                    reciprocal lattice vectors
     6.639000000  0.000000000  0.000000000     0.150625094  0.000000000  0.000000000
     0.000000000  6.639000000  0.000000000     0.000000000  0.150625094  0.000000000
     0.000000000  0.000000000  8.918000000     0.000000000  0.000000000  0.112132765

  length of vectors
     6.639000000  6.639000000  8.918000000     0.150625094  0.150625094  0.112132765

  position of ions in fractional coordinates (direct lattice)
     0.991347273  0.991347645  0.199485019
     0.966613204  0.179408016  0.099919657
     0.153988129  0.204167579  0.999505602
     0.016081388  0.803287290  0.099919608
     0.778527630  0.153988553  0.000494412
     0.179407519  0.016081993  0.900080458
     0.828706437  0.778527711  0.999505600
     0.204166924  0.828706755  0.000494398
     0.803287057  0.966613357  0.900080459
     0.991347208  0.991347659  0.800514950
     0.491347319  0.491347699  0.300514851
     0.491347357  0.491347661  0.699484876
     0.516081342  0.679408041  0.400080248
     0.679407556  0.466613331  0.599919391
     0.466613259  0.303287298  0.400080201
     0.303287096  0.516081967  0.599919415
     0.328706404  0.704167588  0.500494306
     0.704166956  0.653988526  0.499505474
     0.653988207  0.278527734  0.500494260
     0.278527674  0.328706806  0.499505432
     0.123697939  0.008652341  0.273043096
     0.949198468  0.314120706  0.171236416
     0.289305722  0.226168082  0.069170298
     0.138070205  0.339664221  0.928850888
     0.858996637  0.974042961  0.273043097
     0.033496085  0.668574596  0.171236403
     0.756527446  0.289305594  0.930828983
     0.643030713  0.138070989  0.071148814
     0.314120580  0.033496380  0.828764097
     0.693388825  0.756527216  0.069170283
     0.844624363  0.643031072  0.928850867
     0.226167109  0.693389696  0.930828970
     0.339663838  0.844624302  0.071148809
     0.668573983  0.949198919  0.828764088
     0.974041824  0.123697988  0.726956627
     0.008652727  0.858997399  0.726956617
     0.358996630  0.508652407  0.226956805
     0.508652716  0.623697923  0.773043248
     0.623697964  0.474043008  0.226956801
     0.474041876  0.358997375  0.773043261
     0.533496106  0.814120742  0.328763462
     0.814120582  0.449198958  0.671235752
     0.449198514  0.168574623  0.328763414
     0.168574001  0.533496326  0.671235753
     0.193388867  0.726168073  0.430829573
     0.726167106  0.789305644  0.569170904
     0.789305757  0.256527272  0.430829553
     0.256527492  0.193389689  0.569170852
     0.344624356  0.839664199  0.571148997
     0.839663883  0.638071053  0.428851043
     0.638070250  0.143031129  0.571148951
     0.143030732  0.344624309  0.428851014

  ion indices of the primitive-cell ions
   primitive index   ion index
                 1           1
                 2           2
                 3           3
                 4           4
                 5           5
                 6           6
                 7           7
                 8           8
                 9           9
                10          10
                11          11
                12          12
                13          13
                14          14
                15          15
                16          16
                17          17
                18          18
                19          19
                20          20
                21          21
                22          22
                23          23
                24          24
                25          25
                26          26
                27          27
                28          28
                29          29
                30          30
                31          31
                32          32
                33          33
                34          34
                35          35
                36          36
                37          37
                38          38
                39          39
                40          40
                41          41
                42          42
                43          43
                44          44
                45          45
                46          46
                47          47
                48          48
                49          49
                50          50
                51          51
                52          52

----------------------------------------------------------------------------------------



 KPOINTS: auto                                    

Automatic generation of k-mesh.
 Grid dimensions read from file:
 generate k-points for:    4    4    3

 Generating k-lattice:

  Cartesian coordinates                     Fractional coordinates (reciprocal lattice)
     0.037656274  0.000000000  0.000000000     0.250000000  0.000000000  0.000000000
     0.000000000  0.037656274  0.000000000     0.000000000  0.250000000  0.000000000
     0.000000000  0.000000000  0.037377588     0.000000000  0.000000000  0.333333333

  Length of vectors
     0.037656274  0.037656274  0.037377588

  Shift w.r.t. Gamma in fractional coordinates (k-lattice)
     0.000000000  0.000000000  0.000000000

 
 Subroutine IBZKPT returns following result:
 ===========================================
 
 Found     26 irreducible k-points:
 
 Following reciprocal coordinates:
            Coordinates               Weight
  0.000000  0.000000  0.000000      1.000000
  0.250000  0.000000  0.000000      2.000000
  0.000000  0.250000  0.000000      2.000000
  0.500000  0.000000  0.000000      1.000000
  0.000000  0.500000  0.000000      1.000000
  0.250000  0.250000  0.000000      2.000000
 -0.250000  0.250000  0.000000      2.000000
  0.500000  0.250000  0.000000      2.000000
 -0.250000  0.500000  0.000000      2.000000
  0.500000  0.500000  0.000000      1.000000
  0.000000  0.000000  0.333333      2.000000
  0.250000  0.000000  0.333333      2.000000
  0.000000  0.250000  0.333333      2.000000
 -0.250000  0.000000  0.333333      2.000000
  0.000000 -0.250000  0.333333      2.000000
  0.500000  0.000000  0.333333      2.000000
  0.000000  0.500000  0.333333      2.000000
  0.250000  0.250000  0.333333      2.000000
 -0.250000  0.250000  0.333333      2.000000
 -0.250000 -0.250000  0.333333      2.000000
  0.250000 -0.250000  0.333333      2.000000
  0.500000  0.250000  0.333333      2.000000
 -0.250000  0.500000  0.333333      2.000000
  0.500000 -0.250000  0.333333      2.000000
  0.250000  0.500000  0.333333      2.000000
  0.500000  0.500000  0.333333      2.000000
 
 Following cartesian coordinates:
            Coordinates               Weight
  0.000000  0.000000  0.000000      1.000000
  0.037656  0.000000  0.000000      2.000000
  0.000000  0.037656  0.000000      2.000000
  0.075313  0.000000  0.000000      1.000000
  0.000000  0.075313  0.000000      1.000000
  0.037656  0.037656  0.000000      2.000000
 -0.037656  0.037656  0.000000      2.000000
  0.075313  0.037656  0.000000      2.000000
 -0.037656  0.075313  0.000000      2.000000
  0.075313  0.075313  0.000000      1.000000
  0.000000  0.000000  0.037378      2.000000
  0.037656  0.000000  0.037378      2.000000
  0.000000  0.037656  0.037378      2.000000
 -0.037656  0.000000  0.037378      2.000000
  0.000000 -0.037656  0.037378      2.000000
  0.075313  0.000000  0.037378      2.000000
  0.000000  0.075313  0.037378      2.000000
  0.037656  0.037656  0.037378      2.000000
 -0.037656  0.037656  0.037378      2.000000
 -0.037656 -0.037656  0.037378      2.000000
  0.037656 -0.037656  0.037378      2.000000
  0.075313  0.037656  0.037378      2.000000
 -0.037656  0.075313  0.037378      2.000000
  0.075313 -0.037656  0.037378      2.000000
  0.037656  0.075313  0.037378      2.000000
  0.075313  0.075313  0.037378      2.000000
 


--------------------------------------------------------------------------------------------------------




 Dimension of arrays:
   k-points           NKPTS =     26   k-points in BZ     NKDIM =     26   number of bands    NBANDS=     84
   number of dos      NEDOS =    301   number of ions     NIONS =     52
   non local maximal  LDIM  =      4   non local SUM 2l+1 LMDIM =      8
   total plane-waves  NPLWV = 470400
   max r-space proj   IRMAX =      1   max aug-charges    IRDMAX=   8137
   dimension x,y,z NGX =    70 NGY =   70 NGZ =   96
   dimension x,y,z NGXF=   140 NGYF=  140 NGZF=  192
   support grid    NGXF=   140 NGYF=  140 NGZF=  192
   ions per type =              20  32
   NGX,Y,Z   is equivalent  to a cutoff of  17.53, 17.53, 17.90 a.u.
   NGXF,Y,Z  is equivalent  to a cutoff of  35.06, 35.06, 35.79 a.u.

 SYSTEM =  unknown system                          
 POSCAR =   C  H                                   

 Startparameter for this run:
   NWRITE =      2    write-flag & timer
   PREC   = accura    normal or accurate (medium, high low for compatibility)
   ISTART =      0    job   : 0-new  1-cont  2-samecut
   ICHARG =      2    charge: 1-file 2-atom 10-const
   ISPIN  =      1    spin polarized calculation?
   LNONCOLLINEAR =      F non collinear calculations
   LSORBIT =      F    spin-orbit coupling
   INIWAV =      1    electr: 0-lowe 1-rand  2-diag
   LASPH  =      T    aspherical Exc in radial PAW
 Electronic Relaxation 1
   ENCUT  = 1000.0 eV  73.50 Ry    8.57 a.u.  17.12 17.12 22.99*2*pi/ulx,y,z
   ENINI  = 1000.0     initial cutoff
   ENAUG  = 1000.0 eV  augmentation charge cutoff
   NELM   =     60;   NELMIN=  2; NELMDL= -5     # of ELM steps 
   EDIFF  = 0.1E-06   stopping-criterion for ELM
   LREAL  =      F    real-space projection
   NLSPLINE    = F    spline interpolate recip. space projectors
   LCOMPAT=      F    compatible to vasp.4.4
   GGA_COMPAT  = T    GGA compatible to vasp.4.4-vasp.4.6
   LMAXPAW     = -100 max onsite density
   LMAXMIX     =    2 max onsite mixed and CHGCAR
   VOSKOWN=      0    Vosko Wilk Nusair interpolation
   ROPT   =    0.00000   0.00000
 Ionic relaxation
   EDIFFG = 0.1E-05   stopping-criterion for IOM
   NSW    =      0    number of steps for IOM
   NBLOCK =      1;   KBLOCK =      1    inner block; outer block 
   IBRION =     -1    ionic relax: 0-MD 1-quasi-New 2-CG
   NFREE  =      0    steps in history (QN), initial steepest desc. (CG)
   ISIF   =      0    stress and relaxation
   IWAVPR =     10    prediction:  0-non 1-charg 2-wave 3-comb
   ISYM   =      2    0-nonsym 1-usesym 2-fastsym
   LCORR  =      T    Harris-Foulkes like correction to forces

   POTIM  = 0.5000    time-step for ionic-motion
   TEIN   =    0.0    initial temperature
   TEBEG  =    0.0;   TEEND  =   0.0 temperature during run
   SMASS  =  -3.00    Nose mass-parameter (am)
   estimated Nose-frequenzy (Omega)   =  0.10E-29 period in steps = 0.13E+47 mass=  -0.101E-26a.u.
   SCALEE = 1.0000    scale energy and forces
   NPACO  =    256;   APACO  = 10.0  distance and # of slots for P.C.
   PSTRESS=    0.0 pullay stress

  Mass of Ions in am
   POMASS =  12.01  1.00
  Ionic Valenz
   ZVAL   =   4.00  1.00
  Atomic Wigner-Seitz radii
   RWIGS  =  -1.00 -1.00
  virtual crystal weights 
   VCA    =   1.00  1.00
   NELECT =     112.0000    total number of electrons
   NUPDOWN=      -1.0000    fix difference up-down

 DOS related values:
   EMIN   =  10.00;   EMAX   =-10.00  energy-range for DOS
   EFERMI =   0.00;   METHOD = LEGACY      
   ISMEAR =     0;   SIGMA  =   0.01  broadening in eV -4-tet -1-fermi 0-gaus

 Electronic relaxation 2 (details)
   IALGO  =     58    algorithm
   LDIAG  =      T    sub-space diagonalisation (order eigenvalues)
   LSUBROT=      F    optimize rotation matrix (better conditioning)
   TURBO    =      0    0=normal 1=particle mesh
   IRESTART =      0    0=no restart 2=restart with 2 vectors
   NREBOOT  =      0    no. of reboots
   NMIN     =      0    reboot dimension
   EREF     =   0.00    reference energy to select bands
   IMIX   =      4    mixing-type and parameters
     AMIX     =   0.40;   BMIX     =  1.00
     AMIX_MAG =   1.60;   BMIX_MAG =  1.00
     AMIN     =   0.10
     WC   =   100.;   INIMIX=   1;  MIXPRE=   1;  MAXMIX= -45

 Intra band minimization:
   WEIMIN = 0.0000     energy-eigenvalue tresh-hold
   EBREAK =  0.30E-09  absolut break condition
   DEPER  =   0.30     relativ break condition  

   TIME   =   0.40     timestep for ELM

  volume/ion in A,a.u.               =       7.56        51.01
  Fermi-wavevector in a.u.,A,eV,Ry     =   1.077267  2.035739 15.789609  1.160504
  Thomas-Fermi vector in A             =   2.213174

 Write flags
   LWAVE        =      F    write WAVECAR
   LDOWNSAMPLE  =      F    k-point downsampling of WAVECAR
   LCHARG       =      F    write CHGCAR
   LVTOT        =      F    write LOCPOT, total local potential
   LVHAR        =      F    write LOCPOT, Hartree potential only
   LELF         =      F    write electronic localiz. function (ELF)
   LORBIT       =      0    0 simple, 1 ext, 2 COOP (PROOUT), +10 PAW based schemes


 Dipole corrections
   LMONO  =      F    monopole corrections only (constant potential shift)
   LDIPOL =      F    correct potential (dipole corrections)
   IDIPOL =      0    1-x, 2-y, 3-z, 4-all directions 
   EPSILON=  1.0000000 bulk dielectric constant

 Exchange correlation treatment:
   GGA     =    --    GGA type
   LEXCH   =     8    internal setting for exchange type
   LIBXC   =     F    Libxc                    
   VOSKOWN =     0    Vosko Wilk Nusair interpolation
   LHFCALC =     F    Hartree Fock is set to
   LHFONE  =     F    Hartree Fock one center treatment
   AEXX    =    0.0000 exact exchange contribution

 Linear response parameters
   LEPSILON=     F    determine dielectric tensor
   LRPA    =     F    only Hartree local field effects (RPA)
   LNABLA  =     F    use nabla operator in PAW spheres
   LVEL    =     F    velocity operator in full k-point grid
   CSHIFT  =0.1000    complex shift for real part using Kramers Kronig
   OMEGAMAX=  -1.0    maximum frequency
   DEG_THRESHOLD= 0.2000000E-02 threshold for treating states as degnerate
   RTIME   =   -0.100 relaxation time in fs
  (WPLASMAI=    0.000 imaginary part of plasma frequency in eV, 0.658/RTIME)
   DFIELD  = 0.0000000 0.0000000 0.0000000 field for delta impulse in time

  Optional k-point grid parameters
   LKPOINTS_OPT  =     F    use optional k-point grid
   KPOINTS_OPT_MODE=     1    mode for optional k-point grid

 Orbital magnetization related:
   ORBITALMAG=     F  switch on orbital magnetization
   LCHIMAG   =     F  perturbation theory with respect to B field
   DQ        =  0.001000  dq finite difference perturbation B field
   LLRAUG    =     F  two centre corrections for induced B field
   LBONE     =     F  B-component reconstruction in AE one-centre
   LVGVCALC  =     T  calculate vGv susceptibility
   LVGVAPPL  =     F  apply vGv susceptibility instead of pGv for G=0

 Random number generation:
   RANDOM_GENERATOR = DEFAULT
   PCG_SEED         = not used


--------------------------------------------------------------------------------------------------------


 Static calculation
 charge density and potential will be updated during run
 non-spin polarized calculation
 Conjugate gradient for all bands (Freysoldt, et al. PRB 79, 241103 (2009))
 preconditioned conjugated gradient                                        
 perform sub-space diagonalisation
    before iterative eigenvector-optimisation
 modified Broyden-mixing scheme, WC =      100.0
 initial mixing is a Kerker type mixing with AMIX =  0.4000 and BMIX =      1.0000
 Hartree-type preconditioning will be used
 using additional bands           28
 reciprocal scheme for non local part
 use partial core corrections
 no Harris-corrections to forces 
 use gradient corrections 
 use of overlap-Matrix (Vanderbilt PP)
 Gauss-broadening in eV      SIGMA  =   0.01


--------------------------------------------------------------------------------------------------------


  energy-cutoff  :     1000.00
  volume of cell :      393.07
      direct lattice vectors                 reciprocal lattice vectors
     6.639000000  0.000000000  0.000000000     0.150625094  0.000000000  0.000000000
     0.000000000  6.639000000  0.000000000     0.000000000  0.150625094  0.000000000
     0.000000000  0.000000000  8.918000000     0.000000000  0.000000000  0.112132765

  length of vectors
     6.639000000  6.639000000  8.918000000     0.150625094  0.150625094  0.112132765



 k-points in units of 2pi/SCALE and weight: auto                                    
   0.00000000  0.00000000  0.00000000       0.021
   0.03765627  0.00000000  0.00000000       0.042
   0.00000000  0.03765627  0.00000000       0.042
   0.07531255  0.00000000  0.00000000       0.021
   0.00000000  0.07531255  0.00000000       0.021
   0.03765627  0.03765627  0.00000000       0.042
  -0.03765627  0.03765627  0.00000000       0.042
   0.07531255  0.03765627  0.00000000       0.042
  -0.03765627  0.07531255  0.00000000       0.042
   0.07531255  0.07531255  0.00000000       0.021
   0.00000000  0.00000000  0.03737759       0.042
   0.03765627  0.00000000  0.03737759       0.042
   0.00000000  0.03765627  0.03737759       0.042
  -0.03765627  0.00000000  0.03737759       0.042
   0.00000000 -0.03765627  0.03737759       0.042
   0.07531255  0.00000000  0.03737759       0.042
   0.00000000  0.07531255  0.03737759       0.042
   0.03765627  0.03765627  0.03737759       0.042
  -0.03765627  0.03765627  0.03737759       0.042
  -0.03765627 -0.03765627  0.03737759       0.042
   0.03765627 -0.03765627  0.03737759       0.042
   0.07531255  0.03765627  0.03737759       0.042
  -0.03765627  0.07531255  0.03737759       0.042
   0.07531255 -0.03765627  0.03737759       0.042
   0.03765627  0.07531255  0.03737759       0.042
   0.07531255  0.07531255  0.03737759       0.042

 k-points in reciprocal lattice and weights: auto                                    
   0.00000000  0.00000000  0.00000000       0.021
   0.25000000  0.00000000  0.00000000       0.042
   0.00000000  0.25000000  0.00000000       0.042
   0.50000000  0.00000000  0.00000000       0.021
   0.00000000  0.50000000  0.00000000       0.021
   0.25000000  0.25000000  0.00000000       0.042
  -0.25000000  0.25000000  0.00000000       0.042
   0.50000000  0.25000000  0.00000000       0.042
  -0.25000000  0.50000000  0.00000000       0.042
   0.50000000  0.50000000  0.00000000       0.021
   0.00000000  0.00000000  0.33333333       0.042
   0.25000000  0.00000000  0.33333333       0.042
   0.00000000  0.25000000  0.33333333       0.042
  -0.25000000  0.00000000  0.33333333       0.042
   0.00000000 -0.25000000  0.33333333       0.042
   0.50000000  0.00000000  0.33333333       0.042
   0.00000000  0.50000000  0.33333333       0.042
   0.25000000  0.25000000  0.33333333       0.042
  -0.25000000  0.25000000  0.33333333       0.042
  -0.25000000 -0.25000000  0.33333333       0.042
   0.25000000 -0.25000000  0.33333333       0.042
   0.50000000  0.25000000  0.33333333       0.042
  -0.25000000  0.50000000  0.33333333       0.042
   0.50000000 -0.25000000  0.33333333       0.042
   0.25000000  0.50000000  0.33333333       0.042
   0.50000000  0.50000000  0.33333333       0.042

 position of ions in fractional coordinates (direct lattice) 
   0.99134727  0.99134764  0.19948502
   0.96661320  0.17940802  0.09991966
   0.15398813  0.20416758  0.99950560
   0.01608139  0.80328729  0.09991961
   0.77852763  0.15398855  0.00049441
   0.17940752  0.01608199  0.90008046
   0.82870644  0.77852771  0.99950560
   0.20416692  0.82870676  0.00049440
   0.80328706  0.96661336  0.90008046
   0.99134721  0.99134766  0.80051495
   0.49134732  0.49134770  0.30051485
   0.49134736  0.49134766  0.69948488
   0.51608134  0.67940804  0.40008025
   0.67940756  0.46661333  0.59991939
   0.46661326  0.30328730  0.40008020
   0.30328710  0.51608197  0.59991941
   0.32870640  0.70416759  0.50049431
   0.70416696  0.65398853  0.49950547
   0.65398821  0.27852773  0.50049426
   0.27852767  0.32870681  0.49950543
   0.12369794  0.00865234  0.27304310
   0.94919847  0.31412071  0.17123642
   0.28930572  0.22616808  0.06917030
   0.13807020  0.33966422  0.92885089
   0.85899664  0.97404296  0.27304310
   0.03349608  0.66857460  0.17123640
   0.75652745  0.28930559  0.93082898
   0.64303071  0.13807099  0.07114881
   0.31412058  0.03349638  0.82876410
   0.69338882  0.75652722  0.06917028
   0.84462436  0.64303107  0.92885087
   0.22616711  0.69338970  0.93082897
   0.33966384  0.84462430  0.07114881
   0.66857398  0.94919892  0.82876409
   0.97404182  0.12369799  0.72695663
   0.00865273  0.85899740  0.72695662
   0.35899663  0.50865241  0.22695681
   0.50865272  0.62369792  0.77304325
   0.62369796  0.47404301  0.22695680
   0.47404188  0.35899737  0.77304326
   0.53349611  0.81412074  0.32876346
   0.81412058  0.44919896  0.67123575
   0.44919851  0.16857462  0.32876341
   0.16857400  0.53349633  0.67123575
   0.19338887  0.72616807  0.43082957
   0.72616711  0.78930564  0.56917090
   0.78930576  0.25652727  0.43082955
   0.25652749  0.19338969  0.56917085
   0.34462436  0.83966420  0.57114900
   0.83966388  0.63807105  0.42885104
   0.63807025  0.14303113  0.57114895
   0.14303073  0.34462431  0.42885101

 position of ions in cartesian coordinates  (Angst):
   6.58155455  6.58155701  1.77900740
   6.41734506  1.19108982  0.89108350
   1.02232719  1.35546855  8.91359096
   0.10676434  5.33302432  0.89108306
   5.16864494  1.02233000  0.00440917
   1.19108652  0.10676835  8.02691752
   5.50178203  5.16864547  8.91359094
   1.35546421  5.50178415  0.00440904
   5.33302277  6.41734608  8.02691754
   6.58155411  6.58155710  7.13899232
   3.26205485  3.26205737  2.67999144
   3.26205510  3.26205712  6.23800612
   3.42626403  4.51058999  3.56791565
   4.51058677  3.09784590  5.35008113
   3.09784543  2.01352437  3.56791523
   2.01352303  3.42626818  5.35008134
   2.18228182  4.67496862  4.46340822
   4.67496442  4.34182982  4.45458981
   4.34182770  1.84914562  4.46340781
   1.84914523  2.18228448  4.45458944
   0.82123061  0.05744290  2.43499833
   6.30172863  2.08544737  1.52708636
   1.92070069  1.50152990  0.61686072
   0.91664809  2.25503076  8.28349222
   5.70287867  6.46667122  2.43499834
   0.22238051  4.43866674  1.52708624
   5.02258571  1.92069984  8.30113287
   4.26908091  0.91665330  0.63450513
   2.08544653  0.22238246  7.39091822
   4.60340841  5.02258419  0.61686058
   5.60746114  4.26908328  8.28349203
   1.50152343  4.60341419  8.30113275
   2.25502822  5.60746074  0.63450508
   4.43866268  6.30173163  7.39091814
   6.46666367  0.82123094  6.48299920
   0.05744545  5.70288373  6.48299911
   2.38337863  3.37694333  2.02400079
   3.37694538  4.14073051  6.89399969
   4.14073079  3.14717153  2.02400075
   3.14716401  2.38338357  6.89399980
   3.54188065  5.40494761  2.93191255
   5.40494655  2.98223188  5.98608044
   2.98222893  1.11916692  2.93191212
   1.11916279  3.54188211  5.98608044
   1.28390869  4.82102984  3.84213813
   4.82102342  5.24020017  5.07586612
   5.24020092  1.70308456  3.84213796
   1.70308602  1.28391414  5.07586565
   2.28796110  5.57453062  5.09350675
   5.57452852  4.23615372  3.82449360
   4.23614839  0.94958366  5.09350634
   0.94958103  2.28796079  3.82449334



--------------------------------------------------------------------------------------------------------


 k-point   1 :   0.0000 0.0000 0.0000  plane waves:   28161
 k-point   2 :   0.2500 0.0000 0.0000  plane waves:   28188
 k-point   3 :   0.0000 0.2500 0.0000  plane waves:   28188
 k-point   4 :   0.5000 0.0000 0.0000  plane waves:   28206
 k-point   5 :   0.0000 0.5000 0.0000  plane waves:   28206
 k-point   6 :   0.2500 0.2500 0.0000  plane waves:   28230
 k-point   7 :  -0.2500 0.2500 0.0000  plane waves:   28230
 k-point   8 :   0.5000 0.2500 0.0000  plane waves:   28224
 k-point   9 :  -0.2500 0.5000 0.0000  plane waves:   28224
 k-point  10 :   0.5000 0.5000 0.0000  plane waves:   28240
 k-point  11 :   0.0000 0.0000 0.3333  plane waves:   28218
 k-point  12 :   0.2500 0.0000 0.3333  plane waves:   28210
 k-point  13 :   0.0000 0.2500 0.3333  plane waves:   28210
 k-point  14 :  -0.2500 0.0000 0.3333  plane waves:   28210
 k-point  15 :   0.0000-0.2500 0.3333  plane waves:   28210
 k-point  16 :   0.5000 0.0000 0.3333  plane waves:   28234
 k-point  17 :   0.0000 0.5000 0.3333  plane waves:   28234
 k-point  18 :   0.2500 0.2500 0.3333  plane waves:   28241
 k-point  19 :  -0.2500 0.2500 0.3333  plane waves:   28241
 k-point  20 :  -0.2500-0.2500 0.3333  plane waves:   28241
 k-point  21 :   0.2500-0.2500 0.3333  plane waves:   28241
 k-point  22 :   0.5000 0.2500 0.3333  plane waves:   28226
 k-point  23 :  -0.2500 0.5000 0.3333  plane waves:   28226
 k-point  24 :   0.5000-0.2500 0.3333  plane waves:   28226
 k-point  25 :   0.2500 0.5000 0.3333  plane waves:   28226
 k-point  26 :   0.5000 0.5000 0.3333  plane waves:   28272

 maximum and minimum number of plane-waves per node :       910      854

 maximum number of plane-waves:     28272
 maximum index in each direction: 
   IXMAX=   17   IYMAX=   17   IZMAX=   22
   IXMIN=  -17   IYMIN=  -17   IZMIN=  -23


 parallel 3D FFT for wavefunctions:
    minimum data exchange during FFTs selected (reduces bandwidth)
 parallel 3D FFT for charge:
    minimum data exchange during FFTs selected (reduces bandwidth)


 total amount of memory used by VASP MPI-rank0    64547. kBytes
=======================================================================

   base      :      30000. kBytes
   nonl-proj :       3694. kBytes
   fftplans  :       2235. kBytes
   grid      :       4921. kBytes
   one-center:          6. kBytes
   wavefun   :      23691. kBytes

     INWAV:  cpu time      0.0001: real time      0.0003
 Broyden mixing: mesh for mixing (old mesh)
   NGX = 35   NGY = 35   NGZ = 45
  (NGX  =140   NGY  =140   NGZ  =192)
  gives a total of  55125 points

 initial charge density was supplied:
 charge density of overlapping atoms calculated
 number of electron     112.0000000 magnetization 
 keeping initial charge density in first step


--------------------------------------------------------------------------------------------------------


 Maximum index for augmentation-charges          707 (set IRDMAX)


--------------------------------------------------------------------------------------------------------


 First call to EWALD:  gamma=   0.242
 Maximum number of real-space cells 3x 3x 2
 Maximum number of reciprocal cells 3x 3x 3

    FEWALD:  cpu time      0.0034: real time      0.0034


--------------------------------------- Ionic step        1  -------------------------------------------




--------------------------------------- Iteration      1(   1)  ---------------------------------------


    POTLOK:  cpu time      0.1418: real time      0.1424
    SETDIJ:  cpu time      0.3139: real time      0.3146
    TRIAL :  cpu time      4.7690: real time      4.7731
    CORREC:  cpu time      0.0032: real time      0.0032
    --------------------------------------------
      LOOP:  cpu time      5.2456: real time      5.2511

 eigenvalue-minimisations  :  4368
 total energy-change (2. order) : 0.6319362E+03  (-0.8311279E+04)
 number of electron     112.0000000 magnetization 
 augmentation part      112.0000000 magnetization 

 Free energy of the ion-electron system (eV)
  ---------------------------------------------------
  alpha Z        PSCENC =       100.17147629
  Ewald energy   TEWEN  =     -1306.10277904
  -Hartree energ DENC   =     -1735.88974361
  -exchange      EXHF   =         0.00000000
  -V(xc)+E(xc)   XCENC  =       302.86744144
  PAW double counting   =      2241.21219106    -2183.36841137
  entropy T*S    EENTRO =        -0.00005220
  eigenvalues    EBANDS =      -129.62123638
  atomic energy  EATOM  =      3342.66727178
  ---------------------------------------------------
  free energy    TOTEN  =       631.93615798 eV

  energy without entropy =      631.93621018  energy(sigma->0) =      631.93618408


--------------------------------------------------------------------------------------------------------




--------------------------------------- Iteration      1(   2)  ---------------------------------------


    TRIAL :  cpu time      5.4416: real time      5.4438
    CORREC:  cpu time      0.0004: real time      0.0004
    --------------------------------------------
      LOOP:  cpu time      5.4557: real time      5.4738

 eigenvalue-minimisations  :  5680
 total energy-change (2. order) :-0.8951891E+03  (-0.8414761E+03)
 number of electron     112.0000000 magnetization 
 augmentation part      112.0000000 magnetization 

 Free energy of the ion-electron system (eV)
  ---------------------------------------------------
  alpha Z        PSCENC =       100.17147629
  Ewald energy   TEWEN  =     -1306.10277904
  -Hartree energ DENC   =     -1735.88974361
  -exchange      EXHF   =         0.00000000
  -V(xc)+E(xc)   XCENC  =       302.86744144
  PAW double counting   =      2241.21219106    -2183.36841137
  entropy T*S    EENTRO =        -0.00000000
  eigenvalues    EBANDS =     -1024.81038667
  atomic energy  EATOM  =      3342.66727178
  ---------------------------------------------------
  free energy    TOTEN  =      -263.25294012 eV

  energy without entropy =     -263.25294012  energy(sigma->0) =     -263.25294012


--------------------------------------------------------------------------------------------------------




--------------------------------------- Iteration      1(   3)  ---------------------------------------


    TRIAL :  cpu time      5.2892: real time      5.2918
    CORREC:  cpu time      0.0004: real time      0.0004
    --------------------------------------------
      LOOP:  cpu time      5.3054: real time      5.3217

 eigenvalue-minimisations  :  5472
 total energy-change (2. order) :-0.1092654E+03  (-0.1083515E+03)
 number of electron     112.0000000 magnetization 
 augmentation part      112.0000000 magnetization 

 Free energy of the ion-electron system (eV)
  ---------------------------------------------------
  alpha Z        PSCENC =       100.17147629
  Ewald energy   TEWEN  =     -1306.10277904
  -Hartree energ DENC   =     -1735.88974361
  -exchange      EXHF   =         0.00000000
  -V(xc)+E(xc)   XCENC  =       302.86744144
  PAW double counting   =      2241.21219106    -2183.36841137
  entropy T*S    EENTRO =        -0.00000000
  eigenvalues    EBANDS =     -1134.07579423
  atomic energy  EATOM  =      3342.66727178
  ---------------------------------------------------
  free energy    TOTEN  =      -372.51834767 eV

  energy without entropy =     -372.51834767  energy(sigma->0) =     -372.51834767


--------------------------------------------------------------------------------------------------------




--------------------------------------- Iteration      1(   4)  ---------------------------------------


    TRIAL :  cpu time      5.5211: real time      5.5243
    CORREC:  cpu time      0.0004: real time      0.0004
    --------------------------------------------
      LOOP:  cpu time      5.5503: real time      5.5539

 eigenvalue-minimisations  :  5768
 total energy-change (2. order) :-0.3544270E+01  (-0.3534394E+01)
 number of electron     112.0000000 magnetization 
 augmentation part      112.0000000 magnetization 

 Free energy of the ion-electron system (eV)
  ---------------------------------------------------
  alpha Z        PSCENC =       100.17147629
  Ewald energy   TEWEN  =     -1306.10277904
  -Hartree energ DENC   =     -1735.88974361
  -exchange      EXHF   =         0.00000000
  -V(xc)+E(xc)   XCENC  =       302.86744144
  PAW double counting   =      2241.21219106    -2183.36841137
  entropy T*S    EENTRO =        -0.00000000
  eigenvalues    EBANDS =     -1137.62006381
  atomic energy  EATOM  =      3342.66727178
  ---------------------------------------------------
  free energy    TOTEN  =      -376.06261726 eV

  energy without entropy =     -376.06261726  energy(sigma->0) =     -376.06261726


--------------------------------------------------------------------------------------------------------




--------------------------------------- Iteration      1(   5)  ---------------------------------------


    TRIAL :  cpu time      5.5448: real time      5.5475
    CORREC:  cpu time      0.0004: real time      0.0004
    CHARGE:  cpu time      0.3308: real time      0.3319
    --------------------------------------------
      LOOP:  cpu time      5.8912: real time      5.9097

 eigenvalue-minimisations  :  5864
 total energy-change (2. order) :-0.1299592E+00  (-0.1298456E+00)
 number of electron     112.0000000 magnetization 
 augmentation part        0.0138090 magnetization 

 Free energy of the ion-electron system (eV)
  ---------------------------------------------------
  alpha Z        PSCENC =       100.17147629
  Ewald energy   TEWEN  =     -1306.10277904
  -Hartree energ DENC   =     -1735.88974361
  -exchange      EXHF   =         0.00000000
  -V(xc)+E(xc)   XCENC  =       302.86744144
  PAW double counting   =      2241.21219106    -2183.36841137
  entropy T*S    EENTRO =        -0.00000000
  eigenvalues    EBANDS =     -1137.75002302
  atomic energy  EATOM  =      3342.66727178
  ---------------------------------------------------
  free energy    TOTEN  =      -376.19257646 eV

  energy without entropy =     -376.19257646  energy(sigma->0) =     -376.19257646


--------------------------------------------------------------------------------------------------------




--------------------------------------- Iteration      1(   6)  ---------------------------------------


    POTLOK:  cpu time      0.1245: real time      0.1245
    SETDIJ:  cpu time      0.3069: real time      0.3070
    TRIAL :  cpu time      3.5534: real time      3.5562
    CORREC:  cpu time      1.6181: real time      1.6186
    CHARGE:  cpu time      0.3017: real time      0.3019
    --------------------------------------------
      LOOP:  cpu time      5.9167: real time      5.9377

 eigenvalue-minimisations  :     0
 total energy-change (2. order) : 0.7473846E+02  (-0.2026768E+02)
 number of electron     112.0000000 magnetization 
 augmentation part       -0.0083549 magnetization 

 Free energy of the ion-electron system (eV)
  ---------------------------------------------------
  alpha Z        PSCENC =       100.17147629
  Ewald energy   TEWEN  =     -1306.10277904
  -Hartree energ DENC   =     -2422.18778060
  -exchange      EXHF   =         0.00000000
  -V(xc)+E(xc)   XCENC  =       357.16202506
  PAW double counting   =     35368.21536219   -35313.93007510
  entropy T*S    EENTRO =        -0.00000000
  eigenvalues    EBANDS =      -427.44961511
  atomic energy  EATOM  =      3342.66727178
  ---------------------------------------------------
  free energy    TOTEN  =      -301.45411452 eV

  energy without entropy =     -301.45411452  energy(sigma->0) =     -301.45411452


--------------------------------------------------------------------------------------------------------




--------------------------------------- Iteration      1(   7)  ---------------------------------------


    POTLOK:  cpu time      0.1242: real time      0.1242
    SETDIJ:  cpu time      0.3039: real time      0.3039
    TRIAL :  cpu time      3.5323: real time      3.5340
    CORREC:  cpu time      1.6104: real time      1.6118
    CHARGE:  cpu time      0.3010: real time      0.3010
    --------------------------------------------
      LOOP:  cpu time      5.9018: real time      5.9052

 eigenvalue-minimisations  :     0
 total energy-change (2. order) :-0.2021342E+02  (-0.3030612E+01)
 number of electron     111.9999999 magnetization 
 augmentation part       -0.0237883 magnetization 

 Free energy of the ion-electron system (eV)
  ---------------------------------------------------
  alpha Z        PSCENC =       100.17147629
  Ewald energy   TEWEN  =     -1306.10277904
  -Hartree energ DENC   =     -2105.52407771
  -exchange      EXHF   =         0.00000000
  -V(xc)+E(xc)   XCENC  =       340.49185479
  PAW double counting   =     45095.00509143   -45038.34326797
  entropy T*S    EENTRO =        -0.00000000
  eigenvalues    EBANDS =      -750.03310270
  atomic energy  EATOM  =      3342.66727178
  ---------------------------------------------------
  free energy    TOTEN  =      -321.66753313 eV

  energy without entropy =     -321.66753313  energy(sigma->0) =     -321.66753313


--------------------------------------------------------------------------------------------------------




--------------------------------------- Iteration      1(   8)  ---------------------------------------


    POTLOK:  cpu time      0.1239: real time      0.1244
    SETDIJ:  cpu time      0.3043: real time      0.3043
    TRIAL :  cpu time      3.5424: real time      3.5442
    CORREC:  cpu time      1.6225: real time      1.6234
    CHARGE:  cpu time      0.3134: real time      0.3134
    --------------------------------------------
      LOOP:  cpu time      5.9192: real time      5.9395

 eigenvalue-minimisations  :     0
 total energy-change (2. order) :-0.3017925E+01  (-0.6894438E+00)
 number of electron     111.9999999 magnetization 
 augmentation part       -0.0178369 magnetization 

 Free energy of the ion-electron system (eV)
  ---------------------------------------------------
  alpha Z        PSCENC =       100.17147629
  Ewald energy   TEWEN  =     -1306.10277904
  -Hartree energ DENC   =     -2090.96465023
  -exchange      EXHF   =         0.00000000
  -V(xc)+E(xc)   XCENC  =       339.60437000
  PAW double counting   =     49899.16201611   -49842.13659831
  entropy T*S    EENTRO =        -0.00000000
  eigenvalues    EBANDS =      -767.08656431
  atomic energy  EATOM  =      3342.66727178
  ---------------------------------------------------
  free energy    TOTEN  =      -324.68545769 eV

  energy without entropy =     -324.68545769  energy(sigma->0) =     -324.68545769


--------------------------------------------------------------------------------------------------------




--------------------------------------- Iteration      1(   9)  ---------------------------------------


    POTLOK:  cpu time      0.1235: real time      0.1240
    SETDIJ:  cpu time      0.3048: real time      0.3049
    TRIAL :  cpu time      3.5633: real time      3.5651
    CORREC:  cpu time      1.6612: real time      1.6621
    CHARGE:  cpu time      0.3016: real time      0.3017
    --------------------------------------------
      LOOP:  cpu time      5.9672: real time      5.9874

 eigenvalue-minimisations  :     0
 total energy-change (2. order) :-0.6846024E+00  (-0.1521884E+00)
 number of electron     111.9999999 magnetization 
 augmentation part       -0.0186054 magnetization 

 Free energy of the ion-electron system (eV)
  ---------------------------------------------------
  alpha Z        PSCENC =       100.17147629
  Ewald energy   TEWEN  =     -1306.10277904
  -Hartree energ DENC   =     -2072.23416447
  -exchange      EXHF   =         0.00000000
  -V(xc)+E(xc)   XCENC  =       339.07678641
  PAW double counting   =     49541.03157866   -49483.93596153
  entropy T*S    EENTRO =        -0.00000000
  eigenvalues    EBANDS =      -786.04426819
  atomic energy  EATOM  =      3342.66727178
  ---------------------------------------------------
  free energy    TOTEN  =      -325.37006009 eV

  energy without entropy =     -325.37006009  energy(sigma->0) =     -325.37006009


--------------------------------------------------------------------------------------------------------




--------------------------------------- Iteration      1(  10)  ---------------------------------------


    POTLOK:  cpu time      0.1237: real time      0.1237
    SETDIJ:  cpu time      0.3056: real time      0.3061
    TRIAL :  cpu time      3.5277: real time      3.5295
    CORREC:  cpu time      1.6086: real time      1.6098
    CHARGE:  cpu time      0.3002: real time      0.3002
    --------------------------------------------
      LOOP:  cpu time      5.8962: real time      5.9001

 eigenvalue-minimisations  :     0
 total energy-change (2. order) :-0.1520051E+00  (-0.3441857E-01)
 number of electron     111.9999999 magnetization 
 augmentation part       -0.0202312 magnetization 

 Free energy of the ion-electron system (eV)
  ---------------------------------------------------
  alpha Z        PSCENC =       100.17147629
  Ewald energy   TEWEN  =     -1306.10277904
  -Hartree energ DENC   =     -2071.52394237
  -exchange      EXHF   =         0.00000000
  -V(xc)+E(xc)   XCENC  =       339.03119217
  PAW double counting   =     48325.91672422   -48268.88204285
  entropy T*S    EENTRO =        -0.00000000
  eigenvalues    EBANDS =      -786.79996538
  atomic energy  EATOM  =      3342.66727178
  ---------------------------------------------------
  free energy    TOTEN  =      -325.52206519 eV

  energy without entropy =     -325.52206519  energy(sigma->0) =     -325.52206519


--------------------------------------------------------------------------------------------------------




--------------------------------------- Iteration      1(  11)  ---------------------------------------


    POTLOK:  cpu time      0.1234: real time      0.1234
    SETDIJ:  cpu time      0.3045: real time      0.3050
    TRIAL :  cpu time      3.5538: real time      3.5555
    CORREC:  cpu time      1.6173: real time      1.6185
    CHARGE:  cpu time      0.3002: real time      0.3002
    --------------------------------------------
      LOOP:  cpu time      5.9111: real time      5.9326

 eigenvalue-minimisations  :     0
 total energy-change (2. order) :-0.3434738E-01  (-0.7832852E-02)
 number of electron     111.9999999 magnetization 
 augmentation part       -0.0207874 magnetization 

 Free energy of the ion-electron system (eV)
  ---------------------------------------------------
  alpha Z        PSCENC =       100.17147629
  Ewald energy   TEWEN  =     -1306.10277904
  -Hartree energ DENC   =     -2071.15692155
  -exchange      EXHF   =         0.00000000
  -V(xc)+E(xc)   XCENC  =       338.84557945
  PAW double counting   =     47855.90897104   -47798.89591736
  entropy T*S    EENTRO =        -0.00000000
  eigenvalues    EBANDS =      -786.99409317
  atomic energy  EATOM  =      3342.66727178
  ---------------------------------------------------
  free energy    TOTEN  =      -325.55641256 eV

  energy without entropy =     -325.55641256  energy(sigma->0) =     -325.55641256


--------------------------------------------------------------------------------------------------------




--------------------------------------- Iteration      1(  12)  ---------------------------------------


    POTLOK:  cpu time      0.1236: real time      0.1236
    SETDIJ:  cpu time      0.3061: real time      0.3065
    TRIAL :  cpu time      3.5304: real time      3.5324
    CORREC:  cpu time      1.6074: real time      1.6085
    CHARGE:  cpu time      0.2998: real time      0.2998
    --------------------------------------------
      LOOP:  cpu time      5.8794: real time      5.9007

 eigenvalue-minimisations  :     0
 total energy-change (2. order) :-0.7817127E-02  (-0.1644591E-02)
 number of electron     111.9999999 magnetization 
 augmentation part       -0.0206159 magnetization 

 Free energy of the ion-electron system (eV)
  ---------------------------------------------------
  alpha Z        PSCENC =       100.17147629
  Ewald energy   TEWEN  =     -1306.10277904
  -Hartree energ DENC   =     -2069.82828243
  -exchange      EXHF   =         0.00000000
  -V(xc)+E(xc)   XCENC  =       338.73850772
  PAW double counting   =     47822.57899375   -47765.56618420
  entropy T*S    EENTRO =        -0.00000000
  eigenvalues    EBANDS =      -788.22323355
  atomic energy  EATOM  =      3342.66727178
  ---------------------------------------------------
  free energy    TOTEN  =      -325.56422969 eV

  energy without entropy =     -325.56422969  energy(sigma->0) =     -325.56422969


--------------------------------------------------------------------------------------------------------




--------------------------------------- Iteration      1(  13)  ---------------------------------------


    POTLOK:  cpu time      0.1238: real time      0.1239
    SETDIJ:  cpu time      0.3053: real time      0.3058
    TRIAL :  cpu time      3.5300: real time      3.5320
    CORREC:  cpu time      1.6074: real time      1.6083
    CHARGE:  cpu time      0.2990: real time      0.2990
    --------------------------------------------
      LOOP:  cpu time      5.8777: real time      5.8986

 eigenvalue-minimisations  :     0
 total energy-change (2. order) :-0.1640385E-02  (-0.3283173E-03)
 number of electron     111.9999999 magnetization 
 augmentation part       -0.0204174 magnetization 

 Free energy of the ion-electron system (eV)
  ---------------------------------------------------
  alpha Z        PSCENC =       100.17147629
  Ewald energy   TEWEN  =     -1306.10277904
  -Hartree energ DENC   =     -2070.68051843
  -exchange      EXHF   =         0.00000000
  -V(xc)+E(xc)   XCENC  =       338.77120638
  PAW double counting   =     47841.83597269   -47784.82849086
  entropy T*S    EENTRO =        -0.00000000
  eigenvalues    EBANDS =      -787.40000888
  atomic energy  EATOM  =      3342.66727178
  ---------------------------------------------------
  free energy    TOTEN  =      -325.56587007 eV

  energy without entropy =     -325.56587007  energy(sigma->0) =     -325.56587007


--------------------------------------------------------------------------------------------------------




--------------------------------------- Iteration      1(  14)  ---------------------------------------


    POTLOK:  cpu time      0.1238: real time      0.1238
    SETDIJ:  cpu time      0.3065: real time      0.3066
    TRIAL :  cpu time      3.5716: real time      3.5740
    CORREC:  cpu time      1.6618: real time      1.6628
    CHARGE:  cpu time      0.2994: real time      0.2995
    --------------------------------------------
      LOOP:  cpu time      5.9746: real time      5.9961

 eigenvalue-minimisations  :     0
 total energy-change (2. order) :-0.3341176E-03  (-0.7178999E-04)
 number of electron     111.9999999 magnetization 
 augmentation part       -0.0202647 magnetization 

 Free energy of the ion-electron system (eV)
  ---------------------------------------------------
  alpha Z        PSCENC =       100.17147629
  Ewald energy   TEWEN  =     -1306.10277904
  -Hartree energ DENC   =     -2070.40453114
  -exchange      EXHF   =         0.00000000
  -V(xc)+E(xc)   XCENC  =       338.75440929
  PAW double counting   =     47857.46488092   -47800.45562306
  entropy T*S    EENTRO =        -0.00000000
  eigenvalues    EBANDS =      -787.66130923
  atomic energy  EATOM  =      3342.66727178
  ---------------------------------------------------
  free energy    TOTEN  =      -325.56620419 eV

  energy without entropy =     -325.56620419  energy(sigma->0) =     -325.56620419


--------------------------------------------------------------------------------------------------------




--------------------------------------- Iteration      1(  15)  ---------------------------------------


    POTLOK:  cpu time      0.1238: real time      0.1238
    SETDIJ:  cpu time      0.3048: real time      0.3048
    TRIAL :  cpu time      3.5552: real time      3.5575
    CORREC:  cpu time      1.6296: real time      1.6306
    CHARGE:  cpu time      0.3076: real time      0.3076
    --------------------------------------------
      LOOP:  cpu time      5.9499: real time      5.9533

 eigenvalue-minimisations  :     0
 total energy-change (2. order) :-0.7376124E-04  (-0.1567310E-04)
 number of electron     111.9999999 magnetization 
 augmentation part       -0.0202193 magnetization 

 Free energy of the ion-electron system (eV)
  ---------------------------------------------------
  alpha Z        PSCENC =       100.17147629
  Ewald energy   TEWEN  =     -1306.10277904
  -Hartree energ DENC   =     -2070.53142204
  -exchange      EXHF   =         0.00000000
  -V(xc)+E(xc)   XCENC  =       338.75887540
  PAW double counting   =     47863.03214179   -47806.02306999
  entropy T*S    EENTRO =        -0.00000000
  eigenvalues    EBANDS =      -787.53877214
  atomic energy  EATOM  =      3342.66727178
  ---------------------------------------------------
  free energy    TOTEN  =      -325.56627795 eV

  energy without entropy =     -325.56627795  energy(sigma->0) =     -325.56627795


--------------------------------------------------------------------------------------------------------




--------------------------------------- Iteration      1(  16)  ---------------------------------------


    POTLOK:  cpu time      0.1238: real time      0.1238
    SETDIJ:  cpu time      0.3115: real time      0.3115
    TRIAL :  cpu time      3.5551: real time      3.5573
    CORREC:  cpu time      1.6073: real time      1.6083
    CHARGE:  cpu time      0.2991: real time      0.2991
    --------------------------------------------
      LOOP:  cpu time      5.9083: real time      5.9296

 eigenvalue-minimisations  :     0
 total energy-change (2. order) :-0.1629187E-04  (-0.4267392E-05)
 number of electron     111.9999999 magnetization 
 augmentation part       -0.0202175 magnetization 

 Free energy of the ion-electron system (eV)
  ---------------------------------------------------
  alpha Z        PSCENC =       100.17147629
  Ewald energy   TEWEN  =     -1306.10277904
  -Hartree energ DENC   =     -2070.53073611
  -exchange      EXHF   =         0.00000000
  -V(xc)+E(xc)   XCENC  =       338.75991448
  PAW double counting   =     47867.85151159   -47810.84228437
  entropy T*S    EENTRO =        -0.00000000
  eigenvalues    EBANDS =      -787.54066885
  atomic energy  EATOM  =      3342.66727178
  ---------------------------------------------------
  free energy    TOTEN  =      -325.56629424 eV

  energy without entropy =     -325.56629424  energy(sigma->0) =     -325.56629424


--------------------------------------------------------------------------------------------------------




--------------------------------------- Iteration      1(  17)  ---------------------------------------


    POTLOK:  cpu time      0.1235: real time      0.1235
    SETDIJ:  cpu time      0.3056: real time      0.3056
    TRIAL :  cpu time      3.5422: real time      3.5444
    CORREC:  cpu time      1.6798: real time      1.6809
    CHARGE:  cpu time      0.2996: real time      0.2996
    --------------------------------------------
      LOOP:  cpu time      5.9635: real time      5.9830

 eigenvalue-minimisations  :     0
 total energy-change (2. order) :-0.4278780E-05  (-0.2637951E-05)
 number of electron     111.9999999 magnetization 
 augmentation part       -0.0202277 magnetization 

 Free energy of the ion-electron system (eV)
  ---------------------------------------------------
  alpha Z        PSCENC =       100.17147629
  Ewald energy   TEWEN  =     -1306.10277904
  -Hartree energ DENC   =     -2070.52712315
  -exchange      EXHF   =         0.00000000
  -V(xc)+E(xc)   XCENC  =       338.75995167
  PAW double counting   =     47870.97717206   -47813.96782724
  entropy T*S    EENTRO =        -0.00000000
  eigenvalues    EBANDS =      -787.54444090
  atomic energy  EATOM  =      3342.66727178
  ---------------------------------------------------
  free energy    TOTEN  =      -325.56629852 eV

  energy without entropy =     -325.56629852  energy(sigma->0) =     -325.56629852


--------------------------------------------------------------------------------------------------------




--------------------------------------- Iteration      1(  18)  ---------------------------------------


    POTLOK:  cpu time      0.1234: real time      0.1234
    SETDIJ:  cpu time      0.3065: real time      0.3065
    TRIAL :  cpu time      3.5322: real time      3.5347
    CORREC:  cpu time      1.6073: real time      1.6079
    CHARGE:  cpu time      0.2991: real time      0.2996
    --------------------------------------------
      LOOP:  cpu time      5.8978: real time      5.9015

 eigenvalue-minimisations  :     0
 total energy-change (2. order) :-0.3422174E-06  (-0.1419231E-05)
 number of electron     111.9999999 magnetization 
 augmentation part       -0.0202275 magnetization 

 Free energy of the ion-electron system (eV)
  ---------------------------------------------------
  alpha Z        PSCENC =       100.17147629
  Ewald energy   TEWEN  =     -1306.10277904
  -Hartree energ DENC   =     -2070.55478224
  -exchange      EXHF   =         0.00000000
  -V(xc)+E(xc)   XCENC  =       338.76135661
  PAW double counting   =     47870.16127638   -47813.15206107
  entropy T*S    EENTRO =        -0.00000000
  eigenvalues    EBANDS =      -787.51805759
  atomic energy  EATOM  =      3342.66727178
  ---------------------------------------------------
  free energy    TOTEN  =      -325.56629887 eV

  energy without entropy =     -325.56629887  energy(sigma->0) =     -325.56629887


--------------------------------------------------------------------------------------------------------




--------------------------------------- Iteration      1(  19)  ---------------------------------------


    POTLOK:  cpu time      0.1236: real time      0.1236
    SETDIJ:  cpu time      0.3057: real time      0.3057
    TRIAL :  cpu time      3.5829: real time      3.5851
    CORREC:  cpu time      1.6076: real time      1.6081
    CHARGE:  cpu time      0.3112: real time      0.3116
    --------------------------------------------
      LOOP:  cpu time      5.9460: real time      5.9632

 eigenvalue-minimisations  :     0
 total energy-change (2. order) :-0.1355147E-05  (-0.2210286E-06)
 number of electron     111.9999999 magnetization 
 augmentation part       -0.0202249 magnetization 

 Free energy of the ion-electron system (eV)
  ---------------------------------------------------
  alpha Z        PSCENC =       100.17147629
  Ewald energy   TEWEN  =     -1306.10277904
  -Hartree energ DENC   =     -2070.52896800
  -exchange      EXHF   =         0.00000000
  -V(xc)+E(xc)   XCENC  =       338.76027364
  PAW double counting   =     47869.51012626   -47812.50080957
  entropy T*S    EENTRO =        -0.00000000
  eigenvalues    EBANDS =      -787.54289159
  atomic energy  EATOM  =      3342.66727178
  ---------------------------------------------------
  free energy    TOTEN  =      -325.56630022 eV

  energy without entropy =     -325.56630022  energy(sigma->0) =     -325.56630022


--------------------------------------------------------------------------------------------------------




--------------------------------------- Iteration      1(  20)  ---------------------------------------


    POTLOK:  cpu time      0.1631: real time      0.1631
    SETDIJ:  cpu time      0.2656: real time      0.2656
    TRIAL :  cpu time      3.5409: real time      3.5432
    CORREC:  cpu time      1.6243: real time      1.6249
    CHARGE:  cpu time      0.2993: real time      0.2997
    --------------------------------------------
      LOOP:  cpu time      5.9102: real time      5.9268

 eigenvalue-minimisations  :     0
 total energy-change (2. order) :-0.2200832E-06  (-0.6061619E-07)
 number of electron     111.9999999 magnetization 
 augmentation part       -0.0202243 magnetization 

 Free energy of the ion-electron system (eV)
  ---------------------------------------------------
  alpha Z        PSCENC =       100.17147629
  Ewald energy   TEWEN  =     -1306.10277904
  -Hartree energ DENC   =     -2070.53395373
  -exchange      EXHF   =         0.00000000
  -V(xc)+E(xc)   XCENC  =       338.76043740
  PAW double counting   =     47868.95994497   -47811.95065802
  entropy T*S    EENTRO =        -0.00000000
  eigenvalues    EBANDS =      -787.53804009
  atomic energy  EATOM  =      3342.66727178
  ---------------------------------------------------
  free energy    TOTEN  =      -325.56630044 eV

  energy without entropy =     -325.56630044  energy(sigma->0) =     -325.56630044


--------------------------------------------------------------------------------------------------------




--------------------------------------- Iteration      1(  21)  ---------------------------------------


    POTLOK:  cpu time      0.1237: real time      0.1237
    SETDIJ:  cpu time      0.3050: real time      0.3051
    TRIAL :  cpu time      3.5428: real time      3.5450
    CORREC:  cpu time      1.6099: real time      1.6106
    EDDIAG:  cpu time      0.8678: real time      0.8695
    CHARGE:  cpu time      0.2969: real time      0.2969
    --------------------------------------------
      LOOP:  cpu time      6.7750: real time      6.7797

 eigenvalue-minimisations  :     0
 total energy-change (2. order) :-0.5193579E-07  (-0.1677089E-07)
 number of electron     111.9999999 magnetization 
 augmentation part       -0.0202250 magnetization 

 Free energy of the ion-electron system (eV)
  ---------------------------------------------------
  alpha Z        PSCENC =       100.17147629
  Ewald energy   TEWEN  =     -1306.10277904
  -Hartree energ DENC   =     -2070.53513294
  -exchange      EXHF   =         0.00000000
  -V(xc)+E(xc)   XCENC  =       338.76044641
  PAW double counting   =     47868.77724541   -47811.76796637
  entropy T*S    EENTRO =        -0.00000000
  eigenvalues    EBANDS =      -787.53686204
  atomic energy  EATOM  =      3342.66727178
  ---------------------------------------------------
  free energy    TOTEN  =      -325.56630049 eV

  energy without entropy =     -325.56630049  energy(sigma->0) =     -325.56630049


--------------------------------------------------------------------------------------------------------


  average scaling for gradient   1.1951


 average (electrostatic) potential at core
  the test charge radii are     0.5770  0.4325
  (the norm of the test charge is              1.0000)
       1 -82.7322       2 -82.9598       3 -82.7500       4 -82.9598       5 -82.7499
       6 -82.9598       7 -82.7499       8 -82.7500       9 -82.9599      10 -82.7322
      11 -82.7322      12 -82.7322      13 -82.9598      14 -82.9598      15 -82.9599
      16 -82.9598      17 -82.7499      18 -82.7500      19 -82.7499      20 -82.7499
      21 -41.5935      22 -41.5973      23 -41.6102      24 -41.6170      25 -41.5955
      26 -41.5960      27 -41.6108      28 -41.6164      29 -41.5979      30 -41.6124
      31 -41.6168      32 -41.6111      33 -41.6174      34 -41.5957      35 -41.5924
      36 -41.5969      37 -41.5971      38 -41.5934      39 -41.5923      40 -41.5956
      41 -41.5979      42 -41.5972      43 -41.5958      44 -41.5962      45 -41.6112
      46 -41.6102      47 -41.6107      48 -41.6125      49 -41.6174      50 -41.6169
      51 -41.6164      52 -41.6169



 E-fermi :  -1.3328     XC(G=0):  -8.8090     alpha+bet : -7.5643

 Fermi energy:        -1.3327964765

 k-point     1 :       0.0000    0.0000    0.0000
  band No.  band energies     occupation 
      1     -17.5526      2.00000
      2     -17.4626      2.00000
      3     -14.8355      2.00000
      4     -14.7661      2.00000
      5     -14.7661      2.00000
      6     -14.7008      2.00000
      7     -14.6920      2.00000
      8     -14.6920      2.00000
      9     -12.1848      2.00000
     10     -11.9711      2.00000
     11     -11.9160      2.00000
     12     -11.9036      2.00000
     13      -9.9441      2.00000
     14      -9.7747      2.00000
     15      -9.7747      2.00000
     16      -9.7354      2.00000
     17      -9.6901      2.00000
     18      -9.6901      2.00000
     19      -8.6843      2.00000
     20      -7.9102      2.00000
     21      -6.7494      2.00000
     22      -6.5160      2.00000
     23      -6.4280      2.00000
     24      -6.3180      2.00000
     25      -6.3180      2.00000
     26      -6.2695      2.00000
     27      -6.2695      2.00000
     28      -6.1428      2.00000
     29      -5.2821      2.00000
     30      -5.1552      2.00000
     31      -5.1552      2.00000
     32      -5.1167      2.00000
     33      -4.9037      2.00000
     34      -4.9037      2.00000
     35      -4.8661      2.00000
     36      -4.4615      2.00000
     37      -4.4615      2.00000
     38      -4.3148      2.00000
     39      -4.2234      2.00000
     40      -4.2234      2.00000
     41      -3.4018      2.00000
     42      -3.1215      2.00000
     43      -3.1215      2.00000
     44      -2.8309      2.00000
     45      -2.7996      2.00000
     46      -2.7844      2.00000
     47      -2.6787      2.00000
     48      -2.6730      2.00000
     49      -2.5834      2.00000
     50      -2.5834      2.00000
     51      -2.0029      2.00000
     52      -1.6006      2.00000
     53      -1.5628      2.00000
     54      -1.5628      2.00000
     55      -1.3995      2.00000
     56      -1.3995      2.00000
     57       3.9996      0.00000
     58       5.5702      0.00000
     59       5.9259      0.00000
     60       6.0343      0.00000
     61       6.0569      0.00000
     62       6.3483      0.00000
     63       6.4262      0.00000
     64       6.4262      0.00000
     65       6.7075      0.00000
     66       7.3164      0.00000
     67       7.3164      0.00000
     68       7.5488      0.00000
     69       7.5544      0.00000
     70       7.5544      0.00000
     71       7.8045      0.00000
     72       7.8111      0.00000
     73       8.5320      0.00000
     74       8.8657      0.00000
     75       9.2119      0.00000
     76       9.2229      0.00000
     77       9.2874      0.00000
     78       9.8321      0.00000
     79       9.8858      0.00000
     80      10.0993      0.00000
     81      10.2558      0.00000
     82      10.3586      0.00000
     83      10.4772      0.00000
     84      10.7796      0.00000

 k-point     2 :       0.2500    0.0000    0.0000
  band No.  band energies     occupation 
      1     -17.5315      2.00000
      2     -17.4671      2.00000
      3     -14.8166      2.00000
      4     -14.7970      2.00000
      5     -14.7487      2.00000
      6     -14.7377      2.00000
      7     -14.7164      2.00000
      8     -14.6951      2.00000
      9     -12.1253      2.00000
     10     -11.9942      2.00000
     11     -11.9564      2.00000
     12     -11.9255      2.00000
     13      -9.8937      2.00000
     14      -9.7893      2.00000
     15      -9.7775      2.00000
     16      -9.7276      2.00000
     17      -9.7150      2.00000
     18      -9.6806      2.00000
     19      -8.5195      2.00000
     20      -7.9631      2.00000
     21      -6.6411      2.00000
     22      -6.4288      2.00000
     23      -6.4157      2.00000
     24      -6.3239      2.00000
     25      -6.3231      2.00000
     26      -6.2366      2.00000
     27      -6.1883      2.00000
     28      -6.1075      2.00000
     29      -5.1321      2.00000
     30      -5.1295      2.00000
     31      -5.1085      2.00000
     32      -5.0734      2.00000
     33      -4.9785      2.00000
     34      -4.9080      2.00000
     35      -4.9053      2.00000
     36      -4.7347      2.00000
     37      -4.5366      2.00000
     38      -4.3753      2.00000
     39      -4.3409      2.00000
     40      -4.2849      2.00000
     41      -3.2572      2.00000
     42      -3.0706      2.00000
     43      -3.0388      2.00000
     44      -2.9475      2.00000
     45      -2.8877      2.00000
     46      -2.8234      2.00000
     47      -2.7403      2.00000
     48      -2.7082      2.00000
     49      -2.6875      2.00000
     50      -2.6216      2.00000
     51      -1.8758      2.00000
     52      -1.7061      2.00000
     53      -1.6804      2.00000
     54      -1.5960      2.00000
     55      -1.4697      2.00000
     56      -1.4567      2.00000
     57       4.3517      0.00000
     58       5.7100      0.00000
     59       5.9240      0.00000
     60       6.0038      0.00000
     61       6.1893      0.00000
     62       6.4465      0.00000
     63       6.6579      0.00000
     64       6.7152      0.00000
     65       6.8020      0.00000
     66       7.1963      0.00000
     67       7.2659      0.00000
     68       7.3731      0.00000
     69       7.5920      0.00000
     70       8.0811      0.00000
     71       8.3538      0.00000
     72       8.4632      0.00000
     73       8.5032      0.00000
     74       8.5376      0.00000
     75       8.6136      0.00000
     76       9.0642      0.00000
     77       9.3476      0.00000
     78       9.5997      0.00000
     79       9.6684      0.00000
     80       9.7554      0.00000
     81       9.9331      0.00000
     82      10.5014      0.00000
     83      10.5914      0.00000
     84      10.7280      0.00000

[...]
     15      -9.7367      2.00000
     16      -9.7367      2.00000
     17      -9.6885      2.00000
     18      -9.6884      2.00000
     19      -8.0884      2.00000
     20      -8.0884      2.00000
     21      -6.4211      2.00000
     22      -6.4211      2.00000
     23      -6.3141      2.00000
     24      -6.3141      2.00000
     25      -6.1458      2.00000
     26      -6.1458      2.00000
     27      -6.0442      2.00000
     28      -6.0442      2.00000
     29      -5.2103      2.00000
     30      -5.2103      2.00000
     31      -5.1551      2.00000
     32      -5.1551      2.00000
     33      -4.9728      2.00000
     34      -4.9728      2.00000
     35      -4.9054      2.00000
     36      -4.9054      2.00000
     37      -4.5918      2.00000
     38      -4.5918      2.00000
     39      -4.3534      2.00000
     40      -4.3534      2.00000
     41      -3.2071      2.00000
     42      -3.2071      2.00000
     43      -3.0439      2.00000
     44      -3.0439      2.00000
     45      -2.8967      2.00000
     46      -2.8967      2.00000
     47      -2.8408      2.00000
     48      -2.8408      2.00000
     49      -2.6789      2.00000
     50      -2.6789      2.00000
     51      -1.9076      2.00000
     52      -1.9076      2.00000
     53      -1.6624      2.00000
     54      -1.6624      2.00000
     55      -1.5796      2.00000
     56      -1.5796      2.00000
     57       5.4415      0.00000
     58       5.4415      0.00000
     59       5.9268      0.00000
     60       5.9268      0.00000
     61       6.3615      0.00000
     62       6.3615      0.00000
     63       7.1610      0.00000
     64       7.1610      0.00000
     65       7.3068      0.00000
     66       7.3068      0.00000
     67       7.5979      0.00000
     68       7.5979      0.00000
     69       8.0154      0.00000
     70       8.0154      0.00000
     71       8.3693      0.00000
     72       8.3693      0.00000
     73       8.6098      0.00000
     74       8.6121      0.00000
     75       9.1882      0.00000
     76       9.1913      0.00000
     77       9.8361      0.00000
     78       9.8729      0.00000
     79       9.9910      0.00000
     80      10.0298      0.00000
     81      10.1864      0.00000
     82      10.2328      0.00000
     83      10.4461      0.00000
     84      10.6077      0.00000

 k-point    26 :       0.5000    0.5000    0.3333
  band No.  band energies     occupation 
      1     -17.4730      2.00000
      2     -17.4730      2.00000
      3     -14.8160      2.00000
      4     -14.8160      2.00000
      5     -14.7731      2.00000
      6     -14.7731      2.00000
      7     -14.7531      2.00000
      8     -14.7531      2.00000
      9     -12.1011      2.00000
     10     -12.1011      2.00000
     11     -11.9325      2.00000
     12     -11.9325      2.00000
     13      -9.8643      2.00000
     14      -9.8643      2.00000
     15      -9.7165      2.00000
     16      -9.7165      2.00000
     17      -9.6659      2.00000
     18      -9.6659      2.00000
     19      -8.0067      2.00000
     20      -8.0067      2.00000
     21      -6.2918      2.00000
     22      -6.2918      2.00000
     23      -6.2715      2.00000
     24      -6.2715      2.00000
     25      -6.1088      2.00000
     26      -6.1088      2.00000
     27      -6.0840      2.00000
     28      -6.0840      2.00000
     29      -5.1561      2.00000
     30      -5.1561      2.00000
     31      -5.1366      2.00000
     32      -5.1366      2.00000
     33      -5.1027      2.00000
     34      -5.1027      2.00000
     35      -4.9675      2.00000
     36      -4.9675      2.00000
     37      -4.5810      2.00000
     38      -4.5810      2.00000
     39      -4.4487      2.00000
     40      -4.4487      2.00000
     41      -3.2066      2.00000
     42      -3.2066      2.00000
     43      -3.0268      2.00000
     44      -3.0268      2.00000
     45      -2.9916      2.00000
     46      -2.9916      2.00000
     47      -2.8386      2.00000
     48      -2.8386      2.00000
     49      -2.7458      2.00000
     50      -2.7458      2.00000
     51      -1.9573      2.00000
     52      -1.9573      2.00000
     53      -1.7549      2.00000
     54      -1.7549      2.00000
     55      -1.5548      2.00000
     56      -1.5548      2.00000
     57       5.8825      0.00000
     58       5.8825      0.00000
     59       6.0727      0.00000
     60       6.0727      0.00000
     61       6.1935      0.00000
     62       6.1935      0.00000
     63       6.8956      0.00000
     64       6.8956      0.00000
     65       7.7614      0.00000
     66       7.7614      0.00000
     67       7.9181      0.00000
     68       7.9181      0.00000
     69       8.3547      0.00000
     70       8.3547      0.00000
     71       8.3688      0.00000
     72       8.3688      0.00000
     73       8.6368      0.00000
     74       8.6368      0.00000
     75       8.9253      0.00000
     76       8.9263      0.00000
     77       9.4332      0.00000
     78       9.4788      0.00000
     79      10.0297      0.00000
     80      10.0971      0.00000
     81      10.3240      0.00000
     82      10.4470      0.00000
     83      10.6044      0.00000
     84      10.6989      0.00000


--------------------------------------------------------------------------------------------------------


 soft charge-density along one line, spin component           1
         0         1         2         3         4         5         6         7         8         9
 total charge-density along one line

 pseudopotential strength for first ion, spin component:           1
 12.435  20.919  -0.000  -0.000  -0.000  -0.000  -0.000  -0.000
 20.919  35.189  -0.000  -0.000  -0.000  -0.000  -0.001  -0.000
 -0.000  -0.000  -3.167   0.000   0.000  -5.668   0.000   0.000
 -0.000  -0.000   0.000  -3.167   0.000   0.000  -5.668   0.000
 -0.000  -0.000   0.000   0.000  -3.166   0.000   0.000  -5.667
 -0.000  -0.000  -5.668   0.000   0.000 -10.122   0.000   0.000
 -0.000  -0.001   0.000  -5.668   0.000   0.000 -10.122   0.000
 -0.000  -0.000   0.000   0.000  -5.667   0.000   0.000 -10.120
 total augmentation occupancy for first ion, spin component:           1
  9.217  -3.398   0.000   0.067   0.000  -0.000  -0.002  -0.000
 -3.398   1.276  -0.000  -0.001  -0.000   0.000  -0.018   0.000
  0.000  -0.000   6.328   0.000   0.017  -2.137  -0.000  -0.001
  0.067  -0.001   0.000   6.504   0.000  -0.000  -2.200  -0.000
  0.000  -0.000   0.017   0.000   6.469  -0.001  -0.000  -2.153
 -0.000   0.000  -2.137  -0.000  -0.001   0.733   0.000  -0.002
 -0.002  -0.018  -0.000  -2.200  -0.000   0.000   0.751   0.000
 -0.000   0.000  -0.001  -0.000  -2.153  -0.002   0.000   0.721


------------------------ aborting loop because EDIFF is reached ----------------------------------------


    FORLOC:  cpu time      0.0086: real time      0.0086
    FORNL :  cpu time      0.8749: real time      0.8755
    FORCOR:  cpu time      0.4275: real time      0.4280
    OFIELD:  cpu time      0.0017: real time      0.0020

 VOLUME and BASIS-vectors are now :
 -----------------------------------------------------------------------------
  energy-cutoff  :     1000.00
  volume of cell :      393.07
      direct lattice vectors                 reciprocal lattice vectors
     6.639000000  0.000000000  0.000000000     0.150625094  0.000000000  0.000000000
     0.000000000  6.639000000  0.000000000     0.000000000  0.150625094  0.000000000
     0.000000000  0.000000000  8.918000000     0.000000000  0.000000000  0.112132765

  length of vectors
     6.639000000  6.639000000  8.918000000     0.150625094  0.150625094  0.112132765


 FORCES acting on ions:
    Electron-Ion                     Ewald-Force                    Non-Local-Force
 -----------------------------------------------------------------------------------------------
   -.872E-04 -.812E-05 -.149E+03   0.463E-05 -.407E-04 0.150E+03   0.103E-03 0.685E-04 -.428E+00
   0.143E+02 -.111E+03 -.782E+02   -.144E+02 0.112E+03 0.787E+02   0.103E+00 -.777E+00 -.562E+00
   -.907E+02 -.118E+03 0.611E+00   0.910E+02 0.118E+03 -.558E+00   -.302E+00 -.224E+00 -.499E-01
   -.143E+02 0.111E+03 -.782E+02   0.144E+02 -.112E+03 0.787E+02   -.104E+00 0.777E+00 -.562E+00
   0.118E+03 -.908E+02 -.611E+00   -.118E+03 0.910E+02 0.558E+00   0.224E+00 -.302E+00 0.500E-01
   -.111E+03 -.143E+02 0.782E+02   0.112E+03 0.144E+02 -.787E+02   -.777E+00 -.104E+00 0.562E+00
   0.907E+02 0.118E+03 0.611E+00   -.910E+02 -.118E+03 -.558E+00   0.302E+00 0.224E+00 -.500E-01
   -.118E+03 0.907E+02 -.611E+00   0.118E+03 -.910E+02 0.558E+00   -.224E+00 0.302E+00 0.499E-01
   0.111E+03 0.143E+02 0.782E+02   -.112E+03 -.144E+02 -.787E+02   0.777E+00 0.103E+00 0.562E+00
   -.114E-03 -.240E-05 0.149E+03   0.518E-04 0.190E-04 -.150E+03   0.897E-04 0.437E-04 0.428E+00
   0.347E-04 -.804E-04 0.149E+03   -.762E-05 0.167E-04 -.150E+03   0.125E-04 0.691E-04 0.428E+00
   -.540E-04 -.542E-04 -.149E+03   0.197E-05 -.256E-04 0.150E+03   0.637E-04 0.856E-04 -.428E+00
   -.143E+02 -.111E+03 0.782E+02   0.144E+02 0.112E+03 -.787E+02   -.104E+00 -.777E+00 0.562E+00
   -.111E+03 0.143E+02 -.782E+02   0.112E+03 -.144E+02 0.787E+02   -.777E+00 0.103E+00 -.562E+00
   0.143E+02 0.111E+03 0.782E+02   -.144E+02 -.112E+03 -.787E+02   0.103E+00 0.777E+00 0.562E+00
   0.111E+03 -.143E+02 -.782E+02   -.112E+03 0.144E+02 0.787E+02   0.777E+00 -.104E+00 -.562E+00
   0.907E+02 -.118E+03 -.611E+00   -.910E+02 0.118E+03 0.558E+00   0.302E+00 -.224E+00 0.499E-01
   -.118E+03 -.908E+02 0.611E+00   0.118E+03 0.910E+02 -.558E+00   -.224E+00 -.302E+00 -.499E-01
   -.907E+02 0.118E+03 -.611E+00   0.910E+02 -.118E+03 0.558E+00   -.302E+00 0.224E+00 0.500E-01
   0.118E+03 0.908E+02 0.611E+00   -.118E+03 -.910E+02 -.558E+00   0.224E+00 0.302E+00 -.500E-01
   -.374E+02 -.455E+01 -.462E+02   0.416E+02 0.511E+01 0.494E+02   -.439E+01 -.579E+00 -.336E+01
   0.571E+01 -.501E+02 -.354E+02   -.627E+01 0.544E+02 0.385E+02   0.581E+00 -.450E+01 -.319E+01
   -.506E+02 -.198E+02 -.253E+02   0.549E+02 0.205E+02 0.283E+02   -.455E+01 -.794E+00 -.311E+01
   -.515E+01 -.526E+02 0.275E+02   0.468E+01 0.569E+02 -.305E+02   0.479E+00 -.453E+01 0.313E+01
   0.374E+02 0.455E+01 -.462E+02   -.416E+02 -.511E+01 0.494E+02   0.439E+01 0.579E+00 -.336E+01
   -.571E+01 0.501E+02 -.354E+02   0.627E+01 -.544E+02 0.385E+02   -.580E+00 0.450E+01 -.319E+01
   0.198E+02 -.506E+02 0.253E+02   -.205E+02 0.549E+02 -.283E+02   0.794E+00 -.455E+01 0.311E+01
   0.526E+02 -.515E+01 -.275E+02   -.569E+02 0.468E+01 0.305E+02   0.453E+01 0.479E+00 -.313E+01
   -.501E+02 -.571E+01 0.354E+02   0.544E+02 0.627E+01 -.385E+02   -.450E+01 -.580E+00 0.319E+01
   0.506E+02 0.198E+02 -.253E+02   -.549E+02 -.205E+02 0.283E+02   0.455E+01 0.794E+00 -.311E+01
   0.515E+01 0.526E+02 0.275E+02   -.468E+01 -.569E+02 -.305E+02   -.479E+00 0.453E+01 0.313E+01
   -.198E+02 0.506E+02 0.253E+02   0.205E+02 -.549E+02 -.283E+02   -.794E+00 0.455E+01 0.311E+01
   -.526E+02 0.515E+01 -.275E+02   0.569E+02 -.468E+01 0.305E+02   -.453E+01 -.479E+00 -.313E+01
   0.501E+02 0.571E+01 0.354E+02   -.544E+02 -.627E+01 -.385E+02   0.450E+01 0.581E+00 0.319E+01
   0.455E+01 -.374E+02 0.462E+02   -.511E+01 0.416E+02 -.494E+02   0.579E+00 -.439E+01 0.336E+01
   -.455E+01 0.374E+02 0.462E+02   0.511E+01 -.416E+02 -.494E+02   -.579E+00 0.439E+01 0.336E+01
   0.374E+02 -.455E+01 0.462E+02   -.416E+02 0.511E+01 -.494E+02   0.439E+01 -.579E+00 0.336E+01
   -.455E+01 -.374E+02 -.462E+02   0.511E+01 0.416E+02 0.494E+02   -.579E+00 -.439E+01 -.336E+01
   -.374E+02 0.455E+01 0.462E+02   0.416E+02 -.511E+01 -.494E+02   -.439E+01 0.579E+00 0.336E+01
   0.455E+01 0.374E+02 -.462E+02   -.511E+01 -.416E+02 0.494E+02   0.579E+00 0.439E+01 -.336E+01
   -.571E+01 -.501E+02 0.354E+02   0.627E+01 0.544E+02 -.385E+02   -.580E+00 -.450E+01 0.319E+01
   -.501E+02 0.571E+01 -.354E+02   0.544E+02 -.627E+01 0.385E+02   -.450E+01 0.581E+00 -.319E+01
   0.571E+01 0.501E+02 0.354E+02   -.627E+01 -.544E+02 -.385E+02   0.581E+00 0.450E+01 0.319E+01
   0.501E+02 -.571E+01 -.354E+02   -.544E+02 0.627E+01 0.385E+02   0.450E+01 -.580E+00 -.319E+01
   0.506E+02 -.198E+02 0.253E+02   -.549E+02 0.205E+02 -.283E+02   0.455E+01 -.794E+00 0.311E+01
   -.198E+02 -.506E+02 -.253E+02   0.205E+02 0.549E+02 0.283E+02   -.794E+00 -.455E+01 -.311E+01
   -.506E+02 0.198E+02 0.253E+02   0.549E+02 -.205E+02 -.283E+02   -.455E+01 0.794E+00 0.311E+01
   0.198E+02 0.506E+02 -.253E+02   -.205E+02 -.549E+02 0.283E+02   0.794E+00 0.455E+01 -.311E+01
   0.515E+01 -.526E+02 -.275E+02   -.468E+01 0.569E+02 0.305E+02   -.479E+00 -.453E+01 -.313E+01
   -.526E+02 -.515E+01 0.275E+02   0.569E+02 0.468E+01 -.305E+02   -.453E+01 0.479E+00 0.313E+01
   -.515E+01 0.526E+02 -.275E+02   0.468E+01 -.569E+02 0.305E+02   0.479E+00 0.453E+01 -.313E+01
   0.526E+02 0.515E+01 0.275E+02   -.569E+02 -.468E+01 -.305E+02   0.453E+01 -.479E+00 0.313E+01
 -----------------------------------------------------------------------------------------------
   -.140E-04 -.380E-04 -.286E-04   0.711E-14 -.178E-13 -.167E-12   0.451E-03 0.439E-03 -.157E-04


 POSITION                                       TOTAL-FORCE (eV/Angst)
 -----------------------------------------------------------------------------------
      6.58155      6.58156      1.77901         0.000112      0.000155     -0.038670
      6.41735      1.19109      0.89108         0.000147     -0.034537     -0.019177
      1.02233      1.35547      8.91359        -0.026174     -0.030886      0.003564
      0.10676      5.33302      0.89108        -0.000483      0.034373     -0.019252
      5.16864      1.02233      0.00441         0.030917     -0.026184     -0.003466
      1.19109      0.10677      8.02692        -0.034517     -0.000527      0.019170
      5.50178      5.16865      8.91359         0.026249      0.030943      0.003415
      1.35546      5.50178      0.00441        -0.030853      0.026253     -0.003638
      5.33302      6.41735      8.02692         0.034396      0.000214      0.019245
      6.58155      6.58156      7.13899         0.000167      0.000154      0.038639
      3.26205      3.26206      2.67999         0.000133      0.000146      0.038658
      3.26206      3.26206      6.23801         0.000147      0.000098     -0.038637
      3.42626      4.51059      3.56792        -0.000493     -0.034507      0.019162
      4.51059      3.09785      5.35008        -0.034533      0.000163     -0.019180
      3.09785      2.01352      3.56792         0.000203      0.034411      0.019240
      2.01352      3.42627      5.35008         0.034380     -0.000492     -0.019282
      2.18228      4.67497      4.46341         0.026252     -0.030852     -0.003597
      4.67496      4.34183      4.45459        -0.030895     -0.026161      0.003592
      4.34183      1.84915      4.46341        -0.026180      0.030916     -0.003442
      1.84915      2.18228      4.45459         0.030958      0.026242      0.003469
      0.82123      0.05744      2.43500        -0.202568     -0.021996     -0.165341
      6.30173      2.08545      1.52709         0.024445     -0.221048     -0.154937
      1.92070      1.50153      0.61686        -0.218921     -0.040921     -0.140533
      0.91665      2.25503      8.28349         0.012856     -0.223198      0.144853
      5.70288      6.46667      2.43500         0.202124      0.021640     -0.165287
      0.22238      4.43867      1.52709        -0.023753      0.221168     -0.154955
      5.02259      1.92070      8.30113         0.041360     -0.218854      0.140535
      4.26908      0.91665      0.63451         0.223232      0.012712     -0.144998
      2.08545      0.22238      7.39092        -0.221069     -0.023500      0.154995
      4.60341      5.02258      0.61686         0.218779      0.041545     -0.140321
      5.60746      4.26908      8.28349        -0.013202      0.223193      0.145131
      1.50152      4.60341      8.30113        -0.040755      0.218752      0.140328
      2.25503      5.60746      0.63451        -0.223250     -0.013156     -0.144896
      4.43866      6.30173      7.39092         0.221134      0.024203      0.154913
      6.46666      0.82123      6.48300         0.021787     -0.202614      0.165361
      0.05745      5.70288      6.48300        -0.022160      0.202106      0.165317
      2.38338      3.37694      2.02400         0.202129     -0.022140      0.165298
      3.37695      4.14073      6.89400        -0.022009     -0.202545     -0.165360
      4.14073      3.14717      2.02400        -0.202629      0.021770      0.165342
      3.14716      2.38338      6.89400         0.021660      0.202113     -0.165308
      3.54188      5.40495      2.93191        -0.023511     -0.221070      0.155023
      5.40495      2.98223      5.98608        -0.221047      0.024436     -0.154917
      2.98223      1.11917      2.93191         0.024209      0.221129      0.154928
      1.11916      3.54188      5.98608         0.221169     -0.023745     -0.154926
      1.28391      4.82103      3.84214         0.218750     -0.040752      0.140295
      4.82102      5.24020      5.07587        -0.040926     -0.218927     -0.140569
      5.24020      1.70308      3.84214        -0.218852      0.041359      0.140509
      1.70309      1.28391      5.07587         0.041544      0.218782     -0.140355
      2.28796      5.57453      5.09351        -0.013155     -0.223246     -0.144904
      5.57453      4.23615      3.82449        -0.223202      0.012856      0.144849
      4.23615      0.94958      5.09351         0.012711      0.223227     -0.145002
      0.94958      2.28796      3.82449         0.223192     -0.013202      0.145118
 -----------------------------------------------------------------------------------
    total drift:                                0.000437      0.000401     -0.000044


--------------------------------------------------------------------------------------------------------



  FREE ENERGIE OF THE ION-ELECTRON SYSTEM (eV)
  ---------------------------------------------------
  free  energy   TOTEN  =      -325.56630049 eV

  energy  without entropy=     -325.56630049  energy(sigma->0) =     -325.56630049



--------------------------------------------------------------------------------------------------------


    POTLOK:  cpu time      0.4319: real time      0.4320


--------------------------------------------------------------------------------------------------------


 stress matrix after NEB project (eV)
      0.00000      0.00000      0.00000
      0.00000      0.00000      0.00000
      0.00000      0.00000      0.00000
  FORCES: max atom, RMS     0.271091    0.209944
  FORCE total and by dimension    1.513931    0.223250
  Stress total and by dimension    0.000000    0.000000
     LOOP+:  cpu time    124.8278: real time    125.1470
    4ORBIT:  cpu time      0.0000: real time      0.0000

 total amount of memory used by VASP MPI-rank0    64547. kBytes
=======================================================================

   base      :      30000. kBytes
   nonl-proj :       3694. kBytes
   fftplans  :       2235. kBytes
   grid      :       4921. kBytes
   one-center:          6. kBytes
   wavefun   :      23691. kBytes

  
  
 General timing and accounting informations for this job:
 ========================================================
  
                  Total CPU time used (sec):      133.720
                            User time (sec):      131.677
                          System time (sec):        2.043
                         Elapsed time (sec):      137.138
  
                   Maximum memory used (kb):      247040.
                   Average memory used (kb):          N/A
  
                          Minor page faults:        56190
                          Major page faults:          910
                 Voluntary context switches:         3268
