  324  324    1    1
  0.1467606E+02  0.1681582E-08  0.1681582E-08  0.1681582E-08  0.5000000E-15
   1.0000000000000000E-004
  CAR 
 unknown system                          
   1728      1   1152

  0.1262379E-14  0.1262379E-14  0.1262379E-14  0.1000000E+01
      1        -23.857144   1.000000
      2        -23.806722   1.000000
      3        -23.804669   1.000000
      4        -23.804633   1.000000
      5        -23.804486   1.000000
      6        -23.804445   1.000000
      7        -23.804417   1.000000
      8        -23.767548   1.000000
      9        -23.763692   1.000000
     10        -23.763664   1.000000
     11        -23.763580   1.000000
     12        -23.763480   1.000000
     13        -23.763434   1.000000
     14        -23.763388   1.000000
     15        -23.763359   1.000000
     16        -23.763292   1.000000
     17        -23.763183   1.000000
     18        -23.763153   1.000000
     19        -23.763056   1.000000
     20        -23.736919   1.000000
     21        -23.734547   1.000000
     22        -23.734514   1.000000
     23        -23.734397   1.000000
     24        -23.734352   1.000000
     25        -23.734294   1.000000
     26        -23.734224   1.000000
     27        -23.734142   1.000000
     28        -23.698353   1.000000
     29        -23.694197   1.000000
     30        -23.694184   1.000000
     31        -23.694089   1.000000
     32        -23.694058   1.000000
     33        -23.693992   1.000000
     34        -23.688347   1.000000
     35        -23.679623   1.000000
     36        -23.679438   1.000000
     37        -23.678954   1.000000
     38        -23.678890   1.000000
     39        -23.678859   1.000000
     40        -23.678757   1.000000
     41        -23.678748   1.000000
     42        -23.678740   1.000000
     43        -23.678717   1.000000
     44        -23.678665   1.000000
     45        -23.678654   1.000000
     46        -23.678654   1.000000
     47        -23.678631   1.000000
     48        -23.678625   1.000000
     49        -23.678598   1.000000
     50        -23.678549   1.000000
     51        -23.678542   1.000000
     52        -23.678533   1.000000
     53        -23.678483   1.000000
     54        -23.678442   1.000000
     55        -23.678411   1.000000
     56        -23.678325   1.000000
     57        -23.678308   1.000000
     58        -23.677941   1.000000
     59        -23.677579   1.000000
     60        -23.677572   1.000000
     61        -23.677482   1.000000
     62        -23.677419   1.000000
     63        -23.677387   1.000000
     64        -23.677370   1.000000
     65        -23.677317   1.000000
     66        -23.677098   1.000000
     67        -23.677080   1.000000
     68        -23.677046   1.000000
     69        -23.677023   1.000000
     70        -23.677009   1.000000
     71        -23.676954   1.000000
     72        -23.676907   1.000000
     73        -23.676834   1.000000
     74        -23.676817   1.000000
     75        -23.676799   1.000000
     76        -23.676735   1.000000
     77        -23.676709   1.000000
     78        -23.676691   1.000000
     79        -23.676281   1.000000
     80        -23.676148   1.000000
     81        -23.676139   1.000000
     82        -23.651380   1.000000
     83        -23.649303   1.000000
     84        -23.649202   1.000000
     85        -23.649078   1.000000
     86        -23.649051   1.000000
     87        -23.649017   1.000000
     88        -23.648967   1.000000
     89        -23.648912   1.000000
     90        -23.648884   1.000000
     91        -23.648876   1.000000
     92        -23.648718   1.000000
     93        -23.648685   1.000000
     94        -23.637333   1.000000
     95        -23.635689   1.000000
     96        -23.635399   1.000000
     97        -23.635257   1.000000
     98        -23.635073   1.000000
     99        -23.635057   1.000000
    100        -23.634950   1.000000
    101        -23.634926   1.000000
    102        -23.634902   1.000000
    103        -23.634808   1.000000
    104        -23.634727   1.000000
    105        -23.634701   1.000000
    106        -23.634597   1.000000
    107        -23.634384   1.000000
    108        -23.634178   1.000000
    109        -22.783993   1.000000
    110        -22.770926   1.000000
    111        -22.770800   1.000000
    112        -22.770411   1.000000
    113        -22.768565   1.000000
    114        -22.768302   1.000000
    115        -22.768139   1.000000
    116        -22.768079   1.000000
    117        -22.768072   1.000000
    118        -22.767884   1.000000
    119        -22.767707   1.000000
    120        -22.767695   1.000000
    121        -22.767645   1.000000
    122        -22.767550   1.000000
    123        -22.767402   1.000000
    124        -22.766577   1.000000
    125        -22.764880   1.000000
    126        -22.764821   1.000000
    127        -22.764683   1.000000
    128        -22.764624   1.000000
    129        -22.764582   1.000000
    130        -22.764543   1.000000
    131        -22.764503   1.000000
    132        -22.764460   1.000000
    133        -22.764432   1.000000
    134        -22.764345   1.000000
    135        -22.764312   1.000000
    136        -22.763119   1.000000
    137        -22.761221   1.000000
    138        -22.761171   1.000000
    139        -22.760879   1.000000
    140        -22.760754   1.000000
    141        -22.760698   1.000000
    142        -22.760674   1.000000
    143        -22.760627   1.000000
    144        -22.760593   1.000000
    145        -22.760561   1.000000
    146        -22.760490   1.000000
    147        -22.760457   1.000000
    148        -22.760427   1.000000
    149        -22.760345   1.000000
    150        -22.760271   1.000000
    151        -22.760223   1.000000
    152        -22.759759   1.000000
    153        -22.759085   1.000000
    154        -22.758989   1.000000
    155        -22.758824   1.000000
    156        -22.758766   1.000000
    157        -22.758705   1.000000
    158        -22.758682   1.000000
    159        -22.758659   1.000000
    160        -22.758634   1.000000
    161        -22.758623   1.000000
    162        -22.758579   1.000000
    163        -22.758562   1.000000
    164        -22.758506   1.000000
    165        -22.758433   1.000000
    166        -22.758413   1.000000
    167        -22.758390   1.000000
    168        -22.758375   1.000000
    169        -22.758356   1.000000
    170        -22.758309   1.000000
    171        -22.758296   1.000000
    172        -22.758261   1.000000
    173        -22.758236   1.000000
    174        -22.758120   1.000000
    175        -22.758086   1.000000
    176        -22.757767   1.000000
    177        -22.757570   1.000000
    178        -22.757549   1.000000
    179        -22.757509   1.000000
    180        -22.757493   1.000000
    181        -22.757343   1.000000
    182        -22.757248   1.000000
    183        -22.757199   1.000000
    184        -22.756823   1.000000
    185        -22.756779   1.000000
    186        -22.756673   1.000000
    187        -22.756547   1.000000
    188        -22.756430   1.000000
    189        -22.756412   1.000000
    190        -22.747867   1.000000
    191        -22.747146   1.000000
    192        -22.747108   1.000000
    193        -22.747002   1.000000
    194        -22.746974   1.000000
    195        -22.746886   1.000000
    196        -22.746825   1.000000
    197        -22.746757   1.000000
    198        -22.740422   1.000000
    199        -22.739196   1.000000
    200        -22.739129   1.000000
    201        -22.739101   1.000000
    202        -22.739008   1.000000
    203        -22.738964   1.000000
    204        -22.738924   1.000000
    205        -22.738892   1.000000
    206        -22.738814   1.000000
    207        -22.738695   1.000000
    208        -22.738665   1.000000
    209        -22.738562   1.000000
    210        -22.729232   1.000000
    211        -22.728494   1.000000
    212        -22.728460   1.000000
    213        -22.728318   1.000000
    214        -22.728265   1.000000
    215        -22.728192   1.000000
    216        -22.714187   1.000000
    217         -8.804403   1.000000
    218         -8.804342   1.000000
    219         -8.804330   1.000000
    220         -8.804253   1.000000
    221         -8.804227   1.000000
    222         -8.804113   1.000000
    223         -8.804079   1.000000
    224         -8.804051   1.000000
    225         -8.803964   1.000000
    226         -8.803950   1.000000
    227         -8.803939   1.000000
    228         -8.803321   1.000000
    229         -8.800827   1.000000
    230         -8.800824   1.000000
    231         -8.800755   1.000000
    232         -8.800727   1.000000
    233         -8.800722   1.000000
    234         -8.800685   1.000000
    235         -8.800644   1.000000
    236         -8.799805   1.000000
    237         -8.773027   1.000000
    238         -8.772981   1.000000
    239         -8.772962   1.000000
    240         -8.772903   1.000000
    241         -8.772864   1.000000
    242         -8.772835   1.000000
    243         -8.772766   1.000000
    244         -8.772750   1.000000
    245         -8.772682   1.000000
    246         -8.772671   1.000000
    247         -8.772640   1.000000
    248         -8.771843   1.000000
    249         -8.768026   1.000000
    250         -8.768000   1.000000
    251         -8.767909   1.000000
    252         -8.767882   1.000000
    253         -8.767855   1.000000
    254         -8.767366   1.000000
    255         -8.764086   1.000000
    256         -8.764009   1.000000
    257         -8.763935   1.000000
    258         -8.763850   1.000000
    259         -8.763839   1.000000
    260         -8.763192   1.000000
    261         -8.755491   1.000000
    262         -8.755412   1.000000
    263         -8.755304   1.000000
    264         -8.755267   1.000000
    265         -8.755226   1.000000
    266         -8.755205   1.000000
    267         -8.755137   1.000000
    268         -8.755133   1.000000
    269         -8.755089   1.000000
    270         -8.754966   1.000000
    271         -8.754948   1.000000
    272         -8.753846   1.000000
    273         -8.750639   1.000000
    274         -8.750580   1.000000
    275         -8.750519   1.000000
    276         -8.750412   1.000000
    277         -8.750386   1.000000
    278         -8.749399   1.000000
    279         -8.703748   1.000000
    280         -8.703724   1.000000
    281         -8.703635   1.000000
    282         -8.703571   1.000000
    283         -8.703525   1.000000
    284         -8.703481   1.000000
    285         -8.703455   1.000000
    286         -8.703414   1.000000
    287         -8.703364   1.000000
    288         -8.703324   1.000000
    289         -8.703285   1.000000
    290         -8.702780   1.000000
    291         -8.701399   1.000000
    292         -8.701350   1.000000
    293         -8.701247   1.000000
    294         -8.701160   1.000000
    295         -8.701107   1.000000
    296         -8.701053   1.000000
    297         -8.701009   1.000000
    298         -8.700992   1.000000
    299         -8.700970   1.000000
    300         -8.700903   1.000000
    301         -8.700855   1.000000
    302         -8.700835   1.000000
    303         -8.700638   1.000000
    304         -8.700586   1.000000
    305         -8.700575   1.000000
    306         -8.698665   1.000000
    307         -8.692671   1.000000
    308         -8.692651   1.000000
    309         -8.692160   1.000000
    310         -8.687099   1.000000
    311         -8.687051   1.000000
    312         -8.686952   1.000000
    313         -8.686897   1.000000
    314         -8.686853   1.000000
    315         -8.686226   1.000000
    316         -8.672248   1.000000
    317         -8.672206   1.000000
    318         -8.672186   1.000000
    319         -8.672112   1.000000
    320         -8.672041   1.000000
    321         -8.671995   1.000000
    322         -8.671991   1.000000
    323         -8.671036   1.000000
    324         -8.517656   1.000000
    325         -8.152741   1.000000
    326         -8.152716   1.000000
    327         -8.152565   1.000000
    328         -8.090897   1.000000
    329         -8.090834   1.000000
    330         -8.090421   1.000000
    331         -8.090288   1.000000
    332         -8.090262   1.000000
    333         -8.090239   1.000000
    334         -8.090195   1.000000
    335         -8.090133   1.000000
    336         -8.090114   1.000000
    337         -8.090079   1.000000
    338         -8.089994   1.000000
    339         -8.089972   1.000000
    340         -8.089908   1.000000
    341         -8.089852   1.000000
    342         -8.089848   1.000000
    343         -8.089813   1.000000
    344         -7.974700   1.000000
    345         -7.974638   1.000000
    346         -7.974472   1.000000
    347         -7.974350   1.000000
    348         -7.974301   1.000000
    349         -7.974285   1.000000
    350         -7.974233   1.000000
    351         -7.974108   1.000000
    352         -7.921870   1.000000
    353         -7.921833   1.000000
    354         -7.921634   1.000000
    355         -7.921624   1.000000
    356         -7.921552   1.000000
    357         -7.921484   1.000000
    358         -7.921444   1.000000
    359         -7.921438   1.000000
    360         -7.921332   1.000000
    361         -7.921304   1.000000
    362         -7.921294   1.000000
    363         -7.921274   1.000000
    364         -7.915858   1.000000
    365         -7.915817   1.000000
    366         -7.915806   1.000000
    367         -7.915586   1.000000
    368         -7.915575   1.000000
    369         -7.915388   1.000000
    370         -7.908719   1.000000
    371         -7.908685   1.000000
    372         -7.908578   1.000000
    373         -7.908489   1.000000
    374         -7.908466   1.000000
    375         -7.908324   1.000000
    376         -7.888242   1.000000
    377         -7.888198   1.000000
    378         -7.887955   1.000000
    379         -7.887928   1.000000
    380         -7.887885   1.000000
    381         -7.887859   1.000000
    382         -7.887810   1.000000
    383         -7.887790   1.000000
    384         -7.887765   1.000000
    385         -7.887746   1.000000
    386         -7.887736   1.000000
    387         -7.887632   1.000000
    388         -7.870544   1.000000
    389         -7.870496   1.000000
    390         -7.870343   1.000000
    391         -7.870330   1.000000
    392         -7.870314   1.000000
    393         -7.870294   1.000000
    394         -7.807459   1.000000
    395         -7.807379   1.000000
    396         -7.807354   1.000000
    397         -7.807243   1.000000
    398         -7.807221   1.000000
    399         -7.807198   1.000000
    400         -7.807160   1.000000
    401         -7.806997   1.000000
    402         -7.733444   1.000000
    403         -7.733422   1.000000
    404         -7.733383   1.000000
    405         -7.733206   1.000000
    406         -7.733191   1.000000
    407         -7.733145   1.000000
    408         -7.733105   1.000000
    409         -7.733050   1.000000
    410         -7.733012   1.000000
    411         -7.732954   1.000000
    412         -7.732951   1.000000
    413         -7.732773   1.000000
    414         -7.717973   1.000000
    415         -7.717838   1.000000
    416         -7.717710   1.000000
    417         -7.717499   1.000000
    418         -7.717458   1.000000
    419         -7.717445   1.000000
    420         -7.717398   1.000000
    421         -7.717360   1.000000
    422         -7.717350   1.000000
    423         -7.717317   1.000000
    424         -7.717273   1.000000
    425         -7.716916   1.000000
    426         -7.531259   1.000000
    427         -7.531073   1.000000
    428         -7.531052   1.000000
    429         -7.530907   1.000000
    430         -7.530873   1.000000
    431         -7.530507   1.000000
    432         -7.375522   1.000000
    433         -7.338842   1.000000
    434         -7.338825   1.000000
    435         -7.338129   1.000000
    436         -7.338055   1.000000
    437         -7.338021   1.000000
    438         -7.337959   1.000000
    439         -7.337036   1.000000
    440         -7.336994   1.000000
    441         -7.336683   1.000000
    442         -7.336505   1.000000
    443         -7.336487   1.000000
    444         -7.336411   1.000000
    445         -7.336400   1.000000
    446         -7.336378   1.000000
    447         -7.336358   1.000000
    448         -7.336313   1.000000
    449         -7.336285   1.000000
    450         -7.336067   1.000000
    451         -7.320999   1.000000
    452         -7.320973   1.000000
    453         -7.298442   1.000000
    454         -7.298371   1.000000
    455         -7.297983   1.000000
    456         -7.297851   1.000000
    457         -7.297841   1.000000
    458         -7.297722   1.000000
    459         -7.292351   1.000000
    460         -7.292303   1.000000
    461         -7.291804   1.000000
    462         -7.291647   1.000000
    463         -7.291626   1.000000
    464         -7.291576   1.000000
    465         -7.291572   1.000000
    466         -7.291548   1.000000
    467         -7.291508   1.000000
    468         -7.291466   1.000000
    469         -7.291452   1.000000
    470         -7.291285   1.000000
    471         -7.270657   1.000000
    472         -7.270630   1.000000
    473         -7.270335   1.000000
    474         -7.270200   1.000000
    475         -7.270194   1.000000
    476         -7.270133   1.000000
    477         -7.196139   1.000000
    478         -7.196108   1.000000
    479         -7.195927   1.000000
    480         -7.170747   1.000000
    481         -7.170647   1.000000
    482         -7.169854   1.000000
    483         -7.169563   1.000000
    484         -7.169484   1.000000
    485         -7.169462   1.000000
    486         -7.169426   1.000000
    487         -7.169341   1.000000
    488         -7.169288   1.000000
    489         -7.169267   1.000000
    490         -7.169136   1.000000
    491         -7.169077   1.000000
    492         -7.169033   1.000000
    493         -7.169004   1.000000
    494         -7.168994   1.000000
    495         -7.168968   1.000000
    496         -7.168917   1.000000
    497         -7.168914   1.000000
    498         -7.168829   1.000000
    499         -7.168616   1.000000
    500         -7.162739   1.000000
    501         -7.162692   1.000000
    502         -7.162361   1.000000
    503         -7.162251   1.000000
    504         -7.162239   1.000000
    505         -7.162185   1.000000
    506         -7.140817   1.000000
    507         -7.140765   1.000000
    508         -7.140216   1.000000
    509         -7.140072   1.000000
    510         -7.140047   1.000000
    511         -7.140005   1.000000
    512         -7.139797   1.000000
    513         -7.139756   1.000000
    514         -7.139591   1.000000
    515         -7.139493   1.000000
    516         -7.139444   1.000000
    517         -7.139404   1.000000
    518         -7.139397   1.000000
    519         -7.139389   1.000000
    520         -7.139368   1.000000
    521         -7.139334   1.000000
    522         -7.139322   1.000000
    523         -7.139209   1.000000
    524         -7.114903   1.000000
    525         -7.114870   1.000000
    526         -7.114284   1.000000
    527         -7.114004   1.000000
    528         -7.113987   1.000000
    529         -7.113956   1.000000
    530         -7.113891   1.000000
    531         -7.113883   1.000000
    532         -7.113871   1.000000
    533         -7.113842   1.000000
    534         -7.113836   1.000000
    535         -7.113811   1.000000
    536         -7.113744   1.000000
    537         -7.113723   1.000000
    538         -7.113695   1.000000
    539         -7.113486   1.000000
    540         -7.068541   1.000000
    541         -7.068534   1.000000
    542         -7.067797   1.000000
    543         -7.067717   1.000000
    544         -7.067674   1.000000
    545         -7.067640   1.000000
    546         -7.067617   1.000000
    547         -7.067593   1.000000
    548         -7.067573   1.000000
    549         -7.067528   1.000000
    550         -7.067509   1.000000
    551         -7.067481   1.000000
    552         -7.051443   1.000000
    553         -7.051414   1.000000
    554         -7.051231   1.000000
    555         -7.051159   1.000000
    556         -7.051038   1.000000
    557         -7.051010   1.000000
    558         -7.050929   1.000000
    559         -7.050882   1.000000
    560         -7.023656   1.000000
    561         -7.023594   1.000000
    562         -7.022781   1.000000
    563         -7.022689   1.000000
    564         -7.022674   1.000000
    565         -7.022641   1.000000
    566         -7.022631   1.000000
    567         -7.022610   1.000000
    568         -7.022592   1.000000
    569         -7.022584   1.000000
    570         -7.022529   1.000000
    571         -7.022505   1.000000
    572         -7.004422   1.000000
    573         -7.004407   1.000000
    574         -7.003396   1.000000
    575         -7.003348   1.000000
    576         -7.003238   1.000000
    577         -7.003170   1.000000
    578         -7.003147   1.000000
    579         -7.003140   1.000000
    580         -7.003087   1.000000
    581         -7.003060   1.000000
    582         -7.003045   1.000000
    583         -7.003007   1.000000
    584         -7.002986   1.000000
    585         -7.002916   1.000000
    586         -7.002829   1.000000
    587         -7.002795   1.000000
    588         -6.947016   1.000000
    589         -6.946942   1.000000
    590         -6.946172   1.000000
    591         -6.946060   1.000000
    592         -6.946018   1.000000
    593         -6.945953   1.000000
    594         -6.945938   1.000000
    595         -6.945934   1.000000
    596         -6.945871   1.000000
    597         -6.945838   1.000000
    598         -6.945822   1.000000
    599         -6.945748   1.000000
    600         -6.930720   1.000000
    601         -6.930651   1.000000
    602         -6.930241   1.000000
    603         -6.930172   1.000000
    604         -6.930149   1.000000
    605         -6.930090   1.000000
    606         -6.866345   1.000000
    607         -6.866253   1.000000
    608         -6.865690   1.000000
    609         -6.865531   1.000000
    610         -6.865516   1.000000
    611         -6.865412   1.000000
    612         -6.864159   1.000000
    613         -6.864142   1.000000
    614         -6.863411   1.000000
    615         -6.863355   1.000000
    616         -6.863270   1.000000
    617         -6.863182   1.000000
    618         -6.863126   1.000000
    619         -6.863116   1.000000
    620         -6.863083   1.000000
    621         -6.863058   1.000000
    622         -6.863042   1.000000
    623         -6.863009   1.000000
    624         -6.862962   1.000000
    625         -6.862859   1.000000
    626         -6.862810   1.000000
    627         -6.862785   1.000000
    628         -6.823248   1.000000
    629         -6.823185   1.000000
    630         -6.822877   1.000000
    631         -6.822720   1.000000
    632         -6.822704   1.000000
    633         -6.822626   1.000000
    634         -6.815962   1.000000
    635         -6.815919   1.000000
    636         -6.815271   1.000000
    637         -6.815225   1.000000
    638         -6.815209   1.000000
    639         -6.815150   1.000000
    640         -6.815108   1.000000
    641         -6.815102   1.000000
    642         -6.815037   1.000000
    643         -6.814995   1.000000
    644         -6.814984   1.000000
    645         -6.814937   1.000000
    646         -6.715994   1.000000
    647         -6.715964   1.000000
    648         -6.715766   1.000000
    649         -4.236110   1.000000
    650         -4.236106   1.000000
    651         -4.236034   1.000000
    652         -4.059438   1.000000
    653         -4.059403   1.000000
    654         -4.059354   1.000000
    655         -4.059282   1.000000
    656         -4.059269   1.000000
    657         -4.059193   1.000000
    658         -4.052204   1.000000
    659         -4.052193   1.000000
    660         -4.052123   1.000000
    661         -4.052061   1.000000
    662         -4.052031   1.000000
    663         -4.052014   1.000000
    664         -4.028015   1.000000
    665         -4.028005   1.000000
    666         -4.027928   1.000000
    667         -4.027881   1.000000
    668         -4.027858   1.000000
    669         -4.027826   1.000000
    670         -3.950434   1.000000
    671         -3.950405   1.000000
    672         -3.950382   1.000000
    673         -3.950287   1.000000
    674         -3.950255   1.000000
    675         -3.950244   1.000000
    676         -3.950235   1.000000
    677         -3.950212   1.000000
    678         -3.950198   1.000000
    679         -3.950162   1.000000
    680         -3.950103   1.000000
    681         -3.950073   1.000000
    682         -3.922418   1.000000
    683         -3.922375   1.000000
    684         -3.922313   1.000000
    685         -3.922276   1.000000
    686         -3.922252   1.000000
    687         -3.922215   1.000000
    688         -3.922159   1.000000
    689         -3.922148   1.000000
    690         -3.922120   1.000000
    691         -3.922062   1.000000
    692         -3.922048   1.000000
    693         -3.921998   1.000000
    694         -3.911574   1.000000
    695         -3.911534   1.000000
    696         -3.911450   1.000000
    697         -3.911437   1.000000
    698         -3.911396   1.000000
    699         -3.911341   1.000000
    700         -3.911306   1.000000
    701         -3.911275   1.000000
    702         -3.911245   1.000000
    703         -3.911189   1.000000
    704         -3.911172   1.000000
    705         -3.911113   1.000000
    706         -3.876219   1.000000
    707         -3.876142   1.000000
    708         -3.876130   1.000000
    709         -3.876072   1.000000
    710         -3.875948   1.000000
    711         -3.875923   1.000000
    712         -3.875876   1.000000
    713         -3.875838   1.000000
    714         -3.862538   1.000000
    715         -3.862374   1.000000
    716         -3.862261   1.000000
    717         -3.862245   1.000000
    718         -3.862163   1.000000
    719         -3.862133   1.000000
    720         -3.862127   1.000000
    721         -3.862084   1.000000
    722         -3.862063   1.000000
    723         -3.862033   1.000000
    724         -3.862006   1.000000
    725         -3.861960   1.000000
    726         -3.861903   1.000000
    727         -3.861850   1.000000
    728         -3.861747   1.000000
    729         -3.861704   1.000000
    730         -3.735520   1.000000
    731         -3.735445   1.000000
    732         -3.735374   1.000000
    733         -3.735352   1.000000
    734         -3.735270   1.000000
    735         -3.735231   1.000000
    736         -3.735180   1.000000
    737         -3.735147   1.000000
    738         -3.735111   1.000000
    739         -3.735083   1.000000
    740         -3.735045   1.000000
    741         -3.735016   1.000000
    742         -3.731673   1.000000
    743         -3.731613   1.000000
    744         -3.731579   1.000000
    745         -3.731524   1.000000
    746         -3.731458   1.000000
    747         -3.731428   1.000000
    748         -3.731371   1.000000
    749         -3.731344   1.000000
    750         -3.731320   1.000000
    751         -3.731294   1.000000
    752         -3.731255   1.000000
    753         -3.731191   1.000000
    754         -3.731161   1.000000
    755         -3.731118   1.000000
    756         -3.731096   1.000000
    757         -3.731063   1.000000
    758         -3.725801   1.000000
    759         -3.725733   1.000000
    760         -3.725687   1.000000
    761         -3.725649   1.000000
    762         -3.725569   1.000000
    763         -3.725517   1.000000
    764         -3.725501   1.000000
    765         -3.725446   1.000000
    766         -3.714698   1.000000
    767         -3.714652   1.000000
    768         -3.714580   1.000000
    769         -3.714493   1.000000
    770         -3.714488   1.000000
    771         -3.714439   1.000000
    772         -3.710900   1.000000
    773         -3.710806   1.000000
    774         -3.710783   1.000000
    775         -3.710687   1.000000
    776         -3.710643   1.000000
    777         -3.710604   1.000000
    778         -3.688767   1.000000
    779         -3.688641   1.000000
    780         -3.688581   1.000000
    781         -3.688548   1.000000
    782         -3.688534   1.000000
    783         -3.688427   1.000000
    784         -3.688398   1.000000
    785         -3.688380   1.000000
    786         -3.688377   1.000000
    787         -3.688347   1.000000
    788         -3.688285   1.000000
    789         -3.688279   1.000000
    790         -3.688239   1.000000
    791         -3.688232   1.000000
    792         -3.688154   1.000000
    793         -3.688139   1.000000
    794         -3.681987   1.000000
    795         -3.681882   1.000000
    796         -3.681862   1.000000
    797         -3.681841   1.000000
    798         -3.681781   1.000000
    799         -3.681744   1.000000
    800         -3.681696   1.000000
    801         -3.681680   1.000000
    802         -3.681639   1.000000
    803         -3.681607   1.000000