 vasp.6.4.1 05Apr23 (build Jun  6 2023 14:46:38) gamma-only                      
 executed on        HPECrayEX_GCC date 2024.08.20  18:02:14
 running  256 mpi-ranks, with    1 threads/rank, on    2 nodes
 distrk:  each k-point on  128 cores,    2 groups
 distr:  one band on NCORE=  32 cores,    4 groups


--------------------------------------------------------------------------------------------------------


 INCAR:
   ALGO = Conjugate
   KPAR = 2
   NCORE = 32
   ISMEAR = 0
   SIGMA = 0.01
   PREC = Accurate
   EDIFF = 1E-7
   ENCUT = 1000
   ISIF = 0
   METAGGA = R2SCAN
   LASPH = .TRUE.
   SYMPREC = 1E-7
   LWAVE = .FALSE.
   LCHARG = .FALSE.
   LWAVE = .FALSE.
   LCHARG = .FALSE.

 POTCAR:    PAW_PBE C_h 06Feb2004                 
 POTCAR:    PAW_PBE H_h 06Feb2004                 
 POTCAR:    PAW_PBE O_h 06Feb2004                 
 POTCAR:    PAW_PBE C_h 06Feb2004                 
   VRHFIN =C: s2p2                                                                                  
   LEXCH  = PE                                                                                      
   EATOM  =   147.1560 eV,   10.8157 Ry                                                             
                                                                                                    
   TITEL  = PAW_PBE C_h 06Feb2004                                                                   
   LULTRA =        F    use ultrasoft PP ?                                                          
   IUNSCR =        1    unscreen: 0-lin 1-nonlin 2-no                                               
   RPACOR =    0.800    partial core radius                                                         
   POMASS =   12.011; ZVAL   =    4.000    mass and valenz                                          
   RCORE  =    1.100    outmost cutoff radius                                                       
   RWIGS  =    1.630; RWIGS  =    0.863    wigner-seitz radius (au A)                               
   ENMAX  =  700.000; ENMIN  =  500.000 eV                                                          
   ICORE  =        2    local potential                                                             
   LCOR   =        T    correct aug charges                                                         
   LPAW   =        T    paw PP                                                                      
   EAUG   =  946.768                                                                                
   DEXC   =    0.000                                                                                
   RMAX   =    1.128    core radius for proj-oper                                                   
   RAUG   =    1.300    factor for augmentation sphere                                              
   RDEP   =    1.162    radius for radial grids                                                     
   RDEPT  =    1.088    core radius for aug-charge                                                  
                                                                                                    
   Atomic configuration                                                                             
    4 entries                                                                                       
     n  l   j            E        occ.                                                              
     1  0  0.50      -273.3789   2.0000                                                             
     2  0  0.50       -13.7508   2.0000                                                             
     2  1  0.50        -5.2854   2.0000                                                             
     3  2  1.50        -5.4423   0.0000                                                             
   Description                                                                                      
     l       E           TYP  RCUT    TYP  RCUT                                                     
     0    -13.7508458     23  1.100                                                                 
     0     -8.2022199     23  1.100                                                                 
     1     -5.2854383     23  1.100                                                                 
     1      1.1560700     23  1.100                                                                 
     2     -5.4423304      7  1.100                                                                 
  local pseudopotential read in
  partial core-charges read in
  partial kinetic energy density read in
  atomic valenz-charges read in
  non local Contribution for L=           0  read in
    real space projection operators read in
  non local Contribution for L=           0  read in
    real space projection operators read in
  non local Contribution for L=           1  read in
    real space projection operators read in
  non local Contribution for L=           1  read in
    real space projection operators read in
    PAW grid and wavefunctions read in

   number of l-projection  operators is LMAX  =           4
   number of lm-projection operators is LMMAX =           8

 POTCAR:    PAW_PBE H_h 06Feb2004                 
   VRHFIN =H: ultrasoft test                                                                        
   LEXCH  = PE                                                                                      
   EATOM  =    12.4884 eV,    0.9179 Ry                                                             
                                                                                                    
   TITEL  = PAW_PBE H_h 06Feb2004                                                                   
   LULTRA =        F    use ultrasoft PP ?                                                          
   IUNSCR =        0    unscreen: 0-lin 1-nonlin 2-no                                               
   RPACOR =    0.000    partial core radius                                                         
   POMASS =    1.000; ZVAL   =    1.000    mass and valenz                                          
   RCORE  =    0.800    outmost cutoff radius                                                       
   RWIGS  =    0.700; RWIGS  =    0.370    wigner-seitz radius (au A)                               
   ENMAX  =  700.000; ENMIN  =  350.000 eV                                                          
   RCLOC  =    0.701    cutoff for local pot                                                        
   LCOR   =        T    correct aug charges                                                         
   LPAW   =        T    paw PP                                                                      
   EAUG   = 1000.000                                                                                
   RMAX   =    0.819    core radius for proj-oper                                                   
   RAUG   =    1.000    factor for augmentation sphere                                              
   RDEP   =    0.817    radius for radial grids                                                     
   RDEPT  =    0.817    core radius for aug-charge                                                  
                                                                                                    
   Atomic configuration                                                                             
    2 entries                                                                                       
     n  l   j            E        occ.                                                              
     1  0  0.50        -6.4927   1.0000                                                             
     2  1  0.50        -3.4015   0.0000                                                             
   Description                                                                                      
     l       E           TYP  RCUT    TYP  RCUT                                                     
     0     -6.4927493     23  0.800                                                                 
     0      6.8029130     23  0.800                                                                 
     1     -6.8029130     23  0.800                                                                 
  local pseudopotential read in
  atomic valenz-charges read in
  non local Contribution for L=           0  read in
    real space projection operators read in
  non local Contribution for L=           0  read in
    real space projection operators read in
  non local Contribution for L=           1  read in
    real space projection operators read in
    PAW grid and wavefunctions read in

   number of l-projection  operators is LMAX  =           3
   number of lm-projection operators is LMMAX =           5

 POTCAR:    PAW_PBE O_h 06Feb2004                 
   VRHFIN =O: s2p4                                                                                  
   LEXCH  = PE                                                                                      
   EATOM  =   432.3788 eV,   31.7789 Ry                                                             
                                                                                                    
   TITEL  = PAW_PBE O_h 06Feb2004                                                                   
   LULTRA =        F    use ultrasoft PP ?                                                          
   IUNSCR =        1    unscreen: 0-lin 1-nonlin 2-no                                               
   RPACOR =    0.800    partial core radius                                                         
   POMASS =   16.000; ZVAL   =    6.000    mass and valenz                                          
   RCORE  =    1.100    outmost cutoff radius                                                       
   RWIGS  =    1.400; RWIGS  =    0.741    wigner-seitz radius (au A)                               
   ENMAX  =  700.000; ENMIN  =  500.000 eV                                                          
   ICORE  =        2    local potential                                                             
   LCOR   =        T    correct aug charges                                                         
   LPAW   =        T    paw PP                                                                      
   EAUG   =  888.804                                                                                
   DEXC   =    0.000                                                                                
   RMAX   =    1.128    core radius for proj-oper                                                   
   RAUG   =    1.300    factor for augmentation sphere                                              
   RDEP   =    1.125    radius for radial grids                                                     
   RDEPT  =    1.088    core radius for aug-charge                                                  
                                                                                                    
   Atomic configuration                                                                             
    4 entries                                                                                       
     n  l   j            E        occ.                                                              
     1  0  0.50      -514.6923   2.0000                                                             
     2  0  0.50       -23.9615   2.0000                                                             
     2  1  0.50        -9.0305   4.0000                                                             
     3  2  1.50        -9.5241   0.0000                                                             
   Description                                                                                      
     l       E           TYP  RCUT    TYP  RCUT                                                     
     0    -23.9615319     23  1.100                                                                 
     0    -25.3221145     23  1.100                                                                 
     1     -9.0304911     23  1.100                                                                 
     1     -5.4802209     23  1.100                                                                 
     2     -9.5240782      7  1.100                                                                 
  local pseudopotential read in
  partial core-charges read in
  partial kinetic energy density read in
  atomic valenz-charges read in
  non local Contribution for L=           0  read in
    real space projection operators read in
  non local Contribution for L=           0  read in
    real space projection operators read in
  non local Contribution for L=           1  read in
    real space projection operators read in
  non local Contribution for L=           1  read in
    real space projection operators read in
    PAW grid and wavefunctions read in

   number of l-projection  operators is LMAX  =           4
   number of lm-projection operators is LMMAX =           8

  PAW_PBE C_h 06Feb2004                 :
 energy of atom  1       EATOM= -147.1560
 kinetic energy error for atom=    0.0031 (will be added to EATOM!!)
  PAW_PBE H_h 06Feb2004                 :
 energy of atom  2       EATOM=  -12.4884
 kinetic energy error for atom=    0.0006 (will be added to EATOM!!)
  PAW_PBE O_h 06Feb2004                 :
 energy of atom  3       EATOM= -432.3788
 kinetic energy error for atom=    0.0171 (will be added to EATOM!!)


 POSCAR:  C  H  O
  positions in cartesian coordinates
  No initial velocities read in

 METAGGA = R2SCAN                                      LMAXTAU =  6    LMIXTAU =  F

 exchange correlation table for  LEXCH =        8
   RHO(1)=    0.500       N(1)  =     2000
   RHO(2)=  100.500       N(2)  =     4000

 VTST: version 4.1, (05/19/21)

 CHAIN: initializing optimizer
 
 OPT: Using VASP Dynamics algorithm
 CHAIN: Read ICHAIN            0

 POSCAR:  C  H  O
  positions in cartesian coordinates
  No initial velocities read in



--------------------------------------------------------------------------------------------------------


 ion  position               nearest neighbor table
   1  0.468  0.431  0.490-  14 1.10   9 1.10   6 1.52   2 1.53
   2  0.546  0.441  0.476-   7 1.10   8 1.10   5 1.52   1 1.53
   3  0.524  0.565  0.527-  11 1.10  10 1.10   5 1.52   4 1.53
   4  0.462  0.565  0.475-  13 1.10  12 1.10   6 1.52   3 1.53
   5  0.577  0.506  0.513-  15 1.22   3 1.52   2 1.52
   6  0.424  0.495  0.472-  16 1.22   4 1.52   1 1.52
   7  0.578  0.395  0.490-   2 1.10
   8  0.555  0.449  0.419-   2 1.10
   9  0.460  0.421  0.547-   1 1.10
  10  0.504  0.556  0.581-   3 1.10
  11  0.553  0.615  0.529-   3 1.10
  12  0.482  0.576  0.422-   4 1.10
  13  0.424  0.607  0.487-   4 1.10
  14  0.446  0.385  0.463-   1 1.10
  15  0.638  0.510  0.529-   5 1.22
  16  0.362  0.491  0.456-   6 1.22

  LATTYP: Found a simple cubic cell.
 ALAT       =    19.0000000000
  
  Lattice vectors:
  
 A1 = (  19.0000000000,   0.0000000000,   0.0000000000)
 A2 = (   0.0000000000,  19.0000000000,   0.0000000000)
 A3 = (   0.0000000000,   0.0000000000,  19.0000000000)


Analysis of symmetry for initial positions (statically):
=====================================================================
 Subroutine PRICEL returns:
 Original cell was already a primitive cell.
 

 Routine SETGRP: Setting up the symmetry group for a 
 simple cubic supercell.


 Subroutine GETGRP returns: Found  1 space group operations
 (whereof  1 operations were pure point group operations)
 out of a pool of 48 trial point group operations.


The static configuration has the point symmetry C_1 .


Analysis of symmetry for dynamics (positions and initial velocities):
=====================================================================
 Subroutine PRICEL returns:
 Original cell was already a primitive cell.
 

 Routine SETGRP: Setting up the symmetry group for a 
 simple cubic supercell.


 Subroutine GETGRP returns: Found  1 space group operations
 (whereof  1 operations were pure point group operations)
 out of a pool of 48 trial point group operations.


The dynamic configuration has the point symmetry C_1 .


 Subroutine INISYM returns: Found  1 space group operations
 (whereof  1 operations are pure point group operations),
 and found     1 'primitive' translations


----------------------------------------------------------------------------------------

                                     Primitive cell                                     

  volume of cell :    6859.0000

  direct lattice vectors                    reciprocal lattice vectors
    19.000000000  0.000000000  0.000000000     0.052631579  0.000000000  0.000000000
     0.000000000 19.000000000  0.000000000     0.000000000  0.052631579  0.000000000
     0.000000000  0.000000000 19.000000000     0.000000000  0.000000000  0.052631579

  length of vectors
    19.000000000 19.000000000 19.000000000     0.052631579  0.052631579  0.052631579

  position of ions in fractional coordinates (direct lattice)
     0.467657632  0.430856316  0.490464737
     0.546345526  0.441397368  0.475616842
     0.524165000  0.564554737  0.527456842
     0.462351842  0.565372105  0.475490000
     0.576522895  0.505776316  0.512554211
     0.423647105  0.495302632  0.472283684
     0.577802895  0.395359474  0.490258947
     0.554550789  0.449438947  0.418711579
     0.459683421  0.420717895  0.547066842
     0.504267632  0.555811579  0.581288421
     0.552589211  0.614700000  0.528557895
     0.482036579  0.576012632  0.421921053
     0.424217632  0.606936316  0.487380000
     0.445973421  0.385300000  0.462578947
     0.638223947  0.509963158  0.529104211
     0.361776053  0.491088947  0.456380000

  ion indices of the primitive-cell ions
   primitive index   ion index
                 1           1
                 2           2
                 3           3
                 4           4
                 5           5
                 6           6
                 7           7
                 8           8
                 9           9
                10          10
                11          11
                12          12
                13          13
                14          14
                15          15
                16          16

----------------------------------------------------------------------------------------



 KPOINTS: auto                                    

Automatic generation of k-mesh.
 Grid dimensions read from file:
 generate k-points for:    1    1    1

 Generating k-lattice:

  Cartesian coordinates                     Fractional coordinates (reciprocal lattice)
     0.052631579  0.000000000  0.000000000     1.000000000  0.000000000  0.000000000
     0.000000000  0.052631579  0.000000000     0.000000000  1.000000000  0.000000000
     0.000000000  0.000000000  0.052631579     0.000000000  0.000000000  1.000000000

  Length of vectors
     0.052631579  0.052631579  0.052631579

  Shift w.r.t. Gamma in fractional coordinates (k-lattice)
     0.000000000  0.000000000  0.000000000

 
 Subroutine IBZKPT returns following result:
 ===========================================
 
 Found      1 irreducible k-points:
 
 Following reciprocal coordinates:
            Coordinates               Weight
  0.000000  0.000000  0.000000      1.000000
 
 Following cartesian coordinates:
            Coordinates               Weight
  0.000000  0.000000  0.000000      1.000000
 


--------------------------------------------------------------------------------------------------------




 Dimension of arrays:
   k-points           NKPTS =      1   k-points in BZ     NKDIM =      1   number of bands    NBANDS=     32
   number of dos      NEDOS =    301   number of ions     NIONS =     16
   non local maximal  LDIM  =      4   non local SUM 2l+1 LMDIM =      8
   total plane-waves  NPLWV = ******
   max r-space proj   IRMAX =      1   max aug-charges    IRDMAX=   8205
   dimension x,y,z NGX =   196 NGY =  196 NGZ =  196
   dimension x,y,z NGXF=   392 NGYF=  392 NGZF=  392
   support grid    NGXF=   392 NGYF=  392 NGZF=  392
   ions per type =               6   8   2
   NGX,Y,Z   is equivalent  to a cutoff of  17.15, 17.15, 17.15 a.u.
   NGXF,Y,Z  is equivalent  to a cutoff of  34.30, 34.30, 34.30 a.u.

 SYSTEM =  unknown system                          
 POSCAR =   C  H  O                                

 Startparameter for this run:
   NWRITE =      2    write-flag & timer
   PREC   = accura    normal or accurate (medium, high low for compatibility)
   ISTART =      0    job   : 0-new  1-cont  2-samecut
   ICHARG =      2    charge: 1-file 2-atom 10-const
   ISPIN  =      1    spin polarized calculation?
   LNONCOLLINEAR =      F non collinear calculations
   LSORBIT =      F    spin-orbit coupling
   INIWAV =      1    electr: 0-lowe 1-rand  2-diag
   LASPH  =      T    aspherical Exc in radial PAW
 Electronic Relaxation 1
   ENCUT  = 1000.0 eV  73.50 Ry    8.57 a.u.  48.99 48.99 48.99*2*pi/ulx,y,z
   ENINI  = 1000.0     initial cutoff
   ENAUG  = 1000.0 eV  augmentation charge cutoff
   NELM   =     60;   NELMIN=  2; NELMDL= -5     # of ELM steps 
   EDIFF  = 0.1E-06   stopping-criterion for ELM
   LREAL  =      F    real-space projection
   NLSPLINE    = F    spline interpolate recip. space projectors
   LCOMPAT=      F    compatible to vasp.4.4
   GGA_COMPAT  = T    GGA compatible to vasp.4.4-vasp.4.6
   LMAXPAW     = -100 max onsite density
   LMAXMIX     =    2 max onsite mixed and CHGCAR
   VOSKOWN=      0    Vosko Wilk Nusair interpolation
   ROPT   =    0.00000   0.00000   0.00000
 Ionic relaxation
   EDIFFG = 0.1E-05   stopping-criterion for IOM
   NSW    =      0    number of steps for IOM
   NBLOCK =      1;   KBLOCK =      1    inner block; outer block 
   IBRION =     -1    ionic relax: 0-MD 1-quasi-New 2-CG
   NFREE  =      0    steps in history (QN), initial steepest desc. (CG)
   ISIF   =      0    stress and relaxation
   IWAVPR =     10    prediction:  0-non 1-charg 2-wave 3-comb
   ISYM   =      2    0-nonsym 1-usesym 2-fastsym
   LCORR  =      T    Harris-Foulkes like correction to forces

   POTIM  = 0.5000    time-step for ionic-motion
   TEIN   =    0.0    initial temperature
   TEBEG  =    0.0;   TEEND  =   0.0 temperature during run
   SMASS  =  -3.00    Nose mass-parameter (am)
   estimated Nose-frequenzy (Omega)   =  0.10E-29 period in steps = 0.13E+47 mass=  -0.825E-26a.u.
   SCALEE = 1.0000    scale energy and forces
   NPACO  =    256;   APACO  = 10.0  distance and # of slots for P.C.
   PSTRESS=    0.0 pullay stress

  Mass of Ions in am
   POMASS =  12.01  1.00 16.00
  Ionic Valenz
   ZVAL   =   4.00  1.00  6.00
  Atomic Wigner-Seitz radii
   RWIGS  =  -1.00 -1.00 -1.00
  virtual crystal weights 
   VCA    =   1.00  1.00  1.00
   NELECT =      44.0000    total number of electrons
   NUPDOWN=      -1.0000    fix difference up-down

 DOS related values:
   EMIN   =  10.00;   EMAX   =-10.00  energy-range for DOS
   EFERMI =   0.00;   METHOD = LEGACY      
   ISMEAR =     0;   SIGMA  =   0.01  broadening in eV -4-tet -1-fermi 0-gaus

 Electronic relaxation 2 (details)
   IALGO  =     58    algorithm
   LDIAG  =      T    sub-space diagonalisation (order eigenvalues)
   LSUBROT=      F    optimize rotation matrix (better conditioning)
   TURBO    =      0    0=normal 1=particle mesh
   IRESTART =      0    0=no restart 2=restart with 2 vectors
   NREBOOT  =      0    no. of reboots
   NMIN     =      0    reboot dimension
   EREF     =   0.00    reference energy to select bands
   IMIX   =      4    mixing-type and parameters
     AMIX     =   0.40;   BMIX     =  1.00
     AMIX_MAG =   1.60;   BMIX_MAG =  1.00
     AMIN     =   0.10
     WC   =   100.;   INIMIX=   1;  MIXPRE=   1;  MAXMIX= -45

 Intra band minimization:
   WEIMIN = 0.0000     energy-eigenvalue tresh-hold
   EBREAK =  0.78E-09  absolut break condition
   DEPER  =   0.30     relativ break condition  

   TIME   =   0.40     timestep for ELM

  volume/ion in A,a.u.               =     428.69      2892.93
  Fermi-wavevector in a.u.,A,eV,Ry     =   0.304186  0.574828  1.258933  0.092529
  Thomas-Fermi vector in A             =   1.176043

 Write flags
   LWAVE        =      F    write WAVECAR
   LDOWNSAMPLE  =      F    k-point downsampling of WAVECAR
   LCHARG       =      F    write CHGCAR
   LVTOT        =      F    write LOCPOT, total local potential
   LVHAR        =      F    write LOCPOT, Hartree potential only
   LELF         =      F    write electronic localiz. function (ELF)
   LORBIT       =      0    0 simple, 1 ext, 2 COOP (PROOUT), +10 PAW based schemes


 Dipole corrections
   LMONO  =      F    monopole corrections only (constant potential shift)
   LDIPOL =      F    correct potential (dipole corrections)
   IDIPOL =      0    1-x, 2-y, 3-z, 4-all directions 
   EPSILON=  1.0000000 bulk dielectric constant

 Exchange correlation treatment:
   GGA     =    --    GGA type
   LEXCH   =     8    internal setting for exchange type
   LIBXC   =     F    Libxc                    
   VOSKOWN =     0    Vosko Wilk Nusair interpolation
   LHFCALC =     F    Hartree Fock is set to
   LHFONE  =     F    Hartree Fock one center treatment
   AEXX    =    0.0000 exact exchange contribution

 Linear response parameters
   LEPSILON=     F    determine dielectric tensor
   LRPA    =     F    only Hartree local field effects (RPA)
   LNABLA  =     F    use nabla operator in PAW spheres
   LVEL    =     F    velocity operator in full k-point grid
   CSHIFT  =0.1000    complex shift for real part using Kramers Kronig
   OMEGAMAX=  -1.0    maximum frequency
   DEG_THRESHOLD= 0.2000000E-02 threshold for treating states as degnerate
   RTIME   =   -0.100 relaxation time in fs
  (WPLASMAI=    0.000 imaginary part of plasma frequency in eV, 0.658/RTIME)
   DFIELD  = 0.0000000 0.0000000 0.0000000 field for delta impulse in time

  Optional k-point grid parameters
   LKPOINTS_OPT  =     F    use optional k-point grid
   KPOINTS_OPT_MODE=     1    mode for optional k-point grid

 Orbital magnetization related:
   ORBITALMAG=     F  switch on orbital magnetization
   LCHIMAG   =     F  perturbation theory with respect to B field
   DQ        =  0.001000  dq finite difference perturbation B field
   LLRAUG    =     F  two centre corrections for induced B field
   LBONE     =     F  B-component reconstruction in AE one-centre
   LVGVCALC  =     T  calculate vGv susceptibility
   LVGVAPPL  =     F  apply vGv susceptibility instead of pGv for G=0

 Random number generation:
   RANDOM_GENERATOR = DEFAULT
   PCG_SEED         = not used


--------------------------------------------------------------------------------------------------------


 Static calculation
 charge density and potential will be updated during run
 non-spin polarized calculation
 Conjugate gradient for all bands (Freysoldt, et al. PRB 79, 241103 (2009))
 preconditioned conjugated gradient                                        
 perform sub-space diagonalisation
    before iterative eigenvector-optimisation
 modified Broyden-mixing scheme, WC =      100.0
 initial mixing is a Kerker type mixing with AMIX =  0.4000 and BMIX =      1.0000
 Hartree-type preconditioning will be used
 using additional bands           10
 reciprocal scheme for non local part
 use partial core corrections
 no Harris-corrections to forces 
 use gradient corrections 
 use of overlap-Matrix (Vanderbilt PP)
 Gauss-broadening in eV      SIGMA  =   0.01


--------------------------------------------------------------------------------------------------------


  energy-cutoff  :     1000.00
  volume of cell :     6859.00
      direct lattice vectors                 reciprocal lattice vectors
    19.000000000  0.000000000  0.000000000     0.052631579  0.000000000  0.000000000
     0.000000000 19.000000000  0.000000000     0.000000000  0.052631579  0.000000000
     0.000000000  0.000000000 19.000000000     0.000000000  0.000000000  0.052631579

  length of vectors
    19.000000000 19.000000000 19.000000000     0.052631579  0.052631579  0.052631579



 k-points in units of 2pi/SCALE and weight: auto                                    
   0.00000000  0.00000000  0.00000000       1.000

 k-points in reciprocal lattice and weights: auto                                    
   0.00000000  0.00000000  0.00000000       1.000

 position of ions in fractional coordinates (direct lattice) 
   0.46765763  0.43085632  0.49046474
   0.54634553  0.44139737  0.47561684
   0.52416500  0.56455474  0.52745684
   0.46235184  0.56537211  0.47549000
   0.57652289  0.50577632  0.51255421
   0.42364711  0.49530263  0.47228368
   0.57780289  0.39535947  0.49025895
   0.55455079  0.44943895  0.41871158
   0.45968342  0.42071789  0.54706684
   0.50426763  0.55581158  0.58128842
   0.55258921  0.61470000  0.52855789
   0.48203658  0.57601263  0.42192105
   0.42421763  0.60693632  0.48738000
   0.44597342  0.38530000  0.46257895
   0.63822395  0.50996316  0.52910421
   0.36177605  0.49108895  0.45638000

 position of ions in cartesian coordinates  (Angst):
   8.88549500  8.18627000  9.31883000
  10.38056500  8.38655000  9.03672000
   9.95913500 10.72654000 10.02168000
   8.78468500 10.74207000  9.03431000
  10.95393500  9.60975000  9.73853000
   8.04929500  9.41075000  8.97339000
  10.97825500  7.51183000  9.31492000
  10.53646500  8.53934000  7.95552000
   8.73398500  7.99364000 10.39427000
   9.58108500 10.56042000 11.04448000
  10.49919500 11.67930000 10.04260000
   9.15869500 10.94424000  8.01650000
   8.06013500 11.53179000  9.26022000
   8.47349500  7.32070000  8.78900000
  12.12625500  9.68930000 10.05298000
   6.87374500  9.33069000  8.67122000



--------------------------------------------------------------------------------------------------------


 use parallel FFT for orbitals z direction half grid
 k-point   1 :   0.0000 0.0000 0.0000  plane waves:  246089

 maximum and minimum number of plane-waves per node :      7700     7677

 maximum number of plane-waves:    246089
 maximum index in each direction: 
   IXMAX=   48   IYMAX=   48   IZMAX=   48
   IXMIN=  -48   IYMIN=  -48   IZMIN=    0


 parallel 3D FFT for wavefunctions:
    minimum data exchange during FFTs selected (reduces bandwidth)
 parallel 3D FFT for charge:
    minimum data exchange during FFTs selected (reduces bandwidth)


 total amount of memory used by VASP MPI-rank0   125310. kBytes
=======================================================================

   base      :      30000. kBytes
   nonl-proj :       3440. kBytes
   fftplans  :      25107. kBytes
   grid      :      63813. kBytes
   one-center:          1. kBytes
   wavefun   :       2949. kBytes

     INWAV:  cpu time      0.0001: real time      0.0004
 Broyden mixing: mesh for mixing (old mesh)
   NGX = 97   NGY = 97   NGZ = 97
  (NGX  =392   NGY  =392   NGZ  =392)
  gives a total of 912673 points

 initial charge density was supplied:
 charge density of overlapping atoms calculated
 number of electron      44.0000000 magnetization 
 keeping initial charge density in first step


--------------------------------------------------------------------------------------------------------


 Maximum index for augmentation-charges          366 (set IRDMAX)


--------------------------------------------------------------------------------------------------------


 First call to EWALD:  gamma=   0.093
 Maximum number of real-space cells 3x 3x 3
 Maximum number of reciprocal cells 3x 3x 3

    FEWALD:  cpu time      0.0028: real time      0.0028


--------------------------------------- Ionic step        1  -------------------------------------------




--------------------------------------- Iteration      1(   1)  ---------------------------------------


    POTLOK:  cpu time      1.6609: real time      1.6615
    SETDIJ:  cpu time      0.2586: real time      0.2586
    TRIAL :  cpu time      3.1286: real time      3.1317
    CORREC:  cpu time      0.0007: real time      0.0007
    --------------------------------------------
      LOOP:  cpu time      5.0591: real time      5.0630

 eigenvalue-minimisations  :    80
 total energy-change (2. order) : 0.4807166E+03  (-0.1287835E+04)
 number of electron      44.0000000 magnetization 
 augmentation part       44.0000000 magnetization 

 Free energy of the ion-electron system (eV)
  ---------------------------------------------------
  alpha Z        PSCENC =         0.85132753
  Ewald energy   TEWEN  =      3249.38137581
  -Hartree energ DENC   =     -4582.57818006
  -exchange      EXHF   =         0.00000000
  -V(xc)+E(xc)   XCENC  =       148.66457452
  PAW double counting   =      1351.71984331    -1342.11182432
  entropy T*S    EENTRO =        -0.00000000
  eigenvalues    EBANDS =      -192.75371341
  atomic energy  EATOM  =      1847.54323162
  ---------------------------------------------------
  free energy    TOTEN  =       480.71663501 eV

  energy without entropy =      480.71663501  energy(sigma->0) =      480.71663501


--------------------------------------------------------------------------------------------------------




--------------------------------------- Iteration      1(   2)  ---------------------------------------


    TRIAL :  cpu time      3.8087: real time      3.8108
    CORREC:  cpu time      0.0001: real time      0.0001
    --------------------------------------------
      LOOP:  cpu time      3.8218: real time      3.8386

 eigenvalue-minimisations  :   112
 total energy-change (2. order) :-0.2890639E+03  (-0.2713519E+03)
 number of electron      44.0000000 magnetization 
 augmentation part       44.0000000 magnetization 

 Free energy of the ion-electron system (eV)
  ---------------------------------------------------
  alpha Z        PSCENC =         0.85132753
  Ewald energy   TEWEN  =      3249.38137581
  -Hartree energ DENC   =     -4582.57818006
  -exchange      EXHF   =         0.00000000
  -V(xc)+E(xc)   XCENC  =       148.66457452
  PAW double counting   =      1351.71984331    -1342.11182432
  entropy T*S    EENTRO =        -0.00000000
  eigenvalues    EBANDS =      -481.81758002
  atomic energy  EATOM  =      1847.54323162
  ---------------------------------------------------
  free energy    TOTEN  =       191.65276840 eV

  energy without entropy =      191.65276840  energy(sigma->0) =      191.65276840


--------------------------------------------------------------------------------------------------------




--------------------------------------- Iteration      1(   3)  ---------------------------------------


    TRIAL :  cpu time      3.4233: real time      3.4256
    CORREC:  cpu time      0.0001: real time      0.0001
    --------------------------------------------
      LOOP:  cpu time      3.4357: real time      3.4537

 eigenvalue-minimisations  :    96
 total energy-change (2. order) :-0.2276468E+03  (-0.2250794E+03)
 number of electron      44.0000000 magnetization 
 augmentation part       44.0000000 magnetization 

 Free energy of the ion-electron system (eV)
  ---------------------------------------------------
  alpha Z        PSCENC =         0.85132753
  Ewald energy   TEWEN  =      3249.38137581
  -Hartree energ DENC   =     -4582.57818006
  -exchange      EXHF   =         0.00000000
  -V(xc)+E(xc)   XCENC  =       148.66457452
  PAW double counting   =      1351.71984331    -1342.11182432
  entropy T*S    EENTRO =        -0.00000000
  eigenvalues    EBANDS =      -709.46440690
  atomic energy  EATOM  =      1847.54323162
  ---------------------------------------------------
  free energy    TOTEN  =       -35.99405848 eV

  energy without entropy =      -35.99405848  energy(sigma->0) =      -35.99405848


--------------------------------------------------------------------------------------------------------




--------------------------------------- Iteration      1(   4)  ---------------------------------------


    TRIAL :  cpu time      3.4247: real time      3.4264
    CORREC:  cpu time      0.0001: real time      0.0001
    --------------------------------------------
      LOOP:  cpu time      3.4370: real time      3.4555

 eigenvalue-minimisations  :    96
 total energy-change (2. order) :-0.8153885E+02  (-0.8025633E+02)
 number of electron      44.0000000 magnetization 
 augmentation part       44.0000000 magnetization 

 Free energy of the ion-electron system (eV)
  ---------------------------------------------------
  alpha Z        PSCENC =         0.85132753
  Ewald energy   TEWEN  =      3249.38137581
  -Hartree energ DENC   =     -4582.57818006
  -exchange      EXHF   =         0.00000000
  -V(xc)+E(xc)   XCENC  =       148.66457452
  PAW double counting   =      1351.71984331    -1342.11182432
  entropy T*S    EENTRO =        -0.00000000
  eigenvalues    EBANDS =      -791.00325830
  atomic energy  EATOM  =      1847.54323162
  ---------------------------------------------------
  free energy    TOTEN  =      -117.53290988 eV

  energy without entropy =     -117.53290988  energy(sigma->0) =     -117.53290988


--------------------------------------------------------------------------------------------------------




--------------------------------------- Iteration      1(   5)  ---------------------------------------


    TRIAL :  cpu time      3.0678: real time      3.0696
    CORREC:  cpu time      0.0001: real time      0.0001
    CHARGE:  cpu time      0.4434: real time      0.4450
    --------------------------------------------
      LOOP:  cpu time      3.5240: real time      3.5428

 eigenvalue-minimisations  :    80
 total energy-change (2. order) :-0.6845551E+01  (-0.6833155E+01)
 number of electron      44.0000000 magnetization 
 augmentation part        0.0837774 magnetization 

 Free energy of the ion-electron system (eV)
  ---------------------------------------------------
  alpha Z        PSCENC =         0.85132753
  Ewald energy   TEWEN  =      3249.38137581
  -Hartree energ DENC   =     -4582.57818006
  -exchange      EXHF   =         0.00000000
  -V(xc)+E(xc)   XCENC  =       148.66457452
  PAW double counting   =      1351.71984331    -1342.11182432
  entropy T*S    EENTRO =        -0.00000000
  eigenvalues    EBANDS =      -797.84880911
  atomic energy  EATOM  =      1847.54323162
  ---------------------------------------------------
  free energy    TOTEN  =      -124.37846069 eV

  energy without entropy =     -124.37846069  energy(sigma->0) =     -124.37846069


--------------------------------------------------------------------------------------------------------




--------------------------------------- Iteration      1(   6)  ---------------------------------------


    POTLOK:  cpu time      1.6287: real time      1.6289
    SETDIJ:  cpu time      0.2631: real time      0.2633
    TRIAL :  cpu time      2.6224: real time      2.6249
    CORREC:  cpu time      2.9886: real time      2.9907
    CHARGE:  cpu time      0.4204: real time      0.4208
    --------------------------------------------
      LOOP:  cpu time      7.9457: real time      7.9571

 eigenvalue-minimisations  :     0
 total energy-change (2. order) : 0.2751692E+02  (-0.5464505E+01)
 number of electron      44.0000000 magnetization 
 augmentation part        0.0561762 magnetization 

 Free energy of the ion-electron system (eV)
  ---------------------------------------------------
  alpha Z        PSCENC =         0.85132753
  Ewald energy   TEWEN  =      3249.38137581
  -Hartree energ DENC   =     -4917.78480580
  -exchange      EXHF   =         0.00000000
  -V(xc)+E(xc)   XCENC  =       170.42975331
  PAW double counting   =     22130.61714765   -22122.02016658
  entropy T*S    EENTRO =        -0.00000000
  eigenvalues    EBANDS =      -455.87940543
  atomic energy  EATOM  =      1847.54323162
  ---------------------------------------------------
  free energy    TOTEN  =       -96.86154188 eV

  energy without entropy =      -96.86154188  energy(sigma->0) =      -96.86154188


--------------------------------------------------------------------------------------------------------




--------------------------------------- Iteration      1(   7)  ---------------------------------------


    POTLOK:  cpu time      1.6358: real time      1.6360
    SETDIJ:  cpu time      0.2634: real time      0.2637
    TRIAL :  cpu time      2.6156: real time      2.6169
    CORREC:  cpu time      2.9912: real time      2.9925
    CHARGE:  cpu time      0.4204: real time      0.4208
    --------------------------------------------
      LOOP:  cpu time      7.9382: real time      7.9576

 eigenvalue-minimisations  :     0
 total energy-change (2. order) :-0.5494326E+01  (-0.8887409E+00)
 number of electron      44.0000000 magnetization 
 augmentation part        0.0386050 magnetization 

 Free energy of the ion-electron system (eV)
  ---------------------------------------------------
  alpha Z        PSCENC =         0.85132753
  Ewald energy   TEWEN  =      3249.38137581
  -Hartree energ DENC   =     -4779.57071316
  -exchange      EXHF   =         0.00000000
  -V(xc)+E(xc)   XCENC  =       163.06933123
  PAW double counting   =     24230.49049312   -24220.89899608
  entropy T*S    EENTRO =        -0.00000000
  eigenvalues    EBANDS =      -593.22191817
  atomic energy  EATOM  =      1847.54323162
  ---------------------------------------------------
  free energy    TOTEN  =      -102.35586809 eV

  energy without entropy =     -102.35586809  energy(sigma->0) =     -102.35586809


--------------------------------------------------------------------------------------------------------




--------------------------------------- Iteration      1(   8)  ---------------------------------------


    POTLOK:  cpu time      1.6360: real time      1.6363
    SETDIJ:  cpu time      0.2666: real time      0.2668
    TRIAL :  cpu time      2.6146: real time      2.6158
    CORREC:  cpu time      2.9944: real time      2.9957
    CHARGE:  cpu time      0.4245: real time      0.4250
    --------------------------------------------
      LOOP:  cpu time      7.9478: real time      7.9679

 eigenvalue-minimisations  :     0
 total energy-change (2. order) :-0.8940993E+00  (-0.3517480E+00)
 number of electron      44.0000000 magnetization 
 augmentation part        0.0426307 magnetization 

 Free energy of the ion-electron system (eV)
  ---------------------------------------------------
  alpha Z        PSCENC =         0.85132753
  Ewald energy   TEWEN  =      3249.38137581
  -Hartree energ DENC   =     -4779.43572128
  -exchange      EXHF   =         0.00000000
  -V(xc)+E(xc)   XCENC  =       163.09005452
  PAW double counting   =     25258.79693539   -25249.17715525
  entropy T*S    EENTRO =        -0.00000000
  eigenvalues    EBANDS =      -594.30001569
  atomic energy  EATOM  =      1847.54323162
  ---------------------------------------------------
  free energy    TOTEN  =      -103.24996735 eV

  energy without entropy =     -103.24996735  energy(sigma->0) =     -103.24996735


--------------------------------------------------------------------------------------------------------




--------------------------------------- Iteration      1(   9)  ---------------------------------------


    POTLOK:  cpu time      1.6377: real time      1.6380
    SETDIJ:  cpu time      0.2851: real time      0.2853
    TRIAL :  cpu time      2.6144: real time      2.6155
    CORREC:  cpu time      2.9844: real time      2.9860
    CHARGE:  cpu time      0.4216: real time      0.4220
    --------------------------------------------
      LOOP:  cpu time      7.9755: real time      7.9947

 eigenvalue-minimisations  :     0
 total energy-change (2. order) :-0.3514376E+00  (-0.1591889E+00)
 number of electron      44.0000000 magnetization 
 augmentation part        0.0444480 magnetization 

 Free energy of the ion-electron system (eV)
  ---------------------------------------------------
  alpha Z        PSCENC =         0.85132753
  Ewald energy   TEWEN  =      3249.38137581
  -Hartree energ DENC   =     -4783.12806473
  -exchange      EXHF   =         0.00000000
  -V(xc)+E(xc)   XCENC  =       163.11465789
  PAW double counting   =     26629.90353212   -26620.27181896
  entropy T*S    EENTRO =        -0.00000000
  eigenvalues    EBANDS =      -590.99564622
  atomic energy  EATOM  =      1847.54323162
  ---------------------------------------------------
  free energy    TOTEN  =      -103.60140493 eV

  energy without entropy =     -103.60140493  energy(sigma->0) =     -103.60140493


--------------------------------------------------------------------------------------------------------




--------------------------------------- Iteration      1(  10)  ---------------------------------------


    POTLOK:  cpu time      1.6337: real time      1.6339
    SETDIJ:  cpu time      0.2668: real time      0.2670
    TRIAL :  cpu time      2.6124: real time      2.6137
    CORREC:  cpu time      2.9851: real time      2.9867
    CHARGE:  cpu time      0.4238: real time      0.4241
    --------------------------------------------
      LOOP:  cpu time      7.9502: real time      7.9542

 eigenvalue-minimisations  :     0
 total energy-change (2. order) :-0.1577120E+00  (-0.5845272E-01)
 number of electron      44.0000000 magnetization 
 augmentation part        0.0465704 magnetization 

 Free energy of the ion-electron system (eV)
  ---------------------------------------------------
  alpha Z        PSCENC =         0.85132753
  Ewald energy   TEWEN  =      3249.38137581
  -Hartree energ DENC   =     -4777.01825965
  -exchange      EXHF   =         0.00000000
  -V(xc)+E(xc)   XCENC  =       162.94114817
  PAW double counting   =     27042.76356159   -27033.12394190
  entropy T*S    EENTRO =        -0.00000000
  eigenvalues    EBANDS =      -597.09756014
  atomic energy  EATOM  =      1847.54323162
  ---------------------------------------------------
  free energy    TOTEN  =      -103.75911695 eV

  energy without entropy =     -103.75911695  energy(sigma->0) =     -103.75911695


--------------------------------------------------------------------------------------------------------




--------------------------------------- Iteration      1(  11)  ---------------------------------------


    POTLOK:  cpu time      1.6376: real time      1.6378
    SETDIJ:  cpu time      0.2627: real time      0.2630
    TRIAL :  cpu time      2.6113: real time      2.6124
    CORREC:  cpu time      2.9841: real time      2.9860
    CHARGE:  cpu time      0.4201: real time      0.4205
    --------------------------------------------
      LOOP:  cpu time      7.9295: real time      7.9480

 eigenvalue-minimisations  :     0
 total energy-change (2. order) :-0.5819853E-01  (-0.1949712E-01)
 number of electron      44.0000000 magnetization 
 augmentation part        0.0475890 magnetization 

 Free energy of the ion-electron system (eV)
  ---------------------------------------------------
  alpha Z        PSCENC =         0.85132753
  Ewald energy   TEWEN  =      3249.38137581
  -Hartree energ DENC   =     -4773.43088402
  -exchange      EXHF   =         0.00000000
  -V(xc)+E(xc)   XCENC  =       162.91266005
  PAW double counting   =     26764.57349014   -26754.95973591
  entropy T*S    EENTRO =        -0.00000000
  eigenvalues    EBANDS =      -600.68878071
  atomic energy  EATOM  =      1847.54323162
  ---------------------------------------------------
  free energy    TOTEN  =      -103.81731548 eV

  energy without entropy =     -103.81731548  energy(sigma->0) =     -103.81731548


--------------------------------------------------------------------------------------------------------




--------------------------------------- Iteration      1(  12)  ---------------------------------------


    POTLOK:  cpu time      1.6364: real time      1.6367
    SETDIJ:  cpu time      0.2646: real time      0.2648
    TRIAL :  cpu time      2.6121: real time      2.6135
    CORREC:  cpu time      2.9865: real time      2.9880
    CHARGE:  cpu time      0.4205: real time      0.4209
    --------------------------------------------
      LOOP:  cpu time      7.9365: real time      7.9530

 eigenvalue-minimisations  :     0
 total energy-change (2. order) :-0.1945298E-01  (-0.6012085E-02)
 number of electron      44.0000000 magnetization 
 augmentation part        0.0474515 magnetization 

 Free energy of the ion-electron system (eV)
  ---------------------------------------------------
  alpha Z        PSCENC =         0.85132753
  Ewald energy   TEWEN  =      3249.38137581
  -Hartree energ DENC   =     -4773.26353642
  -exchange      EXHF   =         0.00000000
  -V(xc)+E(xc)   XCENC  =       162.88783846
  PAW double counting   =     26531.27785354   -26521.66710695
  entropy T*S    EENTRO =        -0.00000000
  eigenvalues    EBANDS =      -600.84775206
  atomic energy  EATOM  =      1847.54323162
  ---------------------------------------------------
  free energy    TOTEN  =      -103.83676846 eV

  energy without entropy =     -103.83676846  energy(sigma->0) =     -103.83676846


--------------------------------------------------------------------------------------------------------




--------------------------------------- Iteration      1(  13)  ---------------------------------------


    POTLOK:  cpu time      1.6359: real time      1.6362
    SETDIJ:  cpu time      0.2663: real time      0.2663
    TRIAL :  cpu time      2.6141: real time      2.6161
    CORREC:  cpu time      2.9843: real time      2.9863
    CHARGE:  cpu time      0.4185: real time      0.4188
    --------------------------------------------
      LOOP:  cpu time      7.9309: real time      7.9519

 eigenvalue-minimisations  :     0
 total energy-change (2. order) :-0.6006451E-02  (-0.2127271E-02)
 number of electron      44.0000000 magnetization 
 augmentation part        0.0475924 magnetization 

 Free energy of the ion-electron system (eV)
  ---------------------------------------------------
  alpha Z        PSCENC =         0.85132753
  Ewald energy   TEWEN  =      3249.38137581
  -Hartree energ DENC   =     -4773.31373379
  -exchange      EXHF   =         0.00000000
  -V(xc)+E(xc)   XCENC  =       162.86558245
  PAW double counting   =     26390.43991615   -26380.82560580
  entropy T*S    EENTRO =        -0.00000000
  eigenvalues    EBANDS =      -600.78486889
  atomic energy  EATOM  =      1847.54323162
  ---------------------------------------------------
  free energy    TOTEN  =      -103.84277492 eV

  energy without entropy =     -103.84277492  energy(sigma->0) =     -103.84277492


--------------------------------------------------------------------------------------------------------




--------------------------------------- Iteration      1(  14)  ---------------------------------------


    POTLOK:  cpu time      1.6322: real time      1.6325
    SETDIJ:  cpu time      0.2705: real time      0.2705
    TRIAL :  cpu time      2.6169: real time      2.6190
    CORREC:  cpu time      2.9845: real time      2.9865
    CHARGE:  cpu time      0.4220: real time      0.4220
    --------------------------------------------
      LOOP:  cpu time      7.9402: real time      7.9589

 eigenvalue-minimisations  :     0
 total energy-change (2. order) :-0.2126562E-02  (-0.8241713E-03)
 number of electron      44.0000000 magnetization 
 augmentation part        0.0476083 magnetization 

 Free energy of the ion-electron system (eV)
  ---------------------------------------------------
  alpha Z        PSCENC =         0.85132753
  Ewald energy   TEWEN  =      3249.38137581
  -Hartree energ DENC   =     -4773.18058347
  -exchange      EXHF   =         0.00000000
  -V(xc)+E(xc)   XCENC  =       162.86017784
  PAW double counting   =     26292.39898354   -26282.78645232
  entropy T*S    EENTRO =        -0.00000000
  eigenvalues    EBANDS =      -600.91296203
  atomic energy  EATOM  =      1847.54323162
  ---------------------------------------------------
  free energy    TOTEN  =      -103.84490148 eV

  energy without entropy =     -103.84490148  energy(sigma->0) =     -103.84490148


--------------------------------------------------------------------------------------------------------




--------------------------------------- Iteration      1(  15)  ---------------------------------------


    POTLOK:  cpu time      1.6360: real time      1.6368
    SETDIJ:  cpu time      0.2664: real time      0.2664
    TRIAL :  cpu time      2.6175: real time      2.6193
    CORREC:  cpu time      2.9921: real time      2.9940
    CHARGE:  cpu time      0.4241: real time      0.4241
    --------------------------------------------
      LOOP:  cpu time      7.9485: real time      7.9692

 eigenvalue-minimisations  :     0
 total energy-change (2. order) :-0.8242780E-03  (-0.3299143E-03)
 number of electron      44.0000000 magnetization 
 augmentation part        0.0476860 magnetization 

 Free energy of the ion-electron system (eV)
  ---------------------------------------------------
  alpha Z        PSCENC =         0.85132753
  Ewald energy   TEWEN  =      3249.38137581
  -Hartree energ DENC   =     -4773.25260979
  -exchange      EXHF   =         0.00000000
  -V(xc)+E(xc)   XCENC  =       162.85624871
  PAW double counting   =     26232.10035341   -26222.48702301
  entropy T*S    EENTRO =        -0.00000000
  eigenvalues    EBANDS =      -600.83863005
  atomic energy  EATOM  =      1847.54323162
  ---------------------------------------------------
  free energy    TOTEN  =      -103.84572576 eV

  energy without entropy =     -103.84572576  energy(sigma->0) =     -103.84572576


--------------------------------------------------------------------------------------------------------




--------------------------------------- Iteration      1(  16)  ---------------------------------------


    POTLOK:  cpu time      1.6342: real time      1.6348
    SETDIJ:  cpu time      0.2656: real time      0.2656
    TRIAL :  cpu time      2.6066: real time      2.6088
    CORREC:  cpu time      2.9922: real time      2.9940
    CHARGE:  cpu time      0.4210: real time      0.4211
    --------------------------------------------
      LOOP:  cpu time      7.9332: real time      7.9524

 eigenvalue-minimisations  :     0
 total energy-change (2. order) :-0.3307435E-03  (-0.1233723E-03)
 number of electron      44.0000000 magnetization 
 augmentation part        0.0477539 magnetization 

 Free energy of the ion-electron system (eV)
  ---------------------------------------------------
  alpha Z        PSCENC =         0.85132753
  Ewald energy   TEWEN  =      3249.38137581
  -Hartree energ DENC   =     -4773.44038858
  -exchange      EXHF   =         0.00000000
  -V(xc)+E(xc)   XCENC  =       162.86157995
  PAW double counting   =     26196.47031970   -26186.85727833
  entropy T*S    EENTRO =        -0.00000000
  eigenvalues    EBANDS =      -600.65622421
  atomic energy  EATOM  =      1847.54323162
  ---------------------------------------------------
  free energy    TOTEN  =      -103.84605650 eV

  energy without entropy =     -103.84605650  energy(sigma->0) =     -103.84605650


--------------------------------------------------------------------------------------------------------




--------------------------------------- Iteration      1(  17)  ---------------------------------------


    POTLOK:  cpu time      1.6349: real time      1.6357
    SETDIJ:  cpu time      0.2671: real time      0.2671
    TRIAL :  cpu time      2.6141: real time      2.6159
    CORREC:  cpu time      2.9924: real time      2.9945
    CHARGE:  cpu time      0.4195: real time      0.4196
    --------------------------------------------
      LOOP:  cpu time      7.9433: real time      7.9610

 eigenvalue-minimisations  :     0
 total energy-change (2. order) :-0.1242359E-03  (-0.4159464E-04)
 number of electron      44.0000000 magnetization 
 augmentation part        0.0477675 magnetization 

 Free energy of the ion-electron system (eV)
  ---------------------------------------------------
  alpha Z        PSCENC =         0.85132753
  Ewald energy   TEWEN  =      3249.38137581
  -Hartree energ DENC   =     -4773.41827391
  -exchange      EXHF   =         0.00000000
  -V(xc)+E(xc)   XCENC  =       162.86149088
  PAW double counting   =     26186.19367242   -26176.58068788
  entropy T*S    EENTRO =        -0.00000000
  eigenvalues    EBANDS =      -600.67831721
  atomic energy  EATOM  =      1847.54323162
  ---------------------------------------------------
  free energy    TOTEN  =      -103.84618073 eV

  energy without entropy =     -103.84618073  energy(sigma->0) =     -103.84618073


--------------------------------------------------------------------------------------------------------




--------------------------------------- Iteration      1(  18)  ---------------------------------------


    POTLOK:  cpu time      1.6320: real time      1.6328
    SETDIJ:  cpu time      0.2690: real time      0.2690
    TRIAL :  cpu time      2.6139: real time      2.6158
    CORREC:  cpu time      2.9848: real time      2.9864
    CHARGE:  cpu time      0.4194: real time      0.4194
    --------------------------------------------
      LOOP:  cpu time      7.9469: real time      7.9513

 eigenvalue-minimisations  :     0
 total energy-change (2. order) :-0.4188008E-04  (-0.1257708E-04)
 number of electron      44.0000000 magnetization 
 augmentation part        0.0477737 magnetization 

 Free energy of the ion-electron system (eV)
  ---------------------------------------------------
  alpha Z        PSCENC =         0.85132753
  Ewald energy   TEWEN  =      3249.38137581
  -Hartree energ DENC   =     -4773.44354012
  -exchange      EXHF   =         0.00000000
  -V(xc)+E(xc)   XCENC  =       162.86274285
  PAW double counting   =     26191.53528884   -26181.92209086
  entropy T*S    EENTRO =        -0.00000000
  eigenvalues    EBANDS =      -600.65455829
  atomic energy  EATOM  =      1847.54323162
  ---------------------------------------------------
  free energy    TOTEN  =      -103.84622261 eV

  energy without entropy =     -103.84622261  energy(sigma->0) =     -103.84622261


--------------------------------------------------------------------------------------------------------




--------------------------------------- Iteration      1(  19)  ---------------------------------------


    POTLOK:  cpu time      1.6365: real time      1.6373
    SETDIJ:  cpu time      0.2652: real time      0.2652
    TRIAL :  cpu time      2.6158: real time      2.6180
    CORREC:  cpu time      2.9857: real time      2.9875
    CHARGE:  cpu time      0.4217: real time      0.4217
    --------------------------------------------
      LOOP:  cpu time      7.9418: real time      7.9578

 eigenvalue-minimisations  :     0
 total energy-change (2. order) :-0.1265037E-04  (-0.3591525E-05)
 number of electron      44.0000000 magnetization 
 augmentation part        0.0477591 magnetization 

 Free energy of the ion-electron system (eV)
  ---------------------------------------------------
  alpha Z        PSCENC =         0.85132753
  Ewald energy   TEWEN  =      3249.38137581
  -Hartree energ DENC   =     -4773.46926887
  -exchange      EXHF   =         0.00000000
  -V(xc)+E(xc)   XCENC  =       162.86459257
  PAW double counting   =     26199.68269847   -26190.06960742
  entropy T*S    EENTRO =        -0.00000000
  eigenvalues    EBANDS =      -600.63058499
  atomic energy  EATOM  =      1847.54323162
  ---------------------------------------------------
  free energy    TOTEN  =      -103.84623527 eV

  energy without entropy =     -103.84623527  energy(sigma->0) =     -103.84623527


--------------------------------------------------------------------------------------------------------




--------------------------------------- Iteration      1(  20)  ---------------------------------------


    POTLOK:  cpu time      1.6330: real time      1.6339
    SETDIJ:  cpu time      0.2654: real time      0.2654
    TRIAL :  cpu time      2.6133: real time      2.6150
    CORREC:  cpu time      2.9864: real time      2.9888
    CHARGE:  cpu time      0.4208: real time      0.4209
    --------------------------------------------
      LOOP:  cpu time      7.9324: real time      7.9522

 eigenvalue-minimisations  :     0
 total energy-change (2. order) :-0.3626465E-05  (-0.1367195E-05)
 number of electron      44.0000000 magnetization 
 augmentation part        0.0477591 magnetization 

 Free energy of the ion-electron system (eV)
  ---------------------------------------------------
  alpha Z        PSCENC =         0.85132753
  Ewald energy   TEWEN  =      3249.38137581
  -Hartree energ DENC   =     -4773.44467865
  -exchange      EXHF   =         0.00000000
  -V(xc)+E(xc)   XCENC  =       162.86373692
  PAW double counting   =     26206.25752852   -26196.64431696
  entropy T*S    EENTRO =        -0.00000000
  eigenvalues    EBANDS =      -600.65444368
  atomic energy  EATOM  =      1847.54323162
  ---------------------------------------------------
  free energy    TOTEN  =      -103.84623889 eV

  energy without entropy =     -103.84623889  energy(sigma->0) =     -103.84623889


--------------------------------------------------------------------------------------------------------




--------------------------------------- Iteration      1(  21)  ---------------------------------------


    POTLOK:  cpu time      1.6360: real time      1.6370
    SETDIJ:  cpu time      0.2649: real time      0.2649
    TRIAL :  cpu time      2.6127: real time      2.6148
    CORREC:  cpu time      2.9899: real time      2.9917
    CHARGE:  cpu time      0.4184: real time      0.4184
    --------------------------------------------
      LOOP:  cpu time      7.9365: real time      7.9565

 eigenvalue-minimisations  :     0
 total energy-change (2. order) :-0.1291384E-05  (-0.5680496E-06)
 number of electron      44.0000000 magnetization 
 augmentation part        0.0477470 magnetization 

 Free energy of the ion-electron system (eV)
  ---------------------------------------------------
  alpha Z        PSCENC =         0.85132753
  Ewald energy   TEWEN  =      3249.38137581
  -Hartree energ DENC   =     -4773.45534108
  -exchange      EXHF   =         0.00000000
  -V(xc)+E(xc)   XCENC  =       162.86443852
  PAW double counting   =     26211.41004572   -26201.79695750
  entropy T*S    EENTRO =        -0.00000000
  eigenvalues    EBANDS =      -600.64436081
  atomic energy  EATOM  =      1847.54323162
  ---------------------------------------------------
  free energy    TOTEN  =      -103.84624018 eV

  energy without entropy =     -103.84624018  energy(sigma->0) =     -103.84624018


--------------------------------------------------------------------------------------------------------




--------------------------------------- Iteration      1(  22)  ---------------------------------------


    POTLOK:  cpu time      1.6376: real time      1.6383
    SETDIJ:  cpu time      0.2594: real time      0.2594
    TRIAL :  cpu time      2.6136: real time      2.6157
    CORREC:  cpu time      2.9883: real time      2.9900
    CHARGE:  cpu time      0.4217: real time      0.4217
    --------------------------------------------
      LOOP:  cpu time      7.9463: real time      7.9550

 eigenvalue-minimisations  :     0
 total energy-change (2. order) :-0.4946633E-06  (-0.2600606E-06)
 number of electron      44.0000000 magnetization 
 augmentation part        0.0477487 magnetization 

 Free energy of the ion-electron system (eV)
  ---------------------------------------------------
  alpha Z        PSCENC =         0.85132753
  Ewald energy   TEWEN  =      3249.38137581
  -Hartree energ DENC   =     -4773.44575837
  -exchange      EXHF   =         0.00000000
  -V(xc)+E(xc)   XCENC  =       162.86396769
  PAW double counting   =     26215.09279510   -26205.47965140
  entropy T*S    EENTRO =        -0.00000000
  eigenvalues    EBANDS =      -600.65352866
  atomic energy  EATOM  =      1847.54323162
  ---------------------------------------------------
  free energy    TOTEN  =      -103.84624068 eV

  energy without entropy =     -103.84624068  energy(sigma->0) =     -103.84624068


--------------------------------------------------------------------------------------------------------




--------------------------------------- Iteration      1(  23)  ---------------------------------------


    POTLOK:  cpu time      1.6359: real time      1.6369
    SETDIJ:  cpu time      0.2633: real time      0.2633
    TRIAL :  cpu time      2.6112: real time      2.6134
    CORREC:  cpu time      2.9835: real time      2.9854
    CHARGE:  cpu time      0.4256: real time      0.4256
    --------------------------------------------
      LOOP:  cpu time      7.9326: real time      7.9535

 eigenvalue-minimisations  :     0
 total energy-change (2. order) :-0.1886510E-06  (-0.9110264E-07)
 number of electron      44.0000000 magnetization 
 augmentation part        0.0477436 magnetization 

 Free energy of the ion-electron system (eV)
  ---------------------------------------------------
  alpha Z        PSCENC =         0.85132753
  Ewald energy   TEWEN  =      3249.38137581
  -Hartree energ DENC   =     -4773.45049439
  -exchange      EXHF   =         0.00000000
  -V(xc)+E(xc)   XCENC  =       162.86432495
  PAW double counting   =     26216.56492226   -26206.95187612
  entropy T*S    EENTRO =        -0.00000000
  eigenvalues    EBANDS =      -600.64905253
  atomic energy  EATOM  =      1847.54323162
  ---------------------------------------------------
  free energy    TOTEN  =      -103.84624087 eV

  energy without entropy =     -103.84624087  energy(sigma->0) =     -103.84624087


--------------------------------------------------------------------------------------------------------




--------------------------------------- Iteration      1(  24)  ---------------------------------------


    POTLOK:  cpu time      1.6349: real time      1.6358
    SETDIJ:  cpu time      0.2627: real time      0.2627
    TRIAL :  cpu time      2.6183: real time      2.6203
    CORREC:  cpu time      2.9846: real time      2.9860
    EDDIAG:  cpu time      0.6702: real time      0.6705
    CHARGE:  cpu time      0.4218: real time      0.4223
    --------------------------------------------
      LOOP:  cpu time      8.6056: real time      8.6263

 eigenvalue-minimisations  :     0
 total energy-change (2. order) :-0.8367351E-07  (-0.4951642E-07)
 number of electron      44.0000000 magnetization 
 augmentation part        0.0477451 magnetization 

 Free energy of the ion-electron system (eV)
  ---------------------------------------------------
  alpha Z        PSCENC =         0.85132753
  Ewald energy   TEWEN  =      3249.38137581
  -Hartree energ DENC   =     -4773.44610285
  -exchange      EXHF   =         0.00000000
  -V(xc)+E(xc)   XCENC  =       162.86396967
  PAW double counting   =     26216.85764597   -26207.24453615
  entropy T*S    EENTRO =        -0.00000000
  eigenvalues    EBANDS =      -600.65315255
  atomic energy  EATOM  =      1847.54323162
  ---------------------------------------------------
  free energy    TOTEN  =      -103.84624095 eV

  energy without entropy =     -103.84624095  energy(sigma->0) =     -103.84624095


--------------------------------------------------------------------------------------------------------


  average scaling for gradient   0.9065


 average (electrostatic) potential at core
  the test charge radii are     0.5770  0.4325  0.5955
  (the norm of the test charge is              1.0000)
       1 -88.8696       2 -88.8685       3 -88.8693       4 -88.8680       5 -90.6916
       6 -90.6919       7 -47.5900       8 -47.8524       9 -47.8521      10 -47.8528
      11 -47.5924      12 -47.8535      13 -47.5890      14 -47.5943      15-123.1765
      16-123.1764



 E-fermi :  -5.9062     XC(G=0):  -0.2266     alpha+bet : -0.1477

 Fermi energy:        -5.9062229580

 k-point     1 :       0.0000    0.0000    0.0000
  band No.  band energies     occupation 
      1     -27.5531      2.00000
      2     -27.5090      2.00000
      3     -22.0091      2.00000
      4     -20.2731      2.00000
      5     -18.4991      2.00000
      6     -17.1720      2.00000
      7     -14.7205      2.00000
      8     -13.2217      2.00000
      9     -13.0673      2.00000
     10     -12.1226      2.00000
     11     -12.0280      2.00000
     12     -11.1342      2.00000
     13     -11.0041      2.00000
     14     -10.6952      2.00000
     15     -10.3413      2.00000
     16     -10.0228      2.00000
     17      -9.8853      2.00000
     18      -9.4061      2.00000
     19      -8.9927      2.00000
     20      -8.5320      2.00000
     21      -6.1160      2.00000
     22      -6.0210      2.00000
     23      -1.7456      0.00000
     24      -1.6537      0.00000
     25      -0.1554      0.00000
     26       0.2464      0.00000
     27       0.3609      0.00000
     28       0.4039      0.00000
     29       0.5143      0.00000
     30       0.5433      0.00000
     31       0.6100      0.00000
     32       0.7658      0.00000


--------------------------------------------------------------------------------------------------------


 soft charge-density along one line, spin component           1
         0         1         2         3         4         5         6         7         8         9
 total charge-density along one line

 pseudopotential strength for first ion, spin component:           1
 12.669  21.318   0.002   0.002   0.003   0.003   0.004   0.006
 21.318  35.871   0.003   0.003   0.005   0.006   0.006   0.010
  0.002   0.003  -3.249  -0.000  -0.000  -5.820  -0.000  -0.000
  0.002   0.003  -0.000  -3.249   0.000  -0.000  -5.820   0.000
  0.003   0.005  -0.000   0.000  -3.249  -0.000   0.000  -5.820
  0.003   0.006  -5.820  -0.000  -0.000 -10.403  -0.000  -0.000
  0.004   0.006  -0.000  -5.820   0.000  -0.000 -10.403   0.000
  0.006   0.010  -0.000   0.000  -5.820  -0.000   0.000 -10.402
 total augmentation occupancy for first ion, spin component:           1
  9.868  -3.719   0.088   0.114  -0.150  -0.073  -0.043   0.058
 -3.719   1.427  -0.082  -0.053   0.048   0.055   0.014  -0.020
  0.088  -0.082   6.883   0.036   0.013  -2.357  -0.002   0.011
  0.114  -0.053   0.036   6.769   0.033  -0.002  -2.289  -0.001
 -0.150   0.048   0.013   0.033   6.842   0.011  -0.001  -2.367
 -0.073   0.055  -2.357  -0.002   0.011   0.817  -0.005  -0.013
 -0.043   0.014  -0.002  -2.289  -0.001  -0.005   0.778  -0.003
  0.058  -0.020   0.011  -0.001  -2.367  -0.013  -0.003   0.829


------------------------ aborting loop because EDIFF is reached ----------------------------------------


    FORLOC:  cpu time      0.0529: real time      0.0529
    FORNL :  cpu time      0.0546: real time      0.0548
    FORCOR:  cpu time      1.6810: real time      1.6817
    OFIELD:  cpu time      0.0059: real time      0.0063

 VOLUME and BASIS-vectors are now :
 -----------------------------------------------------------------------------
  energy-cutoff  :     1000.00
  volume of cell :     6859.00
      direct lattice vectors                 reciprocal lattice vectors
    19.000000000  0.000000000  0.000000000     0.052631579  0.000000000  0.000000000
     0.000000000 19.000000000  0.000000000     0.000000000  0.052631579  0.000000000
     0.000000000  0.000000000 19.000000000     0.000000000  0.000000000  0.052631579

  length of vectors
    19.000000000 19.000000000 19.000000000     0.052631579  0.052631579  0.052631579


 FORCES acting on ions:
    Electron-Ion                     Ewald-Force                    Non-Local-Force
 -----------------------------------------------------------------------------------------------
   0.479E+02 0.179E+03 -.265E+02   -.495E+02 -.180E+03 0.256E+02   0.160E+01 0.102E+01 0.984E+00
   -.833E+02 0.151E+03 0.747E+02   0.851E+02 -.152E+03 -.740E+02   -.181E+01 0.915E+00 -.711E+00
   -.159E+02 -.158E+03 -.100E+03   0.177E+02 0.159E+03 0.100E+03   -.179E+01 -.115E+01 -.236E+00
   0.508E+02 -.173E+03 0.539E+02   -.528E+02 0.173E+03 -.538E+02   0.200E+01 -.788E+00 -.466E-01
   -.105E+02 -.800E+00 -.231E+01   0.810E+01 0.637E+00 0.167E+01   0.267E+01 0.183E+00 0.719E+00
   0.102E+02 0.859E+00 0.355E+01   -.778E+01 -.685E+00 -.294E+01   -.268E+01 -.193E+00 -.688E+00
   -.459E+02 0.778E+02 -.764E+01   0.490E+02 -.822E+02 0.904E+01   -.322E+01 0.459E+01 -.145E+01
   -.266E+02 0.144E+02 0.840E+02   0.274E+02 -.138E+02 -.893E+02   -.859E+00 -.679E+00 0.546E+01
   0.204E+02 0.426E+02 -.758E+02   -.212E+02 -.436E+02 0.810E+02   0.816E+00 0.107E+01 -.540E+01
   0.203E+02 -.151E+02 -.857E+02   -.220E+02 0.143E+02 0.907E+02   0.186E+01 0.739E+00 -.520E+01
   -.334E+02 -.833E+02 -.131E+02   0.362E+02 0.881E+02 0.133E+02   -.290E+01 -.501E+01 -.163E+00
   -.142E+02 -.418E+02 0.777E+02   0.159E+02 0.429E+02 -.826E+02   -.182E+01 -.111E+01 0.514E+01
   0.501E+02 -.750E+02 -.925E+01   -.538E+02 0.790E+02 0.103E+02   0.387E+01 -.416E+01 -.114E+01
   0.290E+02 0.802E+02 0.306E+02   -.312E+02 -.847E+02 -.333E+02   0.224E+01 0.456E+01 0.277E+01
   -.394E+03 -.269E+02 -.106E+03   0.445E+03 0.303E+02 0.119E+03   -.511E+02 -.347E+01 -.137E+02
   0.395E+03 0.271E+02 0.102E+03   -.446E+03 -.305E+02 -.115E+03   0.512E+02 0.347E+01 0.132E+02
 -----------------------------------------------------------------------------------------------
   -.129E+00 -.279E-02 0.498E+00   -.114E-12 0.639E-13 -.142E-13   0.131E+00 0.368E-02 -.498E+00


 POSITION                                       TOTAL-FORCE (eV/Angst)
 -----------------------------------------------------------------------------------
      8.88549      8.18627      9.31883        -0.028016      0.007358      0.010064
     10.38057      8.38655      9.03672         0.027050      0.015209     -0.004546
      9.95913     10.72654     10.02168         0.021092     -0.007990      0.018603
      8.78469     10.74207      9.03431        -0.021156     -0.009297     -0.022925
     10.95393      9.60975      9.73853         0.471408      0.032272      0.127865
      8.04929      9.41075      8.97339        -0.474643     -0.030971     -0.118349
     10.97825      7.51183      9.31492        -0.095676      0.159030     -0.048055
     10.53647      8.53934      7.95552        -0.023130     -0.016437      0.193006
      8.73398      7.99364     10.39427         0.019977      0.041720     -0.188830
      9.58109     10.56042     11.04448         0.070829      0.023090     -0.178760
     10.49919     11.67930     10.04260        -0.084728     -0.173160     -0.000286
      9.15869     10.94424      8.01650        -0.068314     -0.045060      0.176525
      8.06014     11.53179      9.26022         0.117503     -0.143385     -0.043761
      8.47350      7.32070      8.78900         0.060439      0.154222      0.091525
     12.12626      9.68930     10.05298        -0.699299     -0.051410     -0.190493
      6.87374      9.33069      8.67122         0.706666      0.044810      0.178417
 -----------------------------------------------------------------------------------
    total drift:                                0.002073      0.000890     -0.000614


--------------------------------------------------------------------------------------------------------



  FREE ENERGIE OF THE ION-ELECTRON SYSTEM (eV)
  ---------------------------------------------------
  free  energy   TOTEN  =      -103.84624095 eV

  energy  without entropy=     -103.84624095  energy(sigma->0) =     -103.84624095



--------------------------------------------------------------------------------------------------------


    POTLOK:  cpu time      1.9091: real time      1.9100


--------------------------------------------------------------------------------------------------------


 stress matrix after NEB project (eV)
      0.00000      0.00000      0.00000
      0.00000      0.00000      0.00000
      0.00000      0.00000      0.00000
  FORCES: max atom, RMS     0.730217    0.339310
  FORCE total and by dimension    1.357240    0.706666
  Stress total and by dimension    0.000000    0.000000
     LOOP+:  cpu time    174.5847: real time    174.9854
    4ORBIT:  cpu time      0.0000: real time      0.0000

 total amount of memory used by VASP MPI-rank0   125310. kBytes
=======================================================================

   base      :      30000. kBytes
   nonl-proj :       3440. kBytes
   fftplans  :      25107. kBytes
   grid      :      63813. kBytes
   one-center:          1. kBytes
   wavefun   :       2949. kBytes

  
  
 General timing and accounting informations for this job:
 ========================================================
  
                  Total CPU time used (sec):      184.543
                            User time (sec):      181.645
                          System time (sec):        2.899
                         Elapsed time (sec):      188.405
  
                   Maximum memory used (kb):      333096.
                   Average memory used (kb):          N/A
  
                          Minor page faults:       160093
                          Major page faults:         1176
                 Voluntary context switches:         3859
