 vasp.6.4.1 05Apr23 (build Jun  6 2023 14:46:38) gamma-only                      
 executed on        HPECrayEX_GCC date 2024.08.20  17:54:52
 running  256 mpi-ranks, with    1 threads/rank, on    2 nodes
 distrk:  each k-point on  128 cores,    2 groups
 distr:  one band on NCORE=  32 cores,    4 groups


--------------------------------------------------------------------------------------------------------


 INCAR:
   ALGO = Conjugate
   KPAR = 2
   NCORE = 32
   ISMEAR = 0
   SIGMA = 0.01
   PREC = Accurate
   EDIFF = 1E-7
   ENCUT = 1000
   ISIF = 0
   METAGGA = SCAN
   LASPH = .TRUE.
   SYMPREC = 1E-7
   LWAVE = .FALSE.
   LCHARG = .FALSE.

 POTCAR:    PAW_PBE C_h 06Feb2004                 
 POTCAR:    PAW_PBE H_h 06Feb2004                 
 POTCAR:    PAW_PBE O_h 06Feb2004                 
 POTCAR:    PAW_PBE C_h 06Feb2004                 
   VRHFIN =C: s2p2                                                                                  
   LEXCH  = PE                                                                                      
   EATOM  =   147.1560 eV,   10.8157 Ry                                                             
                                                                                                    
   TITEL  = PAW_PBE C_h 06Feb2004                                                                   
   LULTRA =        F    use ultrasoft PP ?                                                          
   IUNSCR =        1    unscreen: 0-lin 1-nonlin 2-no                                               
   RPACOR =    0.800    partial core radius                                                         
   POMASS =   12.011; ZVAL   =    4.000    mass and valenz                                          
   RCORE  =    1.100    outmost cutoff radius                                                       
   RWIGS  =    1.630; RWIGS  =    0.863    wigner-seitz radius (au A)                               
   ENMAX  =  700.000; ENMIN  =  500.000 eV                                                          
   ICORE  =        2    local potential                                                             
   LCOR   =        T    correct aug charges                                                         
   LPAW   =        T    paw PP                                                                      
   EAUG   =  946.768                                                                                
   DEXC   =    0.000                                                                                
   RMAX   =    1.128    core radius for proj-oper                                                   
   RAUG   =    1.300    factor for augmentation sphere                                              
   RDEP   =    1.162    radius for radial grids                                                     
   RDEPT  =    1.088    core radius for aug-charge                                                  
                                                                                                    
   Atomic configuration                                                                             
    4 entries                                                                                       
     n  l   j            E        occ.                                                              
     1  0  0.50      -273.3789   2.0000                                                             
     2  0  0.50       -13.7508   2.0000                                                             
     2  1  0.50        -5.2854   2.0000                                                             
     3  2  1.50        -5.4423   0.0000                                                             
   Description                                                                                      
     l       E           TYP  RCUT    TYP  RCUT                                                     
     0    -13.7508458     23  1.100                                                                 
     0     -8.2022199     23  1.100                                                                 
     1     -5.2854383     23  1.100                                                                 
     1      1.1560700     23  1.100                                                                 
     2     -5.4423304      7  1.100                                                                 
  local pseudopotential read in
  partial core-charges read in
  partial kinetic energy density read in
  atomic valenz-charges read in
  non local Contribution for L=           0  read in
    real space projection operators read in
  non local Contribution for L=           0  read in
    real space projection operators read in
  non local Contribution for L=           1  read in
    real space projection operators read in
  non local Contribution for L=           1  read in
    real space projection operators read in
    PAW grid and wavefunctions read in

   number of l-projection  operators is LMAX  =           4
   number of lm-projection operators is LMMAX =           8

 POTCAR:    PAW_PBE H_h 06Feb2004                 
   VRHFIN =H: ultrasoft test                                                                        
   LEXCH  = PE                                                                                      
   EATOM  =    12.4884 eV,    0.9179 Ry                                                             
                                                                                                    
   TITEL  = PAW_PBE H_h 06Feb2004                                                                   
   LULTRA =        F    use ultrasoft PP ?                                                          
   IUNSCR =        0    unscreen: 0-lin 1-nonlin 2-no                                               
   RPACOR =    0.000    partial core radius                                                         
   POMASS =    1.000; ZVAL   =    1.000    mass and valenz                                          
   RCORE  =    0.800    outmost cutoff radius                                                       
   RWIGS  =    0.700; RWIGS  =    0.370    wigner-seitz radius (au A)                               
   ENMAX  =  700.000; ENMIN  =  350.000 eV                                                          
   RCLOC  =    0.701    cutoff for local pot                                                        
   LCOR   =        T    correct aug charges                                                         
   LPAW   =        T    paw PP                                                                      
   EAUG   = 1000.000                                                                                
   RMAX   =    0.819    core radius for proj-oper                                                   
   RAUG   =    1.000    factor for augmentation sphere                                              
   RDEP   =    0.817    radius for radial grids                                                     
   RDEPT  =    0.817    core radius for aug-charge                                                  
                                                                                                    
   Atomic configuration                                                                             
    2 entries                                                                                       
     n  l   j            E        occ.                                                              
     1  0  0.50        -6.4927   1.0000                                                             
     2  1  0.50        -3.4015   0.0000                                                             
   Description                                                                                      
     l       E           TYP  RCUT    TYP  RCUT                                                     
     0     -6.4927493     23  0.800                                                                 
     0      6.8029130     23  0.800                                                                 
     1     -6.8029130     23  0.800                                                                 
  local pseudopotential read in
  atomic valenz-charges read in
  non local Contribution for L=           0  read in
    real space projection operators read in
  non local Contribution for L=           0  read in
    real space projection operators read in
  non local Contribution for L=           1  read in
    real space projection operators read in
    PAW grid and wavefunctions read in

   number of l-projection  operators is LMAX  =           3
   number of lm-projection operators is LMMAX =           5

 POTCAR:    PAW_PBE O_h 06Feb2004                 
   VRHFIN =O: s2p4                                                                                  
   LEXCH  = PE                                                                                      
   EATOM  =   432.3788 eV,   31.7789 Ry                                                             
                                                                                                    
   TITEL  = PAW_PBE O_h 06Feb2004                                                                   
   LULTRA =        F    use ultrasoft PP ?                                                          
   IUNSCR =        1    unscreen: 0-lin 1-nonlin 2-no                                               
   RPACOR =    0.800    partial core radius                                                         
   POMASS =   16.000; ZVAL   =    6.000    mass and valenz                                          
   RCORE  =    1.100    outmost cutoff radius                                                       
   RWIGS  =    1.400; RWIGS  =    0.741    wigner-seitz radius (au A)                               
   ENMAX  =  700.000; ENMIN  =  500.000 eV                                                          
   ICORE  =        2    local potential                                                             
   LCOR   =        T    correct aug charges                                                         
   LPAW   =        T    paw PP                                                                      
   EAUG   =  888.804                                                                                
   DEXC   =    0.000                                                                                
   RMAX   =    1.128    core radius for proj-oper                                                   
   RAUG   =    1.300    factor for augmentation sphere                                              
   RDEP   =    1.125    radius for radial grids                                                     
   RDEPT  =    1.088    core radius for aug-charge                                                  
                                                                                                    
   Atomic configuration                                                                             
    4 entries                                                                                       
     n  l   j            E        occ.                                                              
     1  0  0.50      -514.6923   2.0000                                                             
     2  0  0.50       -23.9615   2.0000                                                             
     2  1  0.50        -9.0305   4.0000                                                             
     3  2  1.50        -9.5241   0.0000                                                             
   Description                                                                                      
     l       E           TYP  RCUT    TYP  RCUT                                                     
     0    -23.9615319     23  1.100                                                                 
     0    -25.3221145     23  1.100                                                                 
     1     -9.0304911     23  1.100                                                                 
     1     -5.4802209     23  1.100                                                                 
     2     -9.5240782      7  1.100                                                                 
  local pseudopotential read in
  partial core-charges read in
  partial kinetic energy density read in
  atomic valenz-charges read in
  non local Contribution for L=           0  read in
    real space projection operators read in
  non local Contribution for L=           0  read in
    real space projection operators read in
  non local Contribution for L=           1  read in
    real space projection operators read in
  non local Contribution for L=           1  read in
    real space projection operators read in
    PAW grid and wavefunctions read in

   number of l-projection  operators is LMAX  =           4
   number of lm-projection operators is LMMAX =           8

  PAW_PBE C_h 06Feb2004                 :
 energy of atom  1       EATOM= -147.1560
 kinetic energy error for atom=    0.0031 (will be added to EATOM!!)
  PAW_PBE H_h 06Feb2004                 :
 energy of atom  2       EATOM=  -12.4884
 kinetic energy error for atom=    0.0006 (will be added to EATOM!!)
  PAW_PBE O_h 06Feb2004                 :
 energy of atom  3       EATOM= -432.3788
 kinetic energy error for atom=    0.0171 (will be added to EATOM!!)


 POSCAR:  C  H  O
  positions in cartesian coordinates
  No initial velocities read in

 METAGGA = SCAN                                        LMAXTAU =  6    LMIXTAU =  F

 exchange correlation table for  LEXCH =        8
   RHO(1)=    0.500       N(1)  =     2000
   RHO(2)=  100.500       N(2)  =     4000

 VTST: version 4.1, (05/19/21)

 CHAIN: initializing optimizer
 
 OPT: Using VASP Dynamics algorithm
 CHAIN: Read ICHAIN            0

 POSCAR:  C  H  O
  positions in cartesian coordinates
  No initial velocities read in



--------------------------------------------------------------------------------------------------------


 ion  position               nearest neighbor table
   1  0.468  0.431  0.490-  14 1.10   9 1.10   6 1.52   2 1.53
   2  0.546  0.441  0.476-   7 1.10   8 1.10   5 1.52   1 1.53
   3  0.524  0.565  0.527-  11 1.10  10 1.10   5 1.52   4 1.53
   4  0.462  0.565  0.475-  13 1.10  12 1.10   6 1.52   3 1.53
   5  0.577  0.506  0.513-  15 1.22   3 1.52   2 1.52
   6  0.424  0.495  0.472-  16 1.22   4 1.52   1 1.52
   7  0.578  0.395  0.490-   2 1.10
   8  0.555  0.449  0.419-   2 1.10
   9  0.460  0.421  0.547-   1 1.10
  10  0.504  0.556  0.581-   3 1.10
  11  0.553  0.615  0.529-   3 1.10
  12  0.482  0.576  0.422-   4 1.10
  13  0.424  0.607  0.487-   4 1.10
  14  0.446  0.385  0.463-   1 1.10
  15  0.638  0.510  0.529-   5 1.22
  16  0.362  0.491  0.456-   6 1.22

  LATTYP: Found a simple cubic cell.
 ALAT       =    19.0000000000
  
  Lattice vectors:
  
 A1 = (  19.0000000000,   0.0000000000,   0.0000000000)
 A2 = (   0.0000000000,  19.0000000000,   0.0000000000)
 A3 = (   0.0000000000,   0.0000000000,  19.0000000000)


Analysis of symmetry for initial positions (statically):
=====================================================================
 Subroutine PRICEL returns:
 Original cell was already a primitive cell.
 

 Routine SETGRP: Setting up the symmetry group for a 
 simple cubic supercell.


 Subroutine GETGRP returns: Found  1 space group operations
 (whereof  1 operations were pure point group operations)
 out of a pool of 48 trial point group operations.


The static configuration has the point symmetry C_1 .


Analysis of symmetry for dynamics (positions and initial velocities):
=====================================================================
 Subroutine PRICEL returns:
 Original cell was already a primitive cell.
 

 Routine SETGRP: Setting up the symmetry group for a 
 simple cubic supercell.


 Subroutine GETGRP returns: Found  1 space group operations
 (whereof  1 operations were pure point group operations)
 out of a pool of 48 trial point group operations.


The dynamic configuration has the point symmetry C_1 .


 Subroutine INISYM returns: Found  1 space group operations
 (whereof  1 operations are pure point group operations),
 and found     1 'primitive' translations


----------------------------------------------------------------------------------------

                                     Primitive cell                                     

  volume of cell :    6859.0000

  direct lattice vectors                    reciprocal lattice vectors
    19.000000000  0.000000000  0.000000000     0.052631579  0.000000000  0.000000000
     0.000000000 19.000000000  0.000000000     0.000000000  0.052631579  0.000000000
     0.000000000  0.000000000 19.000000000     0.000000000  0.000000000  0.052631579

  length of vectors
    19.000000000 19.000000000 19.000000000     0.052631579  0.052631579  0.052631579

  position of ions in fractional coordinates (direct lattice)
     0.467657632  0.430856316  0.490464737
     0.546345526  0.441397368  0.475616842
     0.524165000  0.564554737  0.527456842
     0.462351842  0.565372105  0.475490000
     0.576522895  0.505776316  0.512554211
     0.423647105  0.495302632  0.472283684
     0.577802895  0.395359474  0.490258947
     0.554550789  0.449438947  0.418711579
     0.459683421  0.420717895  0.547066842
     0.504267632  0.555811579  0.581288421
     0.552589211  0.614700000  0.528557895
     0.482036579  0.576012632  0.421921053
     0.424217632  0.606936316  0.487380000
     0.445973421  0.385300000  0.462578947
     0.638223947  0.509963158  0.529104211
     0.361776053  0.491088947  0.456380000

  ion indices of the primitive-cell ions
   primitive index   ion index
                 1           1
                 2           2
                 3           3
                 4           4
                 5           5
                 6           6
                 7           7
                 8           8
                 9           9
                10          10
                11          11
                12          12
                13          13
                14          14
                15          15
                16          16

----------------------------------------------------------------------------------------



 KPOINTS: auto                                    

Automatic generation of k-mesh.
 Grid dimensions read from file:
 generate k-points for:    1    1    1

 Generating k-lattice:

  Cartesian coordinates                     Fractional coordinates (reciprocal lattice)
     0.052631579  0.000000000  0.000000000     1.000000000  0.000000000  0.000000000
     0.000000000  0.052631579  0.000000000     0.000000000  1.000000000  0.000000000
     0.000000000  0.000000000  0.052631579     0.000000000  0.000000000  1.000000000

  Length of vectors
     0.052631579  0.052631579  0.052631579

  Shift w.r.t. Gamma in fractional coordinates (k-lattice)
     0.000000000  0.000000000  0.000000000

 
 Subroutine IBZKPT returns following result:
 ===========================================
 
 Found      1 irreducible k-points:
 
 Following reciprocal coordinates:
            Coordinates               Weight
  0.000000  0.000000  0.000000      1.000000
 
 Following cartesian coordinates:
            Coordinates               Weight
  0.000000  0.000000  0.000000      1.000000
 


--------------------------------------------------------------------------------------------------------




 Dimension of arrays:
   k-points           NKPTS =      1   k-points in BZ     NKDIM =      1   number of bands    NBANDS=     32
   number of dos      NEDOS =    301   number of ions     NIONS =     16
   non local maximal  LDIM  =      4   non local SUM 2l+1 LMDIM =      8
   total plane-waves  NPLWV = ******
   max r-space proj   IRMAX =      1   max aug-charges    IRDMAX=   8205
   dimension x,y,z NGX =   196 NGY =  196 NGZ =  196
   dimension x,y,z NGXF=   392 NGYF=  392 NGZF=  392
   support grid    NGXF=   392 NGYF=  392 NGZF=  392
   ions per type =               6   8   2
   NGX,Y,Z   is equivalent  to a cutoff of  17.15, 17.15, 17.15 a.u.
   NGXF,Y,Z  is equivalent  to a cutoff of  34.30, 34.30, 34.30 a.u.

 SYSTEM =  unknown system                          
 POSCAR =   C  H  O                                

 Startparameter for this run:
   NWRITE =      2    write-flag & timer
   PREC   = accura    normal or accurate (medium, high low for compatibility)
   ISTART =      0    job   : 0-new  1-cont  2-samecut
   ICHARG =      2    charge: 1-file 2-atom 10-const
   ISPIN  =      1    spin polarized calculation?
   LNONCOLLINEAR =      F non collinear calculations
   LSORBIT =      F    spin-orbit coupling
   INIWAV =      1    electr: 0-lowe 1-rand  2-diag
   LASPH  =      T    aspherical Exc in radial PAW
 Electronic Relaxation 1
   ENCUT  = 1000.0 eV  73.50 Ry    8.57 a.u.  48.99 48.99 48.99*2*pi/ulx,y,z
   ENINI  = 1000.0     initial cutoff
   ENAUG  = 1000.0 eV  augmentation charge cutoff
   NELM   =     60;   NELMIN=  2; NELMDL= -5     # of ELM steps 
   EDIFF  = 0.1E-06   stopping-criterion for ELM
   LREAL  =      F    real-space projection
   NLSPLINE    = F    spline interpolate recip. space projectors
   LCOMPAT=      F    compatible to vasp.4.4
   GGA_COMPAT  = T    GGA compatible to vasp.4.4-vasp.4.6
   LMAXPAW     = -100 max onsite density
   LMAXMIX     =    2 max onsite mixed and CHGCAR
   VOSKOWN=      0    Vosko Wilk Nusair interpolation
   ROPT   =    0.00000   0.00000   0.00000
 Ionic relaxation
   EDIFFG = 0.1E-05   stopping-criterion for IOM
   NSW    =      0    number of steps for IOM
   NBLOCK =      1;   KBLOCK =      1    inner block; outer block 
   IBRION =     -1    ionic relax: 0-MD 1-quasi-New 2-CG
   NFREE  =      0    steps in history (QN), initial steepest desc. (CG)
   ISIF   =      0    stress and relaxation
   IWAVPR =     10    prediction:  0-non 1-charg 2-wave 3-comb
   ISYM   =      2    0-nonsym 1-usesym 2-fastsym
   LCORR  =      T    Harris-Foulkes like correction to forces

   POTIM  = 0.5000    time-step for ionic-motion
   TEIN   =    0.0    initial temperature
   TEBEG  =    0.0;   TEEND  =   0.0 temperature during run
   SMASS  =  -3.00    Nose mass-parameter (am)
   estimated Nose-frequenzy (Omega)   =  0.10E-29 period in steps = 0.13E+47 mass=  -0.825E-26a.u.
   SCALEE = 1.0000    scale energy and forces
   NPACO  =    256;   APACO  = 10.0  distance and # of slots for P.C.
   PSTRESS=    0.0 pullay stress

  Mass of Ions in am
   POMASS =  12.01  1.00 16.00
  Ionic Valenz
   ZVAL   =   4.00  1.00  6.00
  Atomic Wigner-Seitz radii
   RWIGS  =  -1.00 -1.00 -1.00
  virtual crystal weights 
   VCA    =   1.00  1.00  1.00
   NELECT =      44.0000    total number of electrons
   NUPDOWN=      -1.0000    fix difference up-down

 DOS related values:
   EMIN   =  10.00;   EMAX   =-10.00  energy-range for DOS
   EFERMI =   0.00;   METHOD = LEGACY      
   ISMEAR =     0;   SIGMA  =   0.01  broadening in eV -4-tet -1-fermi 0-gaus

 Electronic relaxation 2 (details)
   IALGO  =     58    algorithm
   LDIAG  =      T    sub-space diagonalisation (order eigenvalues)
   LSUBROT=      F    optimize rotation matrix (better conditioning)
   TURBO    =      0    0=normal 1=particle mesh
   IRESTART =      0    0=no restart 2=restart with 2 vectors
   NREBOOT  =      0    no. of reboots
   NMIN     =      0    reboot dimension
   EREF     =   0.00    reference energy to select bands
   IMIX   =      4    mixing-type and parameters
     AMIX     =   0.40;   BMIX     =  1.00
     AMIX_MAG =   1.60;   BMIX_MAG =  1.00
     AMIN     =   0.10
     WC   =   100.;   INIMIX=   1;  MIXPRE=   1;  MAXMIX= -45

 Intra band minimization:
   WEIMIN = 0.0000     energy-eigenvalue tresh-hold
   EBREAK =  0.78E-09  absolut break condition
   DEPER  =   0.30     relativ break condition  

   TIME   =   0.40     timestep for ELM

  volume/ion in A,a.u.               =     428.69      2892.93
  Fermi-wavevector in a.u.,A,eV,Ry     =   0.304186  0.574828  1.258933  0.092529
  Thomas-Fermi vector in A             =   1.176043

 Write flags
   LWAVE        =      F    write WAVECAR
   LDOWNSAMPLE  =      F    k-point downsampling of WAVECAR
   LCHARG       =      F    write CHGCAR
   LVTOT        =      F    write LOCPOT, total local potential
   LVHAR        =      F    write LOCPOT, Hartree potential only
   LELF         =      F    write electronic localiz. function (ELF)
   LORBIT       =      0    0 simple, 1 ext, 2 COOP (PROOUT), +10 PAW based schemes


 Dipole corrections
   LMONO  =      F    monopole corrections only (constant potential shift)
   LDIPOL =      F    correct potential (dipole corrections)
   IDIPOL =      0    1-x, 2-y, 3-z, 4-all directions 
   EPSILON=  1.0000000 bulk dielectric constant

 Exchange correlation treatment:
   GGA     =    --    GGA type
   LEXCH   =     8    internal setting for exchange type
   LIBXC   =     F    Libxc                    
   VOSKOWN =     0    Vosko Wilk Nusair interpolation
   LHFCALC =     F    Hartree Fock is set to
   LHFONE  =     F    Hartree Fock one center treatment
   AEXX    =    0.0000 exact exchange contribution

 Linear response parameters
   LEPSILON=     F    determine dielectric tensor
   LRPA    =     F    only Hartree local field effects (RPA)
   LNABLA  =     F    use nabla operator in PAW spheres
   LVEL    =     F    velocity operator in full k-point grid
   CSHIFT  =0.1000    complex shift for real part using Kramers Kronig
   OMEGAMAX=  -1.0    maximum frequency
   DEG_THRESHOLD= 0.2000000E-02 threshold for treating states as degnerate
   RTIME   =   -0.100 relaxation time in fs
  (WPLASMAI=    0.000 imaginary part of plasma frequency in eV, 0.658/RTIME)
   DFIELD  = 0.0000000 0.0000000 0.0000000 field for delta impulse in time

  Optional k-point grid parameters
   LKPOINTS_OPT  =     F    use optional k-point grid
   KPOINTS_OPT_MODE=     1    mode for optional k-point grid

 Orbital magnetization related:
   ORBITALMAG=     F  switch on orbital magnetization
   LCHIMAG   =     F  perturbation theory with respect to B field
   DQ        =  0.001000  dq finite difference perturbation B field
   LLRAUG    =     F  two centre corrections for induced B field
   LBONE     =     F  B-component reconstruction in AE one-centre
   LVGVCALC  =     T  calculate vGv susceptibility
   LVGVAPPL  =     F  apply vGv susceptibility instead of pGv for G=0

 Random number generation:
   RANDOM_GENERATOR = DEFAULT
   PCG_SEED         = not used


--------------------------------------------------------------------------------------------------------


 Static calculation
 charge density and potential will be updated during run
 non-spin polarized calculation
 Conjugate gradient for all bands (Freysoldt, et al. PRB 79, 241103 (2009))
 preconditioned conjugated gradient                                        
 perform sub-space diagonalisation
    before iterative eigenvector-optimisation
 modified Broyden-mixing scheme, WC =      100.0
 initial mixing is a Kerker type mixing with AMIX =  0.4000 and BMIX =      1.0000
 Hartree-type preconditioning will be used
 using additional bands           10
 reciprocal scheme for non local part
 use partial core corrections
 no Harris-corrections to forces 
 use gradient corrections 
 use of overlap-Matrix (Vanderbilt PP)
 Gauss-broadening in eV      SIGMA  =   0.01


--------------------------------------------------------------------------------------------------------


  energy-cutoff  :     1000.00
  volume of cell :     6859.00
      direct lattice vectors                 reciprocal lattice vectors
    19.000000000  0.000000000  0.000000000     0.052631579  0.000000000  0.000000000
     0.000000000 19.000000000  0.000000000     0.000000000  0.052631579  0.000000000
     0.000000000  0.000000000 19.000000000     0.000000000  0.000000000  0.052631579

  length of vectors
    19.000000000 19.000000000 19.000000000     0.052631579  0.052631579  0.052631579



 k-points in units of 2pi/SCALE and weight: auto                                    
   0.00000000  0.00000000  0.00000000       1.000

 k-points in reciprocal lattice and weights: auto                                    
   0.00000000  0.00000000  0.00000000       1.000

 position of ions in fractional coordinates (direct lattice) 
   0.46765763  0.43085632  0.49046474
   0.54634553  0.44139737  0.47561684
   0.52416500  0.56455474  0.52745684
   0.46235184  0.56537211  0.47549000
   0.57652289  0.50577632  0.51255421
   0.42364711  0.49530263  0.47228368
   0.57780289  0.39535947  0.49025895
   0.55455079  0.44943895  0.41871158
   0.45968342  0.42071789  0.54706684
   0.50426763  0.55581158  0.58128842
   0.55258921  0.61470000  0.52855789
   0.48203658  0.57601263  0.42192105
   0.42421763  0.60693632  0.48738000
   0.44597342  0.38530000  0.46257895
   0.63822395  0.50996316  0.52910421
   0.36177605  0.49108895  0.45638000

 position of ions in cartesian coordinates  (Angst):
   8.88549500  8.18627000  9.31883000
  10.38056500  8.38655000  9.03672000
   9.95913500 10.72654000 10.02168000
   8.78468500 10.74207000  9.03431000
  10.95393500  9.60975000  9.73853000
   8.04929500  9.41075000  8.97339000
  10.97825500  7.51183000  9.31492000
  10.53646500  8.53934000  7.95552000
   8.73398500  7.99364000 10.39427000
   9.58108500 10.56042000 11.04448000
  10.49919500 11.67930000 10.04260000
   9.15869500 10.94424000  8.01650000
   8.06013500 11.53179000  9.26022000
   8.47349500  7.32070000  8.78900000
  12.12625500  9.68930000 10.05298000
   6.87374500  9.33069000  8.67122000



--------------------------------------------------------------------------------------------------------


 use parallel FFT for orbitals z direction half grid
 k-point   1 :   0.0000 0.0000 0.0000  plane waves:  246089

 maximum and minimum number of plane-waves per node :      7700     7677

 maximum number of plane-waves:    246089
 maximum index in each direction: 
   IXMAX=   48   IYMAX=   48   IZMAX=   48
   IXMIN=  -48   IYMIN=  -48   IZMIN=    0


 parallel 3D FFT for wavefunctions:
    minimum data exchange during FFTs selected (reduces bandwidth)
 parallel 3D FFT for charge:
    minimum data exchange during FFTs selected (reduces bandwidth)


 total amount of memory used by VASP MPI-rank0   125310. kBytes
=======================================================================

   base      :      30000. kBytes
   nonl-proj :       3440. kBytes
   fftplans  :      25107. kBytes
   grid      :      63813. kBytes
   one-center:          1. kBytes
   wavefun   :       2949. kBytes

     INWAV:  cpu time      0.0011: real time      0.0012
 Broyden mixing: mesh for mixing (old mesh)
   NGX = 97   NGY = 97   NGZ = 97
  (NGX  =392   NGY  =392   NGZ  =392)
  gives a total of 912673 points

 initial charge density was supplied:
 charge density of overlapping atoms calculated
 number of electron      44.0000000 magnetization 
 keeping initial charge density in first step


--------------------------------------------------------------------------------------------------------


 Maximum index for augmentation-charges          366 (set IRDMAX)


--------------------------------------------------------------------------------------------------------


 First call to EWALD:  gamma=   0.093
 Maximum number of real-space cells 3x 3x 3
 Maximum number of reciprocal cells 3x 3x 3

    FEWALD:  cpu time      0.0027: real time      0.0028


--------------------------------------- Ionic step        1  -------------------------------------------




--------------------------------------- Iteration      1(   1)  ---------------------------------------


    POTLOK:  cpu time      1.9169: real time      1.9174
    SETDIJ:  cpu time      0.2951: real time      0.2957
    TRIAL :  cpu time      3.1265: real time      3.1299
    CORREC:  cpu time      0.0006: real time      0.0006
    --------------------------------------------
      LOOP:  cpu time      5.3503: real time      5.3550

 eigenvalue-minimisations  :    80
 total energy-change (2. order) : 0.4803609E+03  (-0.1287536E+04)
 number of electron      44.0000000 magnetization 
 augmentation part       44.0000000 magnetization 

 Free energy of the ion-electron system (eV)
  ---------------------------------------------------
  alpha Z        PSCENC =         0.85132753
  Ewald energy   TEWEN  =      3249.38137581
  -Hartree energ DENC   =     -4582.57818006
  -exchange      EXHF   =         0.00000000
  -V(xc)+E(xc)   XCENC  =       148.10601113
  PAW double counting   =      1351.96256851    -1341.67002104
  entropy T*S    EENTRO =        -0.00000000
  eigenvalues    EBANDS =      -193.23541893
  atomic energy  EATOM  =      1847.54323162
  ---------------------------------------------------
  free energy    TOTEN  =       480.36089457 eV

  energy without entropy =      480.36089457  energy(sigma->0) =      480.36089457


--------------------------------------------------------------------------------------------------------




--------------------------------------- Iteration      1(   2)  ---------------------------------------


    TRIAL :  cpu time      3.7859: real time      3.7882
    CORREC:  cpu time      0.0001: real time      0.0001
    --------------------------------------------
      LOOP:  cpu time      3.7993: real time      3.8161

 eigenvalue-minimisations  :   112
 total energy-change (2. order) :-0.2897543E+03  (-0.2718927E+03)
 number of electron      44.0000000 magnetization 
 augmentation part       44.0000000 magnetization 

 Free energy of the ion-electron system (eV)
  ---------------------------------------------------
  alpha Z        PSCENC =         0.85132753
  Ewald energy   TEWEN  =      3249.38137581
  -Hartree energ DENC   =     -4582.57818006
  -exchange      EXHF   =         0.00000000
  -V(xc)+E(xc)   XCENC  =       148.10601113
  PAW double counting   =      1351.96256851    -1341.67002104
  entropy T*S    EENTRO =        -0.00000000
  eigenvalues    EBANDS =      -482.98972993
  atomic energy  EATOM  =      1847.54323162
  ---------------------------------------------------
  free energy    TOTEN  =       190.60658358 eV

  energy without entropy =      190.60658358  energy(sigma->0) =      190.60658358


--------------------------------------------------------------------------------------------------------




--------------------------------------- Iteration      1(   3)  ---------------------------------------


    TRIAL :  cpu time      3.4283: real time      3.4305
    CORREC:  cpu time      0.0001: real time      0.0001
    --------------------------------------------
      LOOP:  cpu time      3.4392: real time      3.4589

 eigenvalue-minimisations  :    96
 total energy-change (2. order) :-0.2284827E+03  (-0.2257916E+03)
 number of electron      44.0000000 magnetization 
 augmentation part       44.0000000 magnetization 

 Free energy of the ion-electron system (eV)
  ---------------------------------------------------
  alpha Z        PSCENC =         0.85132753
  Ewald energy   TEWEN  =      3249.38137581
  -Hartree energ DENC   =     -4582.57818006
  -exchange      EXHF   =         0.00000000
  -V(xc)+E(xc)   XCENC  =       148.10601113
  PAW double counting   =      1351.96256851    -1341.67002104
  entropy T*S    EENTRO =        -0.00000000
  eigenvalues    EBANDS =      -711.47245960
  atomic energy  EATOM  =      1847.54323162
  ---------------------------------------------------
  free energy    TOTEN  =       -37.87614610 eV

  energy without entropy =      -37.87614610  energy(sigma->0) =      -37.87614610


--------------------------------------------------------------------------------------------------------




--------------------------------------- Iteration      1(   4)  ---------------------------------------


    TRIAL :  cpu time      3.4252: real time      3.4270
    CORREC:  cpu time      0.0001: real time      0.0001
    --------------------------------------------
      LOOP:  cpu time      3.4539: real time      3.4562

 eigenvalue-minimisations  :    96
 total energy-change (2. order) :-0.8180757E+02  (-0.8048609E+02)
 number of electron      44.0000000 magnetization 
 augmentation part       44.0000000 magnetization 

 Free energy of the ion-electron system (eV)
  ---------------------------------------------------
  alpha Z        PSCENC =         0.85132753
  Ewald energy   TEWEN  =      3249.38137581
  -Hartree energ DENC   =     -4582.57818006
  -exchange      EXHF   =         0.00000000
  -V(xc)+E(xc)   XCENC  =       148.10601113
  PAW double counting   =      1351.96256851    -1341.67002104
  entropy T*S    EENTRO =        -0.00000000
  eigenvalues    EBANDS =      -793.28002582
  atomic energy  EATOM  =      1847.54323162
  ---------------------------------------------------
  free energy    TOTEN  =      -119.68371232 eV

  energy without entropy =     -119.68371232  energy(sigma->0) =     -119.68371232


--------------------------------------------------------------------------------------------------------




--------------------------------------- Iteration      1(   5)  ---------------------------------------


    TRIAL :  cpu time      3.0647: real time      3.0666
    CORREC:  cpu time      0.0001: real time      0.0001
    CHARGE:  cpu time      0.4464: real time      0.4477
    --------------------------------------------
      LOOP:  cpu time      3.5331: real time      3.5421

 eigenvalue-minimisations  :    80
 total energy-change (2. order) :-0.6828518E+01  (-0.6815977E+01)
 number of electron      44.0000000 magnetization 
 augmentation part        0.0864499 magnetization 

 Free energy of the ion-electron system (eV)
  ---------------------------------------------------
  alpha Z        PSCENC =         0.85132753
  Ewald energy   TEWEN  =      3249.38137581
  -Hartree energ DENC   =     -4582.57818006
  -exchange      EXHF   =         0.00000000
  -V(xc)+E(xc)   XCENC  =       148.10601113
  PAW double counting   =      1351.96256851    -1341.67002104
  entropy T*S    EENTRO =        -0.00000000
  eigenvalues    EBANDS =      -800.10854374
  atomic energy  EATOM  =      1847.54323162
  ---------------------------------------------------
  free energy    TOTEN  =      -126.51223024 eV

  energy without entropy =     -126.51223024  energy(sigma->0) =     -126.51223024


--------------------------------------------------------------------------------------------------------




--------------------------------------- Iteration      1(   6)  ---------------------------------------


    POTLOK:  cpu time      1.9087: real time      1.9090
    SETDIJ:  cpu time      0.2888: real time      0.2891
    TRIAL :  cpu time      2.6109: real time      2.6131
    CORREC:  cpu time      3.2824: real time      3.2845
    CHARGE:  cpu time      0.4239: real time      0.4240
    --------------------------------------------
      LOOP:  cpu time      8.5274: real time      8.5481

 eigenvalue-minimisations  :     0
 total energy-change (2. order) : 0.2848604E+02  (-0.5756196E+01)
 number of electron      44.0000000 magnetization 
 augmentation part        0.0585361 magnetization 

 Free energy of the ion-electron system (eV)
  ---------------------------------------------------
  alpha Z        PSCENC =         0.85132753
  Ewald energy   TEWEN  =      3249.38137581
  -Hartree energ DENC   =     -4923.27630733
  -exchange      EXHF   =         0.00000000
  -V(xc)+E(xc)   XCENC  =       169.67460750
  PAW double counting   =     21356.20885849   -21347.67614981
  entropy T*S    EENTRO =        -0.00000000
  eigenvalues    EBANDS =      -450.73313265
  atomic energy  EATOM  =      1847.54323162
  ---------------------------------------------------
  free energy    TOTEN  =       -98.02618884 eV

  energy without entropy =      -98.02618884  energy(sigma->0) =      -98.02618884


--------------------------------------------------------------------------------------------------------




--------------------------------------- Iteration      1(   7)  ---------------------------------------


    POTLOK:  cpu time      1.9079: real time      1.9085
    SETDIJ:  cpu time      0.2863: real time      0.2864
    TRIAL :  cpu time      2.6079: real time      2.6097
    CORREC:  cpu time      3.2856: real time      3.2872
    CHARGE:  cpu time      0.4209: real time      0.4213
    --------------------------------------------
      LOOP:  cpu time      8.5235: real time      8.5413

 eigenvalue-minimisations  :     0
 total energy-change (2. order) :-0.5788042E+01  (-0.9246832E+00)
 number of electron      44.0000000 magnetization 
 augmentation part        0.0420600 magnetization 

 Free energy of the ion-electron system (eV)
  ---------------------------------------------------
  alpha Z        PSCENC =         0.85132753
  Ewald energy   TEWEN  =      3249.38137581
  -Hartree energ DENC   =     -4780.28691271
  -exchange      EXHF   =         0.00000000
  -V(xc)+E(xc)   XCENC  =       161.89453308
  PAW double counting   =     23383.28610309   -23373.67040910
  entropy T*S    EENTRO =        -0.00000000
  eigenvalues    EBANDS =      -592.81348000
  atomic energy  EATOM  =      1847.54323162
  ---------------------------------------------------
  free energy    TOTEN  =      -103.81423067 eV

  energy without entropy =     -103.81423067  energy(sigma->0) =     -103.81423067


--------------------------------------------------------------------------------------------------------




--------------------------------------- Iteration      1(   8)  ---------------------------------------


    POTLOK:  cpu time      1.9030: real time      1.9037
    SETDIJ:  cpu time      0.2927: real time      0.2927
    TRIAL :  cpu time      2.6048: real time      2.6062
    CORREC:  cpu time      3.2861: real time      3.2885
    CHARGE:  cpu time      0.4219: real time      0.4219
    --------------------------------------------
      LOOP:  cpu time      8.5214: real time      8.5415

 eigenvalue-minimisations  :     0
 total energy-change (2. order) :-0.9305360E+00  (-0.3746917E+00)
 number of electron      44.0000000 magnetization 
 augmentation part        0.0473127 magnetization 

 Free energy of the ion-electron system (eV)
  ---------------------------------------------------
  alpha Z        PSCENC =         0.85132753
  Ewald energy   TEWEN  =      3249.38137581
  -Hartree energ DENC   =     -4780.07686993
  -exchange      EXHF   =         0.00000000
  -V(xc)+E(xc)   XCENC  =       161.82937442
  PAW double counting   =     24141.10685486   -24131.39313815
  entropy T*S    EENTRO =        -0.00000000
  eigenvalues    EBANDS =      -593.98692285
  atomic energy  EATOM  =      1847.54323162
  ---------------------------------------------------
  free energy    TOTEN  =      -104.74476668 eV

  energy without entropy =     -104.74476668  energy(sigma->0) =     -104.74476668


--------------------------------------------------------------------------------------------------------




--------------------------------------- Iteration      1(   9)  ---------------------------------------


    POTLOK:  cpu time      1.9085: real time      1.9093
    SETDIJ:  cpu time      0.2934: real time      0.2934
    TRIAL :  cpu time      2.6096: real time      2.6114
    CORREC:  cpu time      3.2905: real time      3.2921
    CHARGE:  cpu time      0.4268: real time      0.4271
    --------------------------------------------
      LOOP:  cpu time      8.5436: real time      8.5622

 eigenvalue-minimisations  :     0
 total energy-change (2. order) :-0.3744350E+00  (-0.1696680E+00)
 number of electron      44.0000000 magnetization 
 augmentation part        0.0498745 magnetization 

 Free energy of the ion-electron system (eV)
  ---------------------------------------------------
  alpha Z        PSCENC =         0.85132753
  Ewald energy   TEWEN  =      3249.38137581
  -Hartree energ DENC   =     -4783.59069112
  -exchange      EXHF   =         0.00000000
  -V(xc)+E(xc)   XCENC  =       161.81227978
  PAW double counting   =     25252.96379446   -25243.20827567
  entropy T*S    EENTRO =        -0.00000000
  eigenvalues    EBANDS =      -590.87224414
  atomic energy  EATOM  =      1847.54323162
  ---------------------------------------------------
  free energy    TOTEN  =      -105.11920172 eV

  energy without entropy =     -105.11920172  energy(sigma->0) =     -105.11920172


--------------------------------------------------------------------------------------------------------




--------------------------------------- Iteration      1(  10)  ---------------------------------------


    POTLOK:  cpu time      1.9048: real time      1.9056
    SETDIJ:  cpu time      0.2985: real time      0.2986
    TRIAL :  cpu time      2.6101: real time      2.6124
    CORREC:  cpu time      3.2870: real time      3.2883
    CHARGE:  cpu time      0.4226: real time      0.4226
    --------------------------------------------
      LOOP:  cpu time      8.5359: real time      8.5564

 eigenvalue-minimisations  :     0
 total energy-change (2. order) :-0.1680860E+00  (-0.6251545E-01)
 number of electron      44.0000000 magnetization 
 augmentation part        0.0522235 magnetization 

 Free energy of the ion-electron system (eV)
  ---------------------------------------------------
  alpha Z        PSCENC =         0.85132753
  Ewald energy   TEWEN  =      3249.38137581
  -Hartree energ DENC   =     -4777.28928500
  -exchange      EXHF   =         0.00000000
  -V(xc)+E(xc)   XCENC  =       161.61574550
  PAW double counting   =     25476.22275595   -25466.44085375
  entropy T*S    EENTRO =        -0.00000000
  eigenvalues    EBANDS =      -597.17158539
  atomic energy  EATOM  =      1847.54323162
  ---------------------------------------------------
  free energy    TOTEN  =      -105.28728772 eV

  energy without entropy =     -105.28728772  energy(sigma->0) =     -105.28728772


--------------------------------------------------------------------------------------------------------




--------------------------------------- Iteration      1(  11)  ---------------------------------------


    POTLOK:  cpu time      1.9000: real time      1.9007
    SETDIJ:  cpu time      0.2954: real time      0.2956
    TRIAL :  cpu time      2.6059: real time      2.6072
    CORREC:  cpu time      3.2837: real time      3.2852
    CHARGE:  cpu time      0.4213: real time      0.4218
    --------------------------------------------
      LOOP:  cpu time      8.5215: real time      8.5385

 eigenvalue-minimisations  :     0
 total energy-change (2. order) :-0.6223222E-01  (-0.2102856E-01)
 number of electron      44.0000000 magnetization 
 augmentation part        0.0530971 magnetization 

 Free energy of the ion-electron system (eV)
  ---------------------------------------------------
  alpha Z        PSCENC =         0.85132753
  Ewald energy   TEWEN  =      3249.38137581
  -Hartree energ DENC   =     -4773.61913602
  -exchange      EXHF   =         0.00000000
  -V(xc)+E(xc)   XCENC  =       161.57811511
  PAW double counting   =     25148.16257827   -25138.40144266
  entropy T*S    EENTRO =        -0.00000000
  eigenvalues    EBANDS =      -600.84556960
  atomic energy  EATOM  =      1847.54323162
  ---------------------------------------------------
  free energy    TOTEN  =      -105.34951994 eV

  energy without entropy =     -105.34951994  energy(sigma->0) =     -105.34951994


--------------------------------------------------------------------------------------------------------




--------------------------------------- Iteration      1(  12)  ---------------------------------------


    POTLOK:  cpu time      1.8939: real time      1.8946
    SETDIJ:  cpu time      0.2993: real time      0.2993
    TRIAL :  cpu time      2.6078: real time      2.6097
    CORREC:  cpu time      3.2836: real time      3.2853
    CHARGE:  cpu time      0.4237: real time      0.4237
    --------------------------------------------
      LOOP:  cpu time      8.5216: real time      8.5409

 eigenvalue-minimisations  :     0
 total energy-change (2. order) :-0.2100420E-01  (-0.6475725E-02)
 number of electron      44.0000000 magnetization 
 augmentation part        0.0528209 magnetization 

 Free energy of the ion-electron system (eV)
  ---------------------------------------------------
  alpha Z        PSCENC =         0.85132753
  Ewald energy   TEWEN  =      3249.38137581
  -Hartree energ DENC   =     -4773.43633044
  -exchange      EXHF   =         0.00000000
  -V(xc)+E(xc)   XCENC  =       161.54858369
  PAW double counting   =     24934.10059869   -24924.35122413
  entropy T*S    EENTRO =        -0.00000000
  eigenvalues    EBANDS =      -601.00808691
  atomic energy  EATOM  =      1847.54323162
  ---------------------------------------------------
  free energy    TOTEN  =      -105.37052414 eV

  energy without entropy =     -105.37052414  energy(sigma->0) =     -105.37052414


--------------------------------------------------------------------------------------------------------




--------------------------------------- Iteration      1(  13)  ---------------------------------------


    POTLOK:  cpu time      1.8969: real time      1.8976
    SETDIJ:  cpu time      0.2961: real time      0.2964
    TRIAL :  cpu time      2.6106: real time      2.6120
    CORREC:  cpu time      3.2848: real time      3.2867
    CHARGE:  cpu time      0.4213: real time      0.4218
    --------------------------------------------
      LOOP:  cpu time      8.5242: real time      8.5426

 eigenvalue-minimisations  :     0
 total energy-change (2. order) :-0.6486776E-02  (-0.2303327E-02)
 number of electron      44.0000000 magnetization 
 augmentation part        0.0529316 magnetization 

 Free energy of the ion-electron system (eV)
  ---------------------------------------------------
  alpha Z        PSCENC =         0.85132753
  Ewald energy   TEWEN  =      3249.38137581
  -Hartree energ DENC   =     -4773.52146435
  -exchange      EXHF   =         0.00000000
  -V(xc)+E(xc)   XCENC  =       161.52458309
  PAW double counting   =     24819.90067734   -24810.15316095
  entropy T*S    EENTRO =        -0.00000000
  eigenvalues    EBANDS =      -600.90358101
  atomic energy  EATOM  =      1847.54323162
  ---------------------------------------------------
  free energy    TOTEN  =      -105.37701092 eV

  energy without entropy =     -105.37701092  energy(sigma->0) =     -105.37701092


--------------------------------------------------------------------------------------------------------




--------------------------------------- Iteration      1(  14)  ---------------------------------------


    POTLOK:  cpu time      1.8943: real time      1.8950
    SETDIJ:  cpu time      0.3030: real time      0.3030
    TRIAL :  cpu time      2.6079: real time      2.6096
    CORREC:  cpu time      3.2783: real time      3.2806
    CHARGE:  cpu time      0.4234: real time      0.4234
    --------------------------------------------
      LOOP:  cpu time      8.5195: real time      8.5392

 eigenvalue-minimisations  :     0
 total energy-change (2. order) :-0.2301324E-02  (-0.8910344E-03)
 number of electron      44.0000000 magnetization 
 augmentation part        0.0529638 magnetization 

 Free energy of the ion-electron system (eV)
  ---------------------------------------------------
  alpha Z        PSCENC =         0.85132753
  Ewald energy   TEWEN  =      3249.38137581
  -Hartree energ DENC   =     -4773.39279843
  -exchange      EXHF   =         0.00000000
  -V(xc)+E(xc)   XCENC  =       161.51806377
  PAW double counting   =     24737.80341017   -24728.05901919
  entropy T*S    EENTRO =        -0.00000000
  eigenvalues    EBANDS =      -601.02490352
  atomic energy  EATOM  =      1847.54323162
  ---------------------------------------------------
  free energy    TOTEN  =      -105.37931224 eV

  energy without entropy =     -105.37931224  energy(sigma->0) =     -105.37931224


--------------------------------------------------------------------------------------------------------




--------------------------------------- Iteration      1(  15)  ---------------------------------------


    POTLOK:  cpu time      1.8930: real time      1.8938
    SETDIJ:  cpu time      0.3034: real time      0.3038
    TRIAL :  cpu time      2.6080: real time      2.6095
    CORREC:  cpu time      3.2801: real time      3.2828
    CHARGE:  cpu time      0.4241: real time      0.4241
    --------------------------------------------
      LOOP:  cpu time      8.5211: real time      8.5428

 eigenvalue-minimisations  :     0
 total energy-change (2. order) :-0.8938075E-03  (-0.3674476E-03)
 number of electron      44.0000000 magnetization 
 augmentation part        0.0530724 magnetization 

 Free energy of the ion-electron system (eV)
  ---------------------------------------------------
  alpha Z        PSCENC =         0.85132753
  Ewald energy   TEWEN  =      3249.38137581
  -Hartree energ DENC   =     -4773.47110055
  -exchange      EXHF   =         0.00000000
  -V(xc)+E(xc)   XCENC  =       161.51510792
  PAW double counting   =     24684.26638071   -24674.52242870
  entropy T*S    EENTRO =        -0.00000000
  eigenvalues    EBANDS =      -600.94410039
  atomic energy  EATOM  =      1847.54323162
  ---------------------------------------------------
  free energy    TOTEN  =      -105.38020605 eV

  energy without entropy =     -105.38020605  energy(sigma->0) =     -105.38020605


--------------------------------------------------------------------------------------------------------




--------------------------------------- Iteration      1(  16)  ---------------------------------------


    POTLOK:  cpu time      1.8936: real time      1.8948
    SETDIJ:  cpu time      0.3022: real time      0.3022
    TRIAL :  cpu time      2.6082: real time      2.6106
    CORREC:  cpu time      3.2826: real time      3.2848
    CHARGE:  cpu time      0.4214: real time      0.4219
    --------------------------------------------
      LOOP:  cpu time      8.5219: real time      8.5426

 eigenvalue-minimisations  :     0
 total energy-change (2. order) :-0.3677821E-03  (-0.1385732E-03)
 number of electron      44.0000000 magnetization 
 augmentation part        0.0531517 magnetization 

 Free energy of the ion-electron system (eV)
  ---------------------------------------------------
  alpha Z        PSCENC =         0.85132753
  Ewald energy   TEWEN  =      3249.38137581
  -Hartree energ DENC   =     -4773.67898601
  -exchange      EXHF   =         0.00000000
  -V(xc)+E(xc)   XCENC  =       161.52225876
  PAW double counting   =     24650.85195633   -24641.10857057
  entropy T*S    EENTRO =        -0.00000000
  eigenvalues    EBANDS =      -600.74316732
  atomic energy  EATOM  =      1847.54323162
  ---------------------------------------------------
  free energy    TOTEN  =      -105.38057383 eV

  energy without entropy =     -105.38057383  energy(sigma->0) =     -105.38057383


--------------------------------------------------------------------------------------------------------




--------------------------------------- Iteration      1(  17)  ---------------------------------------


    POTLOK:  cpu time      1.8889: real time      1.8892
    SETDIJ:  cpu time      0.3051: real time      0.3054
    TRIAL :  cpu time      2.6115: real time      2.6131
    CORREC:  cpu time      3.2848: real time      3.2873
    CHARGE:  cpu time      0.4228: real time      0.4228
    --------------------------------------------
      LOOP:  cpu time      8.5257: real time      8.5459

 eigenvalue-minimisations  :     0
 total energy-change (2. order) :-0.1386995E-03  (-0.4525127E-04)
 number of electron      44.0000000 magnetization 
 augmentation part        0.0531658 magnetization 

 Free energy of the ion-electron system (eV)
  ---------------------------------------------------
  alpha Z        PSCENC =         0.85132753
  Ewald energy   TEWEN  =      3249.38137581
  -Hartree energ DENC   =     -4773.65176037
  -exchange      EXHF   =         0.00000000
  -V(xc)+E(xc)   XCENC  =       161.52229021
  PAW double counting   =     24642.42081400   -24632.67690618
  entropy T*S    EENTRO =        -0.00000000
  eigenvalues    EBANDS =      -600.77108516
  atomic energy  EATOM  =      1847.54323162
  ---------------------------------------------------
  free energy    TOTEN  =      -105.38071253 eV

  energy without entropy =     -105.38071253  energy(sigma->0) =     -105.38071253


--------------------------------------------------------------------------------------------------------




--------------------------------------- Iteration      1(  18)  ---------------------------------------


    POTLOK:  cpu time      1.8932: real time      1.8939
    SETDIJ:  cpu time      0.3032: real time      0.3032
    TRIAL :  cpu time      2.6081: real time      2.6100
    CORREC:  cpu time      3.2872: real time      3.2888
    CHARGE:  cpu time      0.4236: real time      0.4241
    --------------------------------------------
      LOOP:  cpu time      8.5270: real time      8.5480

 eigenvalue-minimisations  :     0
 total energy-change (2. order) :-0.4542478E-04  (-0.1554496E-04)
 number of electron      44.0000000 magnetization 
 augmentation part        0.0531685 magnetization 

 Free energy of the ion-electron system (eV)
  ---------------------------------------------------
  alpha Z        PSCENC =         0.85132753
  Ewald energy   TEWEN  =      3249.38137581
  -Hartree energ DENC   =     -4773.68328155
  -exchange      EXHF   =         0.00000000
  -V(xc)+E(xc)   XCENC  =       161.52379197
  PAW double counting   =     24648.63475314   -24638.89044047
  entropy T*S    EENTRO =        -0.00000000
  eigenvalues    EBANDS =      -600.74151601
  atomic energy  EATOM  =      1847.54323162
  ---------------------------------------------------
  free energy    TOTEN  =      -105.38075796 eV

  energy without entropy =     -105.38075796  energy(sigma->0) =     -105.38075796


--------------------------------------------------------------------------------------------------------




--------------------------------------- Iteration      1(  19)  ---------------------------------------


    POTLOK:  cpu time      1.8896: real time      1.8906
    SETDIJ:  cpu time      0.3063: real time      0.3064
    TRIAL :  cpu time      2.6110: real time      2.6124
    CORREC:  cpu time      3.2822: real time      3.2846
    CHARGE:  cpu time      0.4193: real time      0.4195
    --------------------------------------------
      LOOP:  cpu time      8.5208: real time      8.5413

 eigenvalue-minimisations  :     0
 total energy-change (2. order) :-0.1474862E-04  (-0.4092785E-05)
 number of electron      44.0000000 magnetization 
 augmentation part        0.0531503 magnetization 

 Free energy of the ion-electron system (eV)
  ---------------------------------------------------
  alpha Z        PSCENC =         0.85132753
  Ewald energy   TEWEN  =      3249.38137581
  -Hartree energ DENC   =     -4773.71160492
  -exchange      EXHF   =         0.00000000
  -V(xc)+E(xc)   XCENC  =       161.52561361
  PAW double counting   =     24657.44434543   -24647.70000340
  entropy T*S    EENTRO =        -0.00000000
  eigenvalues    EBANDS =      -600.71505839
  atomic energy  EATOM  =      1847.54323162
  ---------------------------------------------------
  free energy    TOTEN  =      -105.38077270 eV

  energy without entropy =     -105.38077270  energy(sigma->0) =     -105.38077270


--------------------------------------------------------------------------------------------------------




--------------------------------------- Iteration      1(  20)  ---------------------------------------


    POTLOK:  cpu time      1.8923: real time      1.8930
    SETDIJ:  cpu time      0.3060: real time      0.3060
    TRIAL :  cpu time      2.6059: real time      2.6078
    CORREC:  cpu time     13.1372: real time     13.1430
    CHARGE:  cpu time      0.4222: real time      0.4226
    --------------------------------------------
      LOOP:  cpu time     18.3763: real time     18.4007

 eigenvalue-minimisations  :     0
 total energy-change (2. order) :-0.4093032E-05  (-0.6430743E-05)
 number of electron      44.0000000 magnetization 
 augmentation part        0.0531546 magnetization 

 Free energy of the ion-electron system (eV)
  ---------------------------------------------------
  alpha Z        PSCENC =         0.85132753
  Ewald energy   TEWEN  =      3249.38137581
  -Hartree energ DENC   =     -4773.68108379
  -exchange      EXHF   =         0.00000000
  -V(xc)+E(xc)   XCENC  =       161.52431334
  PAW double counting   =     24663.16095995   -24653.41640066
  entropy T*S    EENTRO =        -0.00000000
  eigenvalues    EBANDS =      -600.74450060
  atomic energy  EATOM  =      1847.54323162
  ---------------------------------------------------
  free energy    TOTEN  =      -105.38077680 eV

  energy without entropy =     -105.38077680  energy(sigma->0) =     -105.38077680


--------------------------------------------------------------------------------------------------------




--------------------------------------- Iteration      1(  21)  ---------------------------------------


    POTLOK:  cpu time      1.8916: real time      1.8918
    SETDIJ:  cpu time      0.3058: real time      0.3061
    TRIAL :  cpu time      2.6059: real time      2.6072
    CORREC:  cpu time      3.2841: real time      3.2869
    CHARGE:  cpu time      0.4212: real time      0.4212
    --------------------------------------------
      LOOP:  cpu time      8.5208: real time      8.5414

 eigenvalue-minimisations  :     0
 total energy-change (2. order) : 0.1184148E-04  (-0.1332294E-04)
 number of electron      44.0000000 magnetization 
 augmentation part        0.0531147 magnetization 

 Free energy of the ion-electron system (eV)
  ---------------------------------------------------
  alpha Z        PSCENC =         0.85132753
  Ewald energy   TEWEN  =      3249.38137581
  -Hartree energ DENC   =     -4773.72843845
  -exchange      EXHF   =         0.00000000
  -V(xc)+E(xc)   XCENC  =       161.52706074
  PAW double counting   =     24677.93076939   -24668.18687156
  entropy T*S    EENTRO =        -0.00000000
  eigenvalues    EBANDS =      -600.69922005
  atomic energy  EATOM  =      1847.54323162
  ---------------------------------------------------
  free energy    TOTEN  =      -105.38076496 eV

  energy without entropy =     -105.38076496  energy(sigma->0) =     -105.38076496


--------------------------------------------------------------------------------------------------------




--------------------------------------- Iteration      1(  22)  ---------------------------------------


    POTLOK:  cpu time      1.8946: real time      1.8954
    SETDIJ:  cpu time      0.3033: real time      0.3034
    TRIAL :  cpu time      2.6158: real time      2.6178
    CORREC:  cpu time      3.2874: real time      3.2892
    CHARGE:  cpu time      0.4212: real time      0.4216
    --------------------------------------------
      LOOP:  cpu time      8.5377: real time      8.5563

 eigenvalue-minimisations  :     0
 total energy-change (2. order) :-0.1226713E-04  (-0.2880078E-05)
 number of electron      44.0000000 magnetization 
 augmentation part        0.0531474 magnetization 

 Free energy of the ion-electron system (eV)
  ---------------------------------------------------
  alpha Z        PSCENC =         0.85132753
  Ewald energy   TEWEN  =      3249.38137581
  -Hartree energ DENC   =     -4773.66122992
  -exchange      EXHF   =         0.00000000
  -V(xc)+E(xc)   XCENC  =       161.52339324
  PAW double counting   =     24677.08613548   -24667.34161989
  entropy T*S    EENTRO =        -0.00000000
  eigenvalues    EBANDS =      -600.76339110
  atomic energy  EATOM  =      1847.54323162
  ---------------------------------------------------
  free energy    TOTEN  =      -105.38077722 eV

  energy without entropy =     -105.38077722  energy(sigma->0) =     -105.38077722


--------------------------------------------------------------------------------------------------------




--------------------------------------- Iteration      1(  23)  ---------------------------------------


    POTLOK:  cpu time      1.8899: real time      1.8907
    SETDIJ:  cpu time      0.3066: real time      0.3066
    TRIAL :  cpu time      2.6088: real time      2.6101
    CORREC:  cpu time      3.2852: real time      3.2872
    CHARGE:  cpu time      0.4206: real time      0.4207
    --------------------------------------------
      LOOP:  cpu time      8.5234: real time      8.5437

 eigenvalue-minimisations  :     0
 total energy-change (2. order) :-0.2788711E-05  (-0.3169033E-06)
 number of electron      44.0000000 magnetization 
 augmentation part        0.0531430 magnetization 

 Free energy of the ion-electron system (eV)
  ---------------------------------------------------
  alpha Z        PSCENC =         0.85132753
  Ewald energy   TEWEN  =      3249.38137581
  -Hartree energ DENC   =     -4773.70675579
  -exchange      EXHF   =         0.00000000
  -V(xc)+E(xc)   XCENC  =       161.52597518
  PAW double counting   =     24673.70230178   -24663.95818058
  entropy T*S    EENTRO =        -0.00000000
  eigenvalues    EBANDS =      -600.72005557
  atomic energy  EATOM  =      1847.54323162
  ---------------------------------------------------
  free energy    TOTEN  =      -105.38078001 eV

  energy without entropy =     -105.38078001  energy(sigma->0) =     -105.38078001


--------------------------------------------------------------------------------------------------------




--------------------------------------- Iteration      1(  24)  ---------------------------------------


    POTLOK:  cpu time      1.8982: real time      1.8989
    SETDIJ:  cpu time      0.2955: real time      0.2955
    TRIAL :  cpu time      2.6334: real time      2.6353
    CORREC:  cpu time      3.2809: real time      3.2824
    CHARGE:  cpu time      0.4227: real time      0.4232
    --------------------------------------------
      LOOP:  cpu time      8.5457: real time      8.5641

 eigenvalue-minimisations  :     0
 total energy-change (2. order) : 0.1177978E-07  (-0.3283953E-06)
 number of electron      44.0000000 magnetization 
 augmentation part        0.0531359 magnetization 

 Free energy of the ion-electron system (eV)
  ---------------------------------------------------
  alpha Z        PSCENC =         0.85132753
  Ewald energy   TEWEN  =      3249.38137581
  -Hartree energ DENC   =     -4773.69879907
  -exchange      EXHF   =         0.00000000
  -V(xc)+E(xc)   XCENC  =       161.52542474
  PAW double counting   =     24672.69552845   -24662.95130736
  entropy T*S    EENTRO =        -0.00000000
  eigenvalues    EBANDS =      -600.72756172
  atomic energy  EATOM  =      1847.54323162
  ---------------------------------------------------
  free energy    TOTEN  =      -105.38078000 eV

  energy without entropy =     -105.38078000  energy(sigma->0) =     -105.38078000


--------------------------------------------------------------------------------------------------------




--------------------------------------- Iteration      1(  25)  ---------------------------------------


    POTLOK:  cpu time      1.8915: real time      1.8922
    SETDIJ:  cpu time      0.3031: real time      0.3031
    TRIAL :  cpu time      2.6084: real time      2.6106
    CORREC:  cpu time      3.2846: real time      3.2863
    CHARGE:  cpu time      0.4219: real time      0.4219
    --------------------------------------------
      LOOP:  cpu time      8.5226: real time      8.5418

 eigenvalue-minimisations  :     0
 total energy-change (2. order) : 0.7547715E-07  (-0.2570290E-06)
 number of electron      44.0000000 magnetization 
 augmentation part        0.0531362 magnetization 

 Free energy of the ion-electron system (eV)
  ---------------------------------------------------
  alpha Z        PSCENC =         0.85132753
  Ewald energy   TEWEN  =      3249.38137581
  -Hartree energ DENC   =     -4773.68667038
  -exchange      EXHF   =         0.00000000
  -V(xc)+E(xc)   XCENC  =       161.52465861
  PAW double counting   =     24672.08808842   -24662.34373856
  entropy T*S    EENTRO =        -0.00000000
  eigenvalues    EBANDS =      -600.73905298
  atomic energy  EATOM  =      1847.54323162
  ---------------------------------------------------
  free energy    TOTEN  =      -105.38077992 eV

  energy without entropy =     -105.38077992  energy(sigma->0) =     -105.38077992


--------------------------------------------------------------------------------------------------------




--------------------------------------- Iteration      1(  26)  ---------------------------------------


    POTLOK:  cpu time      1.8900: real time      1.8906
    SETDIJ:  cpu time      0.3068: real time      0.3071
    TRIAL :  cpu time      2.6113: real time      2.6128
    CORREC:  cpu time      3.2804: real time      3.2822
    CHARGE:  cpu time      0.4229: real time      0.4231
    --------------------------------------------
      LOOP:  cpu time      8.5244: real time      8.5460

 eigenvalue-minimisations  :     0
 total energy-change (2. order) :-0.2322013E-06  (-0.1378524E-06)
 number of electron      44.0000000 magnetization 
 augmentation part        0.0531422 magnetization 

 Free energy of the ion-electron system (eV)
  ---------------------------------------------------
  alpha Z        PSCENC =         0.85132753
  Ewald energy   TEWEN  =      3249.38137581
  -Hartree energ DENC   =     -4773.68338218
  -exchange      EXHF   =         0.00000000
  -V(xc)+E(xc)   XCENC  =       161.52449169
  PAW double counting   =     24671.55104739   -24661.80667868
  entropy T*S    EENTRO =        -0.00000000
  eigenvalues    EBANDS =      -600.74219335
  atomic energy  EATOM  =      1847.54323162
  ---------------------------------------------------
  free energy    TOTEN  =      -105.38078016 eV

  energy without entropy =     -105.38078016  energy(sigma->0) =     -105.38078016


--------------------------------------------------------------------------------------------------------




--------------------------------------- Iteration      1(  27)  ---------------------------------------


    POTLOK:  cpu time      1.8889: real time      1.8900
    SETDIJ:  cpu time      0.3032: real time      0.3032
    TRIAL :  cpu time      2.6080: real time      2.6099
    CORREC:  cpu time      3.2830: real time      3.2848
    EDDIAG:  cpu time      0.6686: real time      0.6692
    CHARGE:  cpu time      0.4195: real time      0.4196
    --------------------------------------------
      LOOP:  cpu time      9.1831: real time      9.2051

 eigenvalue-minimisations  :     0
 total energy-change (2. order) :-0.5609763E-07  (-0.3812787E-07)
 number of electron      44.0000000 magnetization 
 augmentation part        0.0531406 magnetization 

 Free energy of the ion-electron system (eV)
  ---------------------------------------------------
  alpha Z        PSCENC =         0.85132753
  Ewald energy   TEWEN  =      3249.38137581
  -Hartree energ DENC   =     -4773.68865622
  -exchange      EXHF   =         0.00000000
  -V(xc)+E(xc)   XCENC  =       161.52476180
  PAW double counting   =     24669.95928968   -24660.21496797
  entropy T*S    EENTRO =        -0.00000000
  eigenvalues    EBANDS =      -600.73714246
  atomic energy  EATOM  =      1847.54323162
  ---------------------------------------------------
  free energy    TOTEN  =      -105.38078021 eV

  energy without entropy =     -105.38078021  energy(sigma->0) =     -105.38078021


--------------------------------------------------------------------------------------------------------


  average scaling for gradient   0.8008


 average (electrostatic) potential at core
  the test charge radii are     0.5770  0.4325  0.5955
  (the norm of the test charge is              1.0000)
       1 -88.9875       2 -88.9868       3 -88.9875       4 -88.9872       5 -90.8608
       6 -90.8590       7 -47.4100       8 -47.6738       9 -47.6736      10 -47.6741
      11 -47.4124      12 -47.6748      13 -47.4084      14 -47.4148      15-123.1635
      16-123.1752



 E-fermi :  -5.9284     XC(G=0):  -0.2281     alpha+bet : -0.1477

 Fermi energy:        -5.9284053365

 k-point     1 :       0.0000    0.0000    0.0000
  band No.  band energies     occupation 
      1     -27.5862      2.00000
      2     -27.5465      2.00000
      3     -21.9593      2.00000
      4     -20.2123      2.00000
      5     -18.4737      2.00000
      6     -17.1497      2.00000
      7     -14.6997      2.00000
      8     -13.2113      2.00000
      9     -13.0639      2.00000
     10     -12.1032      2.00000
     11     -12.0287      2.00000
     12     -11.1438      2.00000
     13     -10.9915      2.00000
     14     -10.7198      2.00000
     15     -10.3693      2.00000
     16     -10.0249      2.00000
     17      -9.9231      2.00000
     18      -9.4631      2.00000
     19      -8.9873      2.00000
     20      -8.5445      2.00000
     21      -6.1395      2.00000
     22      -6.0312      2.00000
     23      -1.7233      0.00000
     24      -1.6366      0.00000
     25      -0.1778      0.00000
     26       0.2389      0.00000
     27       0.3502      0.00000
     28       0.3969      0.00000
     29       0.4803      0.00000
     30       0.4960      0.00000
     31       0.9151      0.00000
     32       4.9768      0.00000


--------------------------------------------------------------------------------------------------------


 soft charge-density along one line, spin component           1
         0         1         2         3         4         5         6         7         8         9
 total charge-density along one line

 pseudopotential strength for first ion, spin component:           1
 12.675  21.328   0.001   0.002   0.000   0.001   0.004   0.001
 21.328  35.887   0.001   0.003   0.001   0.002   0.006   0.002
  0.001   0.001  -3.255   0.001   0.001  -5.832   0.001   0.001
  0.002   0.003   0.001  -3.254   0.001   0.001  -5.831   0.002
  0.000   0.001   0.001   0.001  -3.257   0.001   0.002  -5.836
  0.001   0.002  -5.832   0.001   0.001 -10.428   0.001   0.002
  0.004   0.006   0.001  -5.831   0.002   0.001 -10.426   0.004
  0.001   0.002   0.001   0.002  -5.836   0.002   0.004 -10.435
 total augmentation occupancy for first ion, spin component:           1
  9.247  -3.425   0.093   0.105  -0.160  -0.075  -0.038   0.064
 -3.425   1.295  -0.085  -0.048   0.054   0.057   0.012  -0.022
  0.093  -0.085   6.596   0.026   0.003  -2.226   0.002   0.016
  0.105  -0.048   0.026   6.468   0.030   0.002  -2.150   0.000
 -0.160   0.054   0.003   0.030   6.580   0.016   0.000  -2.244
 -0.075   0.057  -2.226   0.002   0.016   0.761  -0.006  -0.015
 -0.038   0.012   0.002  -2.150   0.000  -0.006   0.719  -0.003
  0.064  -0.022   0.016   0.000  -2.244  -0.015  -0.003   0.776


------------------------ aborting loop because EDIFF is reached ----------------------------------------


    FORLOC:  cpu time      0.0537: real time      0.0537
    FORNL :  cpu time      0.0540: real time      0.0545
    FORCOR:  cpu time      1.9832: real time      1.9841
    OFIELD:  cpu time      0.0058: real time      0.0061

 VOLUME and BASIS-vectors are now :
 -----------------------------------------------------------------------------
  energy-cutoff  :     1000.00
  volume of cell :     6859.00
      direct lattice vectors                 reciprocal lattice vectors
    19.000000000  0.000000000  0.000000000     0.052631579  0.000000000  0.000000000
     0.000000000 19.000000000  0.000000000     0.000000000  0.052631579  0.000000000
     0.000000000  0.000000000 19.000000000     0.000000000  0.000000000  0.052631579

  length of vectors
    19.000000000 19.000000000 19.000000000     0.052631579  0.052631579  0.052631579


 FORCES acting on ions:
    Electron-Ion                     Ewald-Force                    Non-Local-Force
 -----------------------------------------------------------------------------------------------
   0.479E+02 0.179E+03 -.265E+02   -.495E+02 -.180E+03 0.256E+02   0.155E+01 0.114E+01 0.962E+00
   -.833E+02 0.151E+03 0.747E+02   0.851E+02 -.152E+03 -.740E+02   -.177E+01 0.103E+01 -.648E+00
   -.160E+02 -.158E+03 -.100E+03   0.177E+02 0.159E+03 0.100E+03   -.173E+01 -.125E+01 -.270E+00
   0.509E+02 -.172E+03 0.539E+02   -.528E+02 0.173E+03 -.538E+02   0.195E+01 -.903E+00 -.370E-01
   -.107E+02 -.815E+00 -.236E+01   0.810E+01 0.637E+00 0.167E+01   0.283E+01 0.198E+00 0.766E+00
   0.104E+02 0.872E+00 0.360E+01   -.778E+01 -.685E+00 -.294E+01   -.285E+01 -.202E+00 -.732E+00
   -.459E+02 0.778E+02 -.764E+01   0.490E+02 -.822E+02 0.904E+01   -.323E+01 0.460E+01 -.145E+01
   -.266E+02 0.144E+02 0.840E+02   0.274E+02 -.138E+02 -.893E+02   -.862E+00 -.678E+00 0.548E+01
   0.204E+02 0.426E+02 -.758E+02   -.212E+02 -.436E+02 0.810E+02   0.819E+00 0.108E+01 -.542E+01
   0.203E+02 -.151E+02 -.857E+02   -.220E+02 0.143E+02 0.907E+02   0.186E+01 0.738E+00 -.521E+01
   -.334E+02 -.833E+02 -.131E+02   0.362E+02 0.881E+02 0.133E+02   -.291E+01 -.502E+01 -.166E+00
   -.142E+02 -.418E+02 0.777E+02   0.159E+02 0.429E+02 -.826E+02   -.182E+01 -.112E+01 0.516E+01
   0.501E+02 -.750E+02 -.925E+01   -.538E+02 0.790E+02 0.103E+02   0.388E+01 -.417E+01 -.114E+01
   0.290E+02 0.803E+02 0.306E+02   -.312E+02 -.847E+02 -.333E+02   0.225E+01 0.458E+01 0.277E+01
   -.394E+03 -.269E+02 -.106E+03   0.445E+03 0.303E+02 0.119E+03   -.513E+02 -.348E+01 -.137E+02
   0.395E+03 0.271E+02 0.102E+03   -.446E+03 -.305E+02 -.115E+03   0.515E+02 0.349E+01 0.132E+02
 -----------------------------------------------------------------------------------------------
   -.115E+00 0.875E-02 0.487E+00   -.114E-12 0.639E-13 -.142E-13   0.135E+00 0.215E-01 -.465E+00


 POSITION                                       TOTAL-FORCE (eV/Angst)
 -----------------------------------------------------------------------------------
      8.88549      8.18627      9.31883        -0.030688      0.086857     -0.002632
     10.38057      8.38655      9.03672         0.028281      0.087299      0.030956
      9.95913     10.72654     10.02168         0.038589     -0.078666     -0.022958
      8.78469     10.74207      9.03431        -0.032869     -0.087694      0.000146
     10.95393      9.60975      9.73853         0.468671      0.036344      0.130474
      8.04929      9.41075      8.97339        -0.489533     -0.027348     -0.124061
     10.97825      7.51183      9.31492        -0.118913      0.178765     -0.050773
     10.53647      8.53934      7.95552        -0.030056     -0.016353      0.217521
      8.73398      7.99364     10.39427         0.022847      0.049602     -0.213889
      9.58109     10.56042     11.04448         0.077879      0.019430     -0.206098
     10.49919     11.67930     10.04260        -0.103235     -0.198588     -0.010765
      9.15869     10.94424      8.01650        -0.076883     -0.057628      0.200399
      8.06014     11.53179      9.26022         0.138069     -0.166144     -0.042483
      8.47350      7.32070      8.78900         0.076825      0.176560      0.097532
     12.12626      9.68930     10.05298        -0.856776     -0.056519     -0.218583
      6.87374      9.33069      8.67122         0.887792      0.054082      0.215215
 -----------------------------------------------------------------------------------
    total drift:                                0.019776      0.030200      0.021904


--------------------------------------------------------------------------------------------------------



  FREE ENERGIE OF THE ION-ELECTRON SYSTEM (eV)
  ---------------------------------------------------
  free  energy   TOTEN  =      -105.38078021 eV

  energy  without entropy=     -105.38078021  energy(sigma->0) =     -105.38078021



--------------------------------------------------------------------------------------------------------


    POTLOK:  cpu time      2.1958: real time      2.1973


--------------------------------------------------------------------------------------------------------


 stress matrix after NEB project (eV)
      0.00000      0.00000      0.00000
      0.00000      0.00000      0.00000
      0.00000      0.00000      0.00000
  FORCES: max atom, RMS     0.915105    0.398478
  FORCE total and by dimension    1.593911    0.887792
  Stress total and by dimension    0.000000    0.000000
     LOOP+:  cpu time    221.9865: real time    222.5043
    4ORBIT:  cpu time      0.0000: real time      0.0000

 total amount of memory used by VASP MPI-rank0   125310. kBytes
=======================================================================

   base      :      30000. kBytes
   nonl-proj :       3440. kBytes
   fftplans  :      25107. kBytes
   grid      :      63813. kBytes
   one-center:          1. kBytes
   wavefun   :       2949. kBytes

  
  
 General timing and accounting informations for this job:
 ========================================================
  
                  Total CPU time used (sec):      231.954
                            User time (sec):      228.232
                          System time (sec):        3.723
                         Elapsed time (sec):      235.736
  
                   Maximum memory used (kb):      329284.
                   Average memory used (kb):          N/A
  
                          Minor page faults:       180360
                          Major page faults:         1149
                 Voluntary context switches:         4593
