 vasp.6.4.1 05Apr23 (build Jun  6 2023 14:46:38) gamma-only                      
 executed on        HPECrayEX_GCC date 2024.08.20  17:29:50
 running  256 mpi-ranks, with    1 threads/rank, on    2 nodes
 distrk:  each k-point on  128 cores,    2 groups
 distr:  one band on NCORE=  32 cores,    4 groups


--------------------------------------------------------------------------------------------------------


 INCAR:
   ALGO = Conjugate
   KPAR = 2
   NCORE = 32
   ISMEAR = 0
   SIGMA = 0.01
   PREC = Accurate
   EDIFF = 1E-7
   ENCUT = 1000
   ISIF = 0
   GGA = BO
   PARAM1 = 0.1833333333
   PARAM2 = 0.2200000000
   LUSE_VDW = .TRUE.
   AGGAC = 0.0000
   LASPH = .TRUE.
   SYMPREC = 1E-7
   LWAVE = .FALSE.
   LCHARG = .FALSE.

 POTCAR:    PAW_PBE C_h 06Feb2004                 
 POTCAR:    PAW_PBE H_h 06Feb2004                 
 POTCAR:    PAW_PBE O_h 06Feb2004                 
 -----------------------------------------------------------------------------
|                                                                             |
|               ----> ADVICE to this user running VASP <----                  |
|                                                                             |
|     You have switched on vdW-DFT.                                           |
|     This routine was written and supplied by Jiri Klimes. We recommend      |
|     that you carefully read and cite the following publications:            |
|       J. Klimes, D.R. Bowler, A. Michelides                                 |
|          J. Phys.: Cond Matt. 22 022201 (2010)                              |
|       J. Klimes, D.R. Bowler, A. Michelides                                 |
|          Phys. Rev. B. 83, 195131 (2011)                                    |
|     and references therein.                                                 |
|                                                                             |
 -----------------------------------------------------------------------------

 POTCAR:    PAW_PBE C_h 06Feb2004                 
   VRHFIN =C: s2p2                                                                                  
   LEXCH  = PE                                                                                      
   EATOM  =   147.1560 eV,   10.8157 Ry                                                             
                                                                                                    
   TITEL  = PAW_PBE C_h 06Feb2004                                                                   
   LULTRA =        F    use ultrasoft PP ?                                                          
   IUNSCR =        1    unscreen: 0-lin 1-nonlin 2-no                                               
   RPACOR =    0.800    partial core radius                                                         
   POMASS =   12.011; ZVAL   =    4.000    mass and valenz                                          
   RCORE  =    1.100    outmost cutoff radius                                                       
   RWIGS  =    1.630; RWIGS  =    0.863    wigner-seitz radius (au A)                               
   ENMAX  =  700.000; ENMIN  =  500.000 eV                                                          
   ICORE  =        2    local potential                                                             
   LCOR   =        T    correct aug charges                                                         
   LPAW   =        T    paw PP                                                                      
   EAUG   =  946.768                                                                                
   DEXC   =    0.000                                                                                
   RMAX   =    1.128    core radius for proj-oper                                                   
   RAUG   =    1.300    factor for augmentation sphere                                              
   RDEP   =    1.162    radius for radial grids                                                     
   RDEPT  =    1.088    core radius for aug-charge                                                  
                                                                                                    
   Atomic configuration                                                                             
    4 entries                                                                                       
     n  l   j            E        occ.                                                              
     1  0  0.50      -273.3789   2.0000                                                             
     2  0  0.50       -13.7508   2.0000                                                             
     2  1  0.50        -5.2854   2.0000                                                             
     3  2  1.50        -5.4423   0.0000                                                             
   Description                                                                                      
     l       E           TYP  RCUT    TYP  RCUT                                                     
     0    -13.7508458     23  1.100                                                                 
     0     -8.2022199     23  1.100                                                                 
     1     -5.2854383     23  1.100                                                                 
     1      1.1560700     23  1.100                                                                 
     2     -5.4423304      7  1.100                                                                 
  local pseudopotential read in
  partial core-charges read in
  partial kinetic energy density read in
  atomic valenz-charges read in
  non local Contribution for L=           0  read in
    real space projection operators read in
  non local Contribution for L=           0  read in
    real space projection operators read in
  non local Contribution for L=           1  read in
    real space projection operators read in
  non local Contribution for L=           1  read in
    real space projection operators read in
    PAW grid and wavefunctions read in

   number of l-projection  operators is LMAX  =           4
   number of lm-projection operators is LMMAX =           8

 POTCAR:    PAW_PBE H_h 06Feb2004                 
   VRHFIN =H: ultrasoft test                                                                        
   LEXCH  = PE                                                                                      
   EATOM  =    12.4884 eV,    0.9179 Ry                                                             
                                                                                                    
   TITEL  = PAW_PBE H_h 06Feb2004                                                                   
   LULTRA =        F    use ultrasoft PP ?                                                          
   IUNSCR =        0    unscreen: 0-lin 1-nonlin 2-no                                               
   RPACOR =    0.000    partial core radius                                                         
   POMASS =    1.000; ZVAL   =    1.000    mass and valenz                                          
   RCORE  =    0.800    outmost cutoff radius                                                       
   RWIGS  =    0.700; RWIGS  =    0.370    wigner-seitz radius (au A)                               
   ENMAX  =  700.000; ENMIN  =  350.000 eV                                                          
   RCLOC  =    0.701    cutoff for local pot                                                        
   LCOR   =        T    correct aug charges                                                         
   LPAW   =        T    paw PP                                                                      
   EAUG   = 1000.000                                                                                
   RMAX   =    0.819    core radius for proj-oper                                                   
   RAUG   =    1.000    factor for augmentation sphere                                              
   RDEP   =    0.817    radius for radial grids                                                     
   RDEPT  =    0.817    core radius for aug-charge                                                  
                                                                                                    
   Atomic configuration                                                                             
    2 entries                                                                                       
     n  l   j            E        occ.                                                              
     1  0  0.50        -6.4927   1.0000                                                             
     2  1  0.50        -3.4015   0.0000                                                             
   Description                                                                                      
     l       E           TYP  RCUT    TYP  RCUT                                                     
     0     -6.4927493     23  0.800                                                                 
     0      6.8029130     23  0.800                                                                 
     1     -6.8029130     23  0.800                                                                 
  local pseudopotential read in
  atomic valenz-charges read in
  non local Contribution for L=           0  read in
    real space projection operators read in
  non local Contribution for L=           0  read in
    real space projection operators read in
  non local Contribution for L=           1  read in
    real space projection operators read in
    PAW grid and wavefunctions read in

   number of l-projection  operators is LMAX  =           3
   number of lm-projection operators is LMMAX =           5

 POTCAR:    PAW_PBE O_h 06Feb2004                 
   VRHFIN =O: s2p4                                                                                  
   LEXCH  = PE                                                                                      
   EATOM  =   432.3788 eV,   31.7789 Ry                                                             
                                                                                                    
   TITEL  = PAW_PBE O_h 06Feb2004                                                                   
   LULTRA =        F    use ultrasoft PP ?                                                          
   IUNSCR =        1    unscreen: 0-lin 1-nonlin 2-no                                               
   RPACOR =    0.800    partial core radius                                                         
   POMASS =   16.000; ZVAL   =    6.000    mass and valenz                                          
   RCORE  =    1.100    outmost cutoff radius                                                       
   RWIGS  =    1.400; RWIGS  =    0.741    wigner-seitz radius (au A)                               
   ENMAX  =  700.000; ENMIN  =  500.000 eV                                                          
   ICORE  =        2    local potential                                                             
   LCOR   =        T    correct aug charges                                                         
   LPAW   =        T    paw PP                                                                      
   EAUG   =  888.804                                                                                
   DEXC   =    0.000                                                                                
   RMAX   =    1.128    core radius for proj-oper                                                   
   RAUG   =    1.300    factor for augmentation sphere                                              
   RDEP   =    1.125    radius for radial grids                                                     
   RDEPT  =    1.088    core radius for aug-charge                                                  
                                                                                                    
   Atomic configuration                                                                             
    4 entries                                                                                       
     n  l   j            E        occ.                                                              
     1  0  0.50      -514.6923   2.0000                                                             
     2  0  0.50       -23.9615   2.0000                                                             
     2  1  0.50        -9.0305   4.0000                                                             
     3  2  1.50        -9.5241   0.0000                                                             
   Description                                                                                      
     l       E           TYP  RCUT    TYP  RCUT                                                     
     0    -23.9615319     23  1.100                                                                 
     0    -25.3221145     23  1.100                                                                 
     1     -9.0304911     23  1.100                                                                 
     1     -5.4802209     23  1.100                                                                 
     2     -9.5240782      7  1.100                                                                 
  local pseudopotential read in
  partial core-charges read in
  partial kinetic energy density read in
  atomic valenz-charges read in
  non local Contribution for L=           0  read in
    real space projection operators read in
  non local Contribution for L=           0  read in
    real space projection operators read in
  non local Contribution for L=           1  read in
    real space projection operators read in
  non local Contribution for L=           1  read in
    real space projection operators read in
    PAW grid and wavefunctions read in

   number of l-projection  operators is LMAX  =           4
   number of lm-projection operators is LMMAX =           8

 -----------------------------------------------------------------------------
|                                                                             |
|               ----> ADVICE to this user running VASP <----                  |
|                                                                             |
|     You enforced a specific xc type in the INCAR file but a different       |
|     type was found in the POTCAR file.                                      |
|     I HOPE YOU KNOW WHAT YOU ARE DOING!                                     |
|                                                                             |
 -----------------------------------------------------------------------------

  PAW_PBE C_h 06Feb2004                 :
 energy of atom  1       EATOM= -147.1560
 kinetic energy error for atom=    0.0031 (will be added to EATOM!!)
  PAW_PBE H_h 06Feb2004                 :
 energy of atom  2       EATOM=  -12.4884
 kinetic energy error for atom=    0.0006 (will be added to EATOM!!)
  PAW_PBE O_h 06Feb2004                 :
 energy of atom  3       EATOM= -432.3788
 kinetic energy error for atom=    0.0171 (will be added to EATOM!!)


 POSCAR:  C  H  O
  positions in cartesian coordinates
  No initial velocities read in
 exchange correlation table for  LEXCH =       42
   RHO(1)=    0.500       N(1)  =     2000
   RHO(2)=  100.500       N(2)  =     4000

 VTST: version 4.1, (05/19/21)

 CHAIN: initializing optimizer
 
 OPT: Using VASP Dynamics algorithm
 CHAIN: Read ICHAIN            0

 POSCAR:  C  H  O
  positions in cartesian coordinates
  No initial velocities read in



--------------------------------------------------------------------------------------------------------


 ion  position               nearest neighbor table
   1  0.468  0.431  0.490-  14 1.10   9 1.10   6 1.52   2 1.53
   2  0.546  0.441  0.476-   7 1.10   8 1.10   5 1.52   1 1.53
   3  0.524  0.565  0.527-  11 1.10  10 1.10   5 1.52   4 1.53
   4  0.462  0.565  0.475-  13 1.10  12 1.10   6 1.52   3 1.53
   5  0.577  0.506  0.513-  15 1.22   3 1.52   2 1.52
   6  0.424  0.495  0.472-  16 1.22   4 1.52   1 1.52
   7  0.578  0.395  0.490-   2 1.10
   8  0.555  0.449  0.419-   2 1.10
   9  0.460  0.421  0.547-   1 1.10
  10  0.504  0.556  0.581-   3 1.10
  11  0.553  0.615  0.529-   3 1.10
  12  0.482  0.576  0.422-   4 1.10
  13  0.424  0.607  0.487-   4 1.10
  14  0.446  0.385  0.463-   1 1.10
  15  0.638  0.510  0.529-   5 1.22
  16  0.362  0.491  0.456-   6 1.22

  LATTYP: Found a simple cubic cell.
 ALAT       =    19.0000000000
  
  Lattice vectors:
  
 A1 = (  19.0000000000,   0.0000000000,   0.0000000000)
 A2 = (   0.0000000000,  19.0000000000,   0.0000000000)
 A3 = (   0.0000000000,   0.0000000000,  19.0000000000)


Analysis of symmetry for initial positions (statically):
=====================================================================
 Subroutine PRICEL returns:
 Original cell was already a primitive cell.
 

 Routine SETGRP: Setting up the symmetry group for a 
 simple cubic supercell.


 Subroutine GETGRP returns: Found  1 space group operations
 (whereof  1 operations were pure point group operations)
 out of a pool of 48 trial point group operations.


The static configuration has the point symmetry C_1 .


Analysis of symmetry for dynamics (positions and initial velocities):
=====================================================================
 Subroutine PRICEL returns:
 Original cell was already a primitive cell.
 

 Routine SETGRP: Setting up the symmetry group for a 
 simple cubic supercell.


 Subroutine GETGRP returns: Found  1 space group operations
 (whereof  1 operations were pure point group operations)
 out of a pool of 48 trial point group operations.


The dynamic configuration has the point symmetry C_1 .


 Subroutine INISYM returns: Found  1 space group operations
 (whereof  1 operations are pure point group operations),
 and found     1 'primitive' translations


----------------------------------------------------------------------------------------

                                     Primitive cell                                     

  volume of cell :    6859.0000

  direct lattice vectors                    reciprocal lattice vectors
    19.000000000  0.000000000  0.000000000     0.052631579  0.000000000  0.000000000
     0.000000000 19.000000000  0.000000000     0.000000000  0.052631579  0.000000000
     0.000000000  0.000000000 19.000000000     0.000000000  0.000000000  0.052631579

  length of vectors
    19.000000000 19.000000000 19.000000000     0.052631579  0.052631579  0.052631579

  position of ions in fractional coordinates (direct lattice)
     0.467657632  0.430856316  0.490464737
     0.546345526  0.441397368  0.475616842
     0.524165000  0.564554737  0.527456842
     0.462351842  0.565372105  0.475490000
     0.576522895  0.505776316  0.512554211
     0.423647105  0.495302632  0.472283684
     0.577802895  0.395359474  0.490258947
     0.554550789  0.449438947  0.418711579
     0.459683421  0.420717895  0.547066842
     0.504267632  0.555811579  0.581288421
     0.552589211  0.614700000  0.528557895
     0.482036579  0.576012632  0.421921053
     0.424217632  0.606936316  0.487380000
     0.445973421  0.385300000  0.462578947
     0.638223947  0.509963158  0.529104211
     0.361776053  0.491088947  0.456380000

  ion indices of the primitive-cell ions
   primitive index   ion index
                 1           1
                 2           2
                 3           3
                 4           4
                 5           5
                 6           6
                 7           7
                 8           8
                 9           9
                10          10
                11          11
                12          12
                13          13
                14          14
                15          15
                16          16

----------------------------------------------------------------------------------------



 KPOINTS: auto                                    

Automatic generation of k-mesh.
 Grid dimensions read from file:
 generate k-points for:    1    1    1

 Generating k-lattice:

  Cartesian coordinates                     Fractional coordinates (reciprocal lattice)
     0.052631579  0.000000000  0.000000000     1.000000000  0.000000000  0.000000000
     0.000000000  0.052631579  0.000000000     0.000000000  1.000000000  0.000000000
     0.000000000  0.000000000  0.052631579     0.000000000  0.000000000  1.000000000

  Length of vectors
     0.052631579  0.052631579  0.052631579

  Shift w.r.t. Gamma in fractional coordinates (k-lattice)
     0.000000000  0.000000000  0.000000000

 
 Subroutine IBZKPT returns following result:
 ===========================================
 
 Found      1 irreducible k-points:
 
 Following reciprocal coordinates:
            Coordinates               Weight
  0.000000  0.000000  0.000000      1.000000
 
 Following cartesian coordinates:
            Coordinates               Weight
  0.000000  0.000000  0.000000      1.000000
 


--------------------------------------------------------------------------------------------------------




 Dimension of arrays:
   k-points           NKPTS =      1   k-points in BZ     NKDIM =      1   number of bands    NBANDS=     32
   number of dos      NEDOS =    301   number of ions     NIONS =     16
   non local maximal  LDIM  =      4   non local SUM 2l+1 LMDIM =      8
   total plane-waves  NPLWV = ******
   max r-space proj   IRMAX =      1   max aug-charges    IRDMAX=   8205
   dimension x,y,z NGX =   196 NGY =  196 NGZ =  196
   dimension x,y,z NGXF=   392 NGYF=  392 NGZF=  392
   support grid    NGXF=   392 NGYF=  392 NGZF=  392
   ions per type =               6   8   2
   NGX,Y,Z   is equivalent  to a cutoff of  17.15, 17.15, 17.15 a.u.
   NGXF,Y,Z  is equivalent  to a cutoff of  34.30, 34.30, 34.30 a.u.

 SYSTEM =  unknown system                          
 POSCAR =   C  H  O                                

 Startparameter for this run:
   NWRITE =      2    write-flag & timer
   PREC   = accura    normal or accurate (medium, high low for compatibility)
   ISTART =      0    job   : 0-new  1-cont  2-samecut
   ICHARG =      2    charge: 1-file 2-atom 10-const
   ISPIN  =      1    spin polarized calculation?
   LNONCOLLINEAR =      F non collinear calculations
   LSORBIT =      F    spin-orbit coupling
   INIWAV =      1    electr: 0-lowe 1-rand  2-diag
   LASPH  =      T    aspherical Exc in radial PAW
 Electronic Relaxation 1
   ENCUT  = 1000.0 eV  73.50 Ry    8.57 a.u.  48.99 48.99 48.99*2*pi/ulx,y,z
   ENINI  = 1000.0     initial cutoff
   ENAUG  = 1000.0 eV  augmentation charge cutoff
   NELM   =     60;   NELMIN=  2; NELMDL= -5     # of ELM steps 
   EDIFF  = 0.1E-06   stopping-criterion for ELM
   LREAL  =      F    real-space projection
   NLSPLINE    = F    spline interpolate recip. space projectors
   LCOMPAT=      F    compatible to vasp.4.4
   GGA_COMPAT  = T    GGA compatible to vasp.4.4-vasp.4.6
   LMAXPAW     = -100 max onsite density
   LMAXMIX     =    2 max onsite mixed and CHGCAR
   VOSKOWN=      0    Vosko Wilk Nusair interpolation
   ROPT   =    0.00000   0.00000   0.00000
 Ionic relaxation
   EDIFFG = 0.1E-05   stopping-criterion for IOM
   NSW    =      0    number of steps for IOM
   NBLOCK =      1;   KBLOCK =      1    inner block; outer block 
   IBRION =     -1    ionic relax: 0-MD 1-quasi-New 2-CG
   NFREE  =      0    steps in history (QN), initial steepest desc. (CG)
   ISIF   =      0    stress and relaxation
   IWAVPR =     10    prediction:  0-non 1-charg 2-wave 3-comb
   ISYM   =      2    0-nonsym 1-usesym 2-fastsym
   LCORR  =      T    Harris-Foulkes like correction to forces

   POTIM  = 0.5000    time-step for ionic-motion
   TEIN   =    0.0    initial temperature
   TEBEG  =    0.0;   TEEND  =   0.0 temperature during run
   SMASS  =  -3.00    Nose mass-parameter (am)
   estimated Nose-frequenzy (Omega)   =  0.10E-29 period in steps = 0.13E+47 mass=  -0.825E-26a.u.
   SCALEE = 1.0000    scale energy and forces
   NPACO  =    256;   APACO  = 10.0  distance and # of slots for P.C.
   PSTRESS=    0.0 pullay stress

  Mass of Ions in am
   POMASS =  12.01  1.00 16.00
  Ionic Valenz
   ZVAL   =   4.00  1.00  6.00
  Atomic Wigner-Seitz radii
   RWIGS  =  -1.00 -1.00 -1.00
  virtual crystal weights 
   VCA    =   1.00  1.00  1.00
   NELECT =      44.0000    total number of electrons
   NUPDOWN=      -1.0000    fix difference up-down

 DOS related values:
   EMIN   =  10.00;   EMAX   =-10.00  energy-range for DOS
   EFERMI =   0.00;   METHOD = LEGACY      
   ISMEAR =     0;   SIGMA  =   0.01  broadening in eV -4-tet -1-fermi 0-gaus

 Electronic relaxation 2 (details)
   IALGO  =     58    algorithm
   LDIAG  =      T    sub-space diagonalisation (order eigenvalues)
   LSUBROT=      F    optimize rotation matrix (better conditioning)
   TURBO    =      0    0=normal 1=particle mesh
   IRESTART =      0    0=no restart 2=restart with 2 vectors
   NREBOOT  =      0    no. of reboots
   NMIN     =      0    reboot dimension
   EREF     =   0.00    reference energy to select bands
   IMIX   =      4    mixing-type and parameters
     AMIX     =   0.40;   BMIX     =  1.00
     AMIX_MAG =   1.60;   BMIX_MAG =  1.00
     AMIN     =   0.10
     WC   =   100.;   INIMIX=   1;  MIXPRE=   1;  MAXMIX= -45

 Intra band minimization:
   WEIMIN = 0.0000     energy-eigenvalue tresh-hold
   EBREAK =  0.78E-09  absolut break condition
   DEPER  =   0.30     relativ break condition  

   TIME   =   0.40     timestep for ELM

  volume/ion in A,a.u.               =     428.69      2892.93
  Fermi-wavevector in a.u.,A,eV,Ry     =   0.304186  0.574828  1.258933  0.092529
  Thomas-Fermi vector in A             =   1.176043

 Write flags
   LWAVE        =      F    write WAVECAR
   LDOWNSAMPLE  =      F    k-point downsampling of WAVECAR
   LCHARG       =      F    write CHGCAR
   LVTOT        =      F    write LOCPOT, total local potential
   LVHAR        =      F    write LOCPOT, Hartree potential only
   LELF         =      F    write electronic localiz. function (ELF)
   LORBIT       =      0    0 simple, 1 ext, 2 COOP (PROOUT), +10 PAW based schemes


 Dipole corrections
   LMONO  =      F    monopole corrections only (constant potential shift)
   LDIPOL =      F    correct potential (dipole corrections)
   IDIPOL =      0    1-x, 2-y, 3-z, 4-all directions 
   EPSILON=  1.0000000 bulk dielectric constant

 Exchange correlation treatment:
   GGA     =    BO    GGA type
   LEXCH   =    42    internal setting for exchange type
   LIBXC   =     F    Libxc                    
   VOSKOWN =     0    Vosko Wilk Nusair interpolation
   LHFCALC =     F    Hartree Fock is set to
   LHFONE  =     F    Hartree Fock one center treatment
   AEXX    =    0.0000 exact exchange contribution

 vdW DFT:
   LUSE_VDW   =     T    switch on vdW DFT
   IVDW_NL    =     1    kernel type
   LSPIN_VDW  =     F    use spin-polarized vdW DFT
   Zab_VDW    =-.8491    correlation parameter
   PARAM1     =0.1833
   PARAM2     =0.2200
   PARAM3     =0.0000
   -- rVV10 --
   BPARAM     = 6.3000
   CPARAM     = 0.0093

 Linear response parameters
   LEPSILON=     F    determine dielectric tensor
   LRPA    =     F    only Hartree local field effects (RPA)
   LNABLA  =     F    use nabla operator in PAW spheres
   LVEL    =     F    velocity operator in full k-point grid
   CSHIFT  =0.1000    complex shift for real part using Kramers Kronig
   OMEGAMAX=  -1.0    maximum frequency
   DEG_THRESHOLD= 0.2000000E-02 threshold for treating states as degnerate
   RTIME   =   -0.100 relaxation time in fs
  (WPLASMAI=    0.000 imaginary part of plasma frequency in eV, 0.658/RTIME)
   DFIELD  = 0.0000000 0.0000000 0.0000000 field for delta impulse in time

  Optional k-point grid parameters
   LKPOINTS_OPT  =     F    use optional k-point grid
   KPOINTS_OPT_MODE=     1    mode for optional k-point grid

 Orbital magnetization related:
   ORBITALMAG=     F  switch on orbital magnetization
   LCHIMAG   =     F  perturbation theory with respect to B field
   DQ        =  0.001000  dq finite difference perturbation B field
   LLRAUG    =     F  two centre corrections for induced B field
   LBONE     =     F  B-component reconstruction in AE one-centre
   LVGVCALC  =     T  calculate vGv susceptibility
   LVGVAPPL  =     F  apply vGv susceptibility instead of pGv for G=0

 Random number generation:
   RANDOM_GENERATOR = DEFAULT
   PCG_SEED         = not used


--------------------------------------------------------------------------------------------------------


 Static calculation
 charge density and potential will be updated during run
 non-spin polarized calculation
 Conjugate gradient for all bands (Freysoldt, et al. PRB 79, 241103 (2009))
 preconditioned conjugated gradient                                        
 perform sub-space diagonalisation
    before iterative eigenvector-optimisation
 modified Broyden-mixing scheme, WC =      100.0
 initial mixing is a Kerker type mixing with AMIX =  0.4000 and BMIX =      1.0000
 Hartree-type preconditioning will be used
 using additional bands           10
 reciprocal scheme for non local part
 use partial core corrections
 no Harris-corrections to forces 
 use gradient corrections 
 use of overlap-Matrix (Vanderbilt PP)
 Gauss-broadening in eV      SIGMA  =   0.01


--------------------------------------------------------------------------------------------------------


  energy-cutoff  :     1000.00
  volume of cell :     6859.00
      direct lattice vectors                 reciprocal lattice vectors
    19.000000000  0.000000000  0.000000000     0.052631579  0.000000000  0.000000000
     0.000000000 19.000000000  0.000000000     0.000000000  0.052631579  0.000000000
     0.000000000  0.000000000 19.000000000     0.000000000  0.000000000  0.052631579

  length of vectors
    19.000000000 19.000000000 19.000000000     0.052631579  0.052631579  0.052631579



 k-points in units of 2pi/SCALE and weight: auto                                    
   0.00000000  0.00000000  0.00000000       1.000

 k-points in reciprocal lattice and weights: auto                                    
   0.00000000  0.00000000  0.00000000       1.000

 position of ions in fractional coordinates (direct lattice) 
   0.46765763  0.43085632  0.49046474
   0.54634553  0.44139737  0.47561684
   0.52416500  0.56455474  0.52745684
   0.46235184  0.56537211  0.47549000
   0.57652289  0.50577632  0.51255421
   0.42364711  0.49530263  0.47228368
   0.57780289  0.39535947  0.49025895
   0.55455079  0.44943895  0.41871158
   0.45968342  0.42071789  0.54706684
   0.50426763  0.55581158  0.58128842
   0.55258921  0.61470000  0.52855789
   0.48203658  0.57601263  0.42192105
   0.42421763  0.60693632  0.48738000
   0.44597342  0.38530000  0.46257895
   0.63822395  0.50996316  0.52910421
   0.36177605  0.49108895  0.45638000

 position of ions in cartesian coordinates  (Angst):
   8.88549500  8.18627000  9.31883000
  10.38056500  8.38655000  9.03672000
   9.95913500 10.72654000 10.02168000
   8.78468500 10.74207000  9.03431000
  10.95393500  9.60975000  9.73853000
   8.04929500  9.41075000  8.97339000
  10.97825500  7.51183000  9.31492000
  10.53646500  8.53934000  7.95552000
   8.73398500  7.99364000 10.39427000
   9.58108500 10.56042000 11.04448000
  10.49919500 11.67930000 10.04260000
   9.15869500 10.94424000  8.01650000
   8.06013500 11.53179000  9.26022000
   8.47349500  7.32070000  8.78900000
  12.12625500  9.68930000 10.05298000
   6.87374500  9.33069000  8.67122000



--------------------------------------------------------------------------------------------------------


 use parallel FFT for orbitals z direction half grid
 k-point   1 :   0.0000 0.0000 0.0000  plane waves:  246089

 maximum and minimum number of plane-waves per node :      7700     7677

 maximum number of plane-waves:    246089
 maximum index in each direction: 
   IXMAX=   48   IYMAX=   48   IZMAX=   48
   IXMIN=  -48   IYMIN=  -48   IZMIN=    0


 parallel 3D FFT for wavefunctions:
    minimum data exchange during FFTs selected (reduces bandwidth)
 parallel 3D FFT for charge:
    minimum data exchange during FFTs selected (reduces bandwidth)


 total amount of memory used by VASP MPI-rank0   111763. kBytes
=======================================================================

   base      :      30000. kBytes
   nonl-proj :       3440. kBytes
   fftplans  :      25107. kBytes
   grid      :      50266. kBytes
   one-center:          1. kBytes
   wavefun   :       2949. kBytes

     INWAV:  cpu time      0.0013: real time      0.0015
 Broyden mixing: mesh for mixing (old mesh)
   NGX = 97   NGY = 97   NGZ = 97
  (NGX  =392   NGY  =392   NGZ  =392)
  gives a total of 912673 points

 initial charge density was supplied:
 charge density of overlapping atoms calculated
 number of electron      44.0000000 magnetization 
 keeping initial charge density in first step


--------------------------------------------------------------------------------------------------------


 Maximum index for augmentation-charges          366 (set IRDMAX)


--------------------------------------------------------------------------------------------------------


 First call to EWALD:  gamma=   0.093
 Maximum number of real-space cells 3x 3x 3
 Maximum number of reciprocal cells 3x 3x 3

    FEWALD:  cpu time      0.0032: real time      0.0033


--------------------------------------- Ionic step        1  -------------------------------------------




--------------------------------------- Iteration      1(   1)  ---------------------------------------


vdW kernel read from vdw_kernel.bindat
  0.0000  0.2424  0.5071  0.7962  1.1119  1.4567  1.8333  2.2446  2.6937  3.1842
  3.7199  4.3049  4.9438  5.6415  6.4036  7.2358  8.1446  9.1372 10.2212 11.4050
 12.6979 14.1099 15.6519 17.3360 19.1751 21.1837 23.3773 25.7729 28.3892 31.2465
 34.3669 37.7748 41.4965 45.5611 50.0000

    POTLOK:  cpu time     23.5640: real time     23.5720
    SETDIJ:  cpu time      0.0056: real time      0.0060
    TRIAL :  cpu time      0.7956: real time      0.7982
    CORREC:  cpu time      0.0016: real time      0.0016
    --------------------------------------------
      LOOP:  cpu time     24.3778: real time     24.3888

 eigenvalue-minimisations  :    80
 total energy-change (2. order) : 0.4976849E+03  (-0.1285962E+04)
 number of electron      44.0000000 magnetization 
 augmentation part       44.0000000 magnetization 

 Free energy of the ion-electron system (eV)
  ---------------------------------------------------
  alpha Z        PSCENC =         0.85132753
  Ewald energy   TEWEN  =      3249.38137581
  -Hartree energ DENC   =     -4582.57818006
  -exchange      EXHF   =         0.00000000
  -V(xc)+E(xc)   XCENC  =       110.31595564
  PAW double counting   =      1391.25836370    -1356.95120016
  entropy T*S    EENTRO =        -0.00000000
  eigenvalues    EBANDS =      -179.93730618
  atomic energy  EATOM  =      1865.34455991
  ---------------------------------------------------
  free energy    TOTEN  =       497.68489620 eV

  energy without entropy =      497.68489620  energy(sigma->0) =      497.68489620


--------------------------------------------------------------------------------------------------------




--------------------------------------- Iteration      1(   2)  ---------------------------------------


    TRIAL :  cpu time      0.9818: real time      0.9824
    CORREC:  cpu time      0.0002: real time      0.0002
    --------------------------------------------
      LOOP:  cpu time      0.9979: real time      1.0114

 eigenvalue-minimisations  :   112
 total energy-change (2. order) :-0.2688804E+03  (-0.2526999E+03)
 number of electron      44.0000000 magnetization 
 augmentation part       44.0000000 magnetization 

 Free energy of the ion-electron system (eV)
  ---------------------------------------------------
  alpha Z        PSCENC =         0.85132753
  Ewald energy   TEWEN  =      3249.38137581
  -Hartree energ DENC   =     -4582.57818006
  -exchange      EXHF   =         0.00000000
  -V(xc)+E(xc)   XCENC  =       110.31595564
  PAW double counting   =      1391.25836370    -1356.95120016
  entropy T*S    EENTRO =        -0.00000001
  eigenvalues    EBANDS =      -448.81775295
  atomic energy  EATOM  =      1865.34455991
  ---------------------------------------------------
  free energy    TOTEN  =       228.80444942 eV

  energy without entropy =      228.80444943  energy(sigma->0) =      228.80444942


--------------------------------------------------------------------------------------------------------




--------------------------------------- Iteration      1(   3)  ---------------------------------------


    TRIAL :  cpu time      0.9242: real time      0.9246
    CORREC:  cpu time      0.0001: real time      0.0001
    --------------------------------------------
      LOOP:  cpu time      0.9390: real time      0.9523

 eigenvalue-minimisations  :   104
 total energy-change (2. order) :-0.2325589E+03  (-0.2277491E+03)
 number of electron      44.0000000 magnetization 
 augmentation part       44.0000000 magnetization 

 Free energy of the ion-electron system (eV)
  ---------------------------------------------------
  alpha Z        PSCENC =         0.85132753
  Ewald energy   TEWEN  =      3249.38137581
  -Hartree energ DENC   =     -4582.57818006
  -exchange      EXHF   =         0.00000000
  -V(xc)+E(xc)   XCENC  =       110.31595564
  PAW double counting   =      1391.25836370    -1356.95120016
  entropy T*S    EENTRO =        -0.00000000
  eigenvalues    EBANDS =      -681.37667529
  atomic energy  EATOM  =      1865.34455991
  ---------------------------------------------------
  free energy    TOTEN  =        -3.75447291 eV

  energy without entropy =       -3.75447291  energy(sigma->0) =       -3.75447291


--------------------------------------------------------------------------------------------------------




--------------------------------------- Iteration      1(   4)  ---------------------------------------


    TRIAL :  cpu time      0.8155: real time      0.8159
    CORREC:  cpu time      0.0001: real time      0.0001
    --------------------------------------------
      LOOP:  cpu time      0.8438: real time      0.8445

 eigenvalue-minimisations  :    88
 total energy-change (2. order) :-0.8404986E+02  (-0.8344705E+02)
 number of electron      44.0000000 magnetization 
 augmentation part       44.0000000 magnetization 

 Free energy of the ion-electron system (eV)
  ---------------------------------------------------
  alpha Z        PSCENC =         0.85132753
  Ewald energy   TEWEN  =      3249.38137581
  -Hartree energ DENC   =     -4582.57818006
  -exchange      EXHF   =         0.00000000
  -V(xc)+E(xc)   XCENC  =       110.31595564
  PAW double counting   =      1391.25836370    -1356.95120016
  entropy T*S    EENTRO =        -0.00000000
  eigenvalues    EBANDS =      -765.42653347
  atomic energy  EATOM  =      1865.34455991
  ---------------------------------------------------
  free energy    TOTEN  =       -87.80433109 eV

  energy without entropy =      -87.80433109  energy(sigma->0) =      -87.80433109


--------------------------------------------------------------------------------------------------------




--------------------------------------- Iteration      1(   5)  ---------------------------------------


    TRIAL :  cpu time      0.8147: real time      0.8151
    CORREC:  cpu time      0.0001: real time      0.0001
    CHARGE:  cpu time      0.1595: real time      0.1608
    --------------------------------------------
      LOOP:  cpu time      0.9878: real time      1.0044

 eigenvalue-minimisations  :    88
 total energy-change (2. order) :-0.7456956E+01  (-0.7414577E+01)
 number of electron      44.0000000 magnetization 
 augmentation part        0.1534075 magnetization 

 Free energy of the ion-electron system (eV)
  ---------------------------------------------------
  alpha Z        PSCENC =         0.85132753
  Ewald energy   TEWEN  =      3249.38137581
  -Hartree energ DENC   =     -4582.57818006
  -exchange      EXHF   =         0.00000000
  -V(xc)+E(xc)   XCENC  =       110.31595564
  PAW double counting   =      1391.25836370    -1356.95120016
  entropy T*S    EENTRO =        -0.00000000
  eigenvalues    EBANDS =      -772.88348952
  atomic energy  EATOM  =      1865.34455991
  ---------------------------------------------------
  free energy    TOTEN  =       -95.26128713 eV

  energy without entropy =      -95.26128713  energy(sigma->0) =      -95.26128713


--------------------------------------------------------------------------------------------------------




--------------------------------------- Iteration      1(   6)  ---------------------------------------


    POTLOK:  cpu time     23.0223: real time     23.0301
    SETDIJ:  cpu time      0.0767: real time      0.0767
    TRIAL :  cpu time      0.4618: real time      0.4630
    CORREC:  cpu time     23.3217: real time     23.3301
    CHARGE:  cpu time      0.1290: real time      0.1290
    --------------------------------------------
      LOOP:  cpu time     47.0254: real time     47.0579

 eigenvalue-minimisations  :     0
 total energy-change (2. order) : 0.1890593E+02  (-0.7601438E+01)
 number of electron      44.0000000 magnetization 
 augmentation part        0.1045871 magnetization 

 Free energy of the ion-electron system (eV)
  ---------------------------------------------------
  alpha Z        PSCENC =         0.85132753
  Ewald energy   TEWEN  =      3249.38137581
  -Hartree energ DENC   =     -4945.26816414
  -exchange      EXHF   =         0.00000000
  -V(xc)+E(xc)   XCENC  =       126.31660997
  PAW double counting   =     13642.97429554   -13610.99990308
  entropy T*S    EENTRO =        -0.00000000
  eigenvalues    EBANDS =      -404.95545555
  atomic energy  EATOM  =      1865.34455991
  ---------------------------------------------------
  free energy    TOTEN  =       -76.35535400 eV

  energy without entropy =      -76.35535400  energy(sigma->0) =      -76.35535400


--------------------------------------------------------------------------------------------------------




--------------------------------------- Iteration      1(   7)  ---------------------------------------


    POTLOK:  cpu time     23.0574: real time     23.0646
    SETDIJ:  cpu time      0.0321: real time      0.0321
    TRIAL :  cpu time      0.4502: real time      0.4502
    CORREC:  cpu time     23.3227: real time     23.3305
    CHARGE:  cpu time      0.1297: real time      0.1298
    --------------------------------------------
      LOOP:  cpu time     47.0036: real time     47.0384

 eigenvalue-minimisations  :     0
 total energy-change (2. order) :-0.7683292E+01  (-0.1002733E+01)
 number of electron      44.0000000 magnetization 
 augmentation part        0.0810597 magnetization 

 Free energy of the ion-electron system (eV)
  ---------------------------------------------------
  alpha Z        PSCENC =         0.85132753
  Ewald energy   TEWEN  =      3249.38137581
  -Hartree energ DENC   =     -4775.64891344
  -exchange      EXHF   =         0.00000000
  -V(xc)+E(xc)   XCENC  =       119.31472413
  PAW double counting   =     16140.76136702   -16107.56074703
  entropy T*S    EENTRO =        -0.00000000
  eigenvalues    EBANDS =      -576.48233969
  atomic energy  EATOM  =      1865.34455991
  ---------------------------------------------------
  free energy    TOTEN  =       -84.03864575 eV

  energy without entropy =      -84.03864575  energy(sigma->0) =      -84.03864575


--------------------------------------------------------------------------------------------------------




--------------------------------------- Iteration      1(   8)  ---------------------------------------


    POTLOK:  cpu time     23.0301: real time     23.0376
    SETDIJ:  cpu time      0.1037: real time      0.1037
    TRIAL :  cpu time      0.4503: real time      0.4503
    CORREC:  cpu time     23.2910: real time     23.2988
    CHARGE:  cpu time      0.1284: real time      0.1284
    --------------------------------------------
      LOOP:  cpu time     47.0171: real time     47.0490

 eigenvalue-minimisations  :     0
 total energy-change (2. order) :-0.1007450E+01  (-0.3865408E+00)
 number of electron      44.0000000 magnetization 
 augmentation part        0.0776314 magnetization 

 Free energy of the ion-electron system (eV)
  ---------------------------------------------------
  alpha Z        PSCENC =         0.85132753
  Ewald energy   TEWEN  =      3249.38137581
  -Hartree energ DENC   =     -4777.32507402
  -exchange      EXHF   =         0.00000000
  -V(xc)+E(xc)   XCENC  =       119.40788539
  PAW double counting   =     16271.35064932   -16238.04381764
  entropy T*S    EENTRO =        -0.00000000
  eigenvalues    EBANDS =      -576.01300242
  atomic energy  EATOM  =      1865.34455991
  ---------------------------------------------------
  free energy    TOTEN  =       -85.04609611 eV

  energy without entropy =      -85.04609611  energy(sigma->0) =      -85.04609611


--------------------------------------------------------------------------------------------------------




--------------------------------------- Iteration      1(   9)  ---------------------------------------


    POTLOK:  cpu time     23.0690: real time     23.0755
    SETDIJ:  cpu time      0.0600: real time      0.0600
    TRIAL :  cpu time      0.4503: real time      0.4503
    CORREC:  cpu time     23.3310: real time     23.3388
    CHARGE:  cpu time      0.1298: real time      0.1298
    --------------------------------------------
      LOOP:  cpu time     47.0538: real time     47.0841

 eigenvalue-minimisations  :     0
 total energy-change (2. order) :-0.3859331E+00  (-0.1737512E+00)
 number of electron      44.0000000 magnetization 
 augmentation part        0.0775248 magnetization 

 Free energy of the ion-electron system (eV)
  ---------------------------------------------------
  alpha Z        PSCENC =         0.85132753
  Ewald energy   TEWEN  =      3249.38137581
  -Hartree energ DENC   =     -4781.40486555
  -exchange      EXHF   =         0.00000000
  -V(xc)+E(xc)   XCENC  =       119.38929417
  PAW double counting   =     16723.37547842   -16690.00921971
  entropy T*S    EENTRO =        -0.00000000
  eigenvalues    EBANDS =      -572.35997981
  atomic energy  EATOM  =      1865.34455991
  ---------------------------------------------------
  free energy    TOTEN  =       -85.43202923 eV

  energy without entropy =      -85.43202923  energy(sigma->0) =      -85.43202923


--------------------------------------------------------------------------------------------------------




--------------------------------------- Iteration      1(  10)  ---------------------------------------


    POTLOK:  cpu time     23.0850: real time     23.0921
    SETDIJ:  cpu time      0.0250: real time      0.0250
    TRIAL :  cpu time      0.4509: real time      0.4513
    CORREC:  cpu time     23.3455: real time     23.3523
    CHARGE:  cpu time      0.1295: real time      0.1296
    --------------------------------------------
      LOOP:  cpu time     47.0494: real time     47.0807

 eigenvalue-minimisations  :     0
 total energy-change (2. order) :-0.1710685E+00  (-0.5663899E-01)
 number of electron      44.0000000 magnetization 
 augmentation part        0.0800191 magnetization 

 Free energy of the ion-electron system (eV)
  ---------------------------------------------------
  alpha Z        PSCENC =         0.85132753
  Ewald energy   TEWEN  =      3249.38137581
  -Hartree energ DENC   =     -4774.16480099
  -exchange      EXHF   =         0.00000000
  -V(xc)+E(xc)   XCENC  =       119.23737702
  PAW double counting   =     16526.42348538   -16493.04029680
  entropy T*S    EENTRO =        -0.00000000
  eigenvalues    EBANDS =      -579.63612561
  atomic energy  EATOM  =      1865.34455991
  ---------------------------------------------------
  free energy    TOTEN  =       -85.60309775 eV

  energy without entropy =      -85.60309775  energy(sigma->0) =      -85.60309775


--------------------------------------------------------------------------------------------------------




--------------------------------------- Iteration      1(  11)  ---------------------------------------


    POTLOK:  cpu time     23.0257: real time     23.0323
    SETDIJ:  cpu time      0.1350: real time      0.1350
    TRIAL :  cpu time      0.4495: real time      0.4500
    CORREC:  cpu time     23.2845: real time     23.2912
    CHARGE:  cpu time      0.1295: real time      0.1295
    --------------------------------------------
      LOOP:  cpu time     47.0403: real time     47.0677

 eigenvalue-minimisations  :     0
 total energy-change (2. order) :-0.5638920E-01  (-0.1871072E-01)
 number of electron      44.0000000 magnetization 
 augmentation part        0.0805833 magnetization 

 Free energy of the ion-electron system (eV)
  ---------------------------------------------------
  alpha Z        PSCENC =         0.85132753
  Ewald energy   TEWEN  =      3249.38137581
  -Hartree energ DENC   =     -4771.30391631
  -exchange      EXHF   =         0.00000000
  -V(xc)+E(xc)   XCENC  =       119.22271218
  PAW double counting   =     16223.84546224   -16190.48957721
  entropy T*S    EENTRO =        -0.00000000
  eigenvalues    EBANDS =      -582.51143111
  atomic energy  EATOM  =      1865.34455991
  ---------------------------------------------------
  free energy    TOTEN  =       -85.65948694 eV

  energy without entropy =      -85.65948694  energy(sigma->0) =      -85.65948694


--------------------------------------------------------------------------------------------------------




--------------------------------------- Iteration      1(  12)  ---------------------------------------


    POTLOK:  cpu time     23.0381: real time     23.0448
    SETDIJ:  cpu time      0.1009: real time      0.1009
    TRIAL :  cpu time      0.4523: real time      0.4527
    CORREC:  cpu time     23.2667: real time     23.2744
    CHARGE:  cpu time      0.1289: real time      0.1290
    --------------------------------------------
      LOOP:  cpu time     47.0011: real time     47.0328

 eigenvalue-minimisations  :     0
 total energy-change (2. order) :-0.1870489E-01  (-0.5304420E-02)
 number of electron      44.0000000 magnetization 
 augmentation part        0.0807577 magnetization 

 Free energy of the ion-electron system (eV)
  ---------------------------------------------------
  alpha Z        PSCENC =         0.85132753
  Ewald energy   TEWEN  =      3249.38137581
  -Hartree energ DENC   =     -4771.20201090
  -exchange      EXHF   =         0.00000000
  -V(xc)+E(xc)   XCENC  =       119.18870923
  PAW double counting   =     16099.05421793   -16065.70362679
  entropy T*S    EENTRO =        -0.00000000
  eigenvalues    EBANDS =      -582.59274455
  atomic energy  EATOM  =      1865.34455991
  ---------------------------------------------------
  free energy    TOTEN  =       -85.67819183 eV

  energy without entropy =      -85.67819183  energy(sigma->0) =      -85.67819183


--------------------------------------------------------------------------------------------------------




--------------------------------------- Iteration      1(  13)  ---------------------------------------


    POTLOK:  cpu time     23.0579: real time     23.0663
    SETDIJ:  cpu time      0.0497: real time      0.0497
    TRIAL :  cpu time      0.4510: real time      0.4520
    CORREC:  cpu time     23.2654: real time     23.2740
    CHARGE:  cpu time      0.1285: real time      0.1285
    --------------------------------------------
      LOOP:  cpu time     46.9674: real time     47.0006

 eigenvalue-minimisations  :     0
 total energy-change (2. order) :-0.5326058E-02  (-0.1727483E-02)
 number of electron      44.0000000 magnetization 
 augmentation part        0.0810453 magnetization 

 Free energy of the ion-electron system (eV)
  ---------------------------------------------------
  alpha Z        PSCENC =         0.85132753
  Ewald energy   TEWEN  =      3249.38137581
  -Hartree energ DENC   =     -4771.30452573
  -exchange      EXHF   =         0.00000000
  -V(xc)+E(xc)   XCENC  =       119.18323961
  PAW double counting   =     16080.34555423   -16046.99877156
  entropy T*S    EENTRO =        -0.00000000
  eigenvalues    EBANDS =      -582.48627770
  atomic energy  EATOM  =      1865.34455991
  ---------------------------------------------------
  free energy    TOTEN  =       -85.68351789 eV

  energy without entropy =      -85.68351789  energy(sigma->0) =      -85.68351789


--------------------------------------------------------------------------------------------------------




--------------------------------------- Iteration      1(  14)  ---------------------------------------


    POTLOK:  cpu time     22.9795: real time     22.9865
    SETDIJ:  cpu time      0.0574: real time      0.0574
    TRIAL :  cpu time      0.4507: real time      0.4512
    CORREC:  cpu time     23.3053: real time     23.3133
    CHARGE:  cpu time      0.1299: real time      0.1299
    --------------------------------------------
      LOOP:  cpu time     46.9408: real time     46.9680

 eigenvalue-minimisations  :     0
 total energy-change (2. order) :-0.1740149E-02  (-0.6348632E-03)
 number of electron      44.0000000 magnetization 
 augmentation part        0.0811556 magnetization 

 Free energy of the ion-electron system (eV)
  ---------------------------------------------------
  alpha Z        PSCENC =         0.85132753
  Ewald energy   TEWEN  =      3249.38137581
  -Hartree energ DENC   =     -4771.05031797
  -exchange      EXHF   =         0.00000000
  -V(xc)+E(xc)   XCENC  =       119.17317439
  PAW double counting   =     16087.28824447   -16053.94317274
  entropy T*S    EENTRO =        -0.00000000
  eigenvalues    EBANDS =      -582.73044944
  atomic energy  EATOM  =      1865.34455991
  ---------------------------------------------------
  free energy    TOTEN  =       -85.68525804 eV

  energy without entropy =      -85.68525804  energy(sigma->0) =      -85.68525804


--------------------------------------------------------------------------------------------------------




--------------------------------------- Iteration      1(  15)  ---------------------------------------


    POTLOK:  cpu time     22.9943: real time     23.0018
    SETDIJ:  cpu time      0.0470: real time      0.0470
    TRIAL :  cpu time      0.4501: real time      0.4506
    CORREC:  cpu time     23.2663: real time     23.2732
    CHARGE:  cpu time      0.1293: real time      0.1294
    --------------------------------------------
      LOOP:  cpu time     46.9169: real time     46.9320

 eigenvalue-minimisations  :     0
 total energy-change (2. order) :-0.6441297E-03  (-0.2386807E-03)
 number of electron      44.0000000 magnetization 
 augmentation part        0.0813215 magnetization 

 Free energy of the ion-electron system (eV)
  ---------------------------------------------------
  alpha Z        PSCENC =         0.85132753
  Ewald energy   TEWEN  =      3249.38137581
  -Hartree energ DENC   =     -4771.25841638
  -exchange      EXHF   =         0.00000000
  -V(xc)+E(xc)   XCENC  =       119.17502220
  PAW double counting   =     16087.67196123   -16054.32723132
  entropy T*S    EENTRO =        -0.00000000
  eigenvalues    EBANDS =      -582.52450116
  atomic energy  EATOM  =      1865.34455991
  ---------------------------------------------------
  free energy    TOTEN  =       -85.68590217 eV

  energy without entropy =      -85.68590217  energy(sigma->0) =      -85.68590217


--------------------------------------------------------------------------------------------------------




--------------------------------------- Iteration      1(  16)  ---------------------------------------


    POTLOK:  cpu time     22.9555: real time     22.9618
    SETDIJ:  cpu time      0.1079: real time      0.1079
    TRIAL :  cpu time      0.4508: real time      0.4513
    CORREC:  cpu time     23.2722: real time     23.2784
    CHARGE:  cpu time      0.1293: real time      0.1293
    --------------------------------------------
      LOOP:  cpu time     46.9346: real time     46.9594

 eigenvalue-minimisations  :     0
 total energy-change (2. order) :-0.2458220E-03  (-0.8585342E-04)
 number of electron      44.0000000 magnetization 
 augmentation part        0.0813736 magnetization 

 Free energy of the ion-electron system (eV)
  ---------------------------------------------------
  alpha Z        PSCENC =         0.85132753
  Ewald energy   TEWEN  =      3249.38137581
  -Hartree energ DENC   =     -4771.40015292
  -exchange      EXHF   =         0.00000000
  -V(xc)+E(xc)   XCENC  =       119.17956422
  PAW double counting   =     16082.38523346   -16049.04123372
  entropy T*S    EENTRO =        -0.00000000
  eigenvalues    EBANDS =      -582.38682229
  atomic energy  EATOM  =      1865.34455991
  ---------------------------------------------------
  free energy    TOTEN  =       -85.68614799 eV

  energy without entropy =      -85.68614799  energy(sigma->0) =      -85.68614799


--------------------------------------------------------------------------------------------------------




--------------------------------------- Iteration      1(  17)  ---------------------------------------


    POTLOK:  cpu time     22.9475: real time     22.9538
    SETDIJ:  cpu time      0.0682: real time      0.0682
    TRIAL :  cpu time      0.4532: real time      0.4535
    CORREC:  cpu time     23.1995: real time     23.2062
    CHARGE:  cpu time      0.1293: real time      0.1293
    --------------------------------------------
      LOOP:  cpu time     46.8120: real time     46.8424

 eigenvalue-minimisations  :     0
 total energy-change (2. order) :-0.8930105E-04  (-0.2923159E-04)
 number of electron      44.0000000 magnetization 
 augmentation part        0.0814322 magnetization 

 Free energy of the ion-electron system (eV)
  ---------------------------------------------------
  alpha Z        PSCENC =         0.85132753
  Ewald energy   TEWEN  =      3249.38137581
  -Hartree energ DENC   =     -4771.32983392
  -exchange      EXHF   =         0.00000000
  -V(xc)+E(xc)   XCENC  =       119.17690828
  PAW double counting   =     16080.04561584   -16046.70089274
  entropy T*S    EENTRO =        -0.00000000
  eigenvalues    EBANDS =      -582.45529800
  atomic energy  EATOM  =      1865.34455991
  ---------------------------------------------------
  free energy    TOTEN  =       -85.68623729 eV

  energy without entropy =      -85.68623729  energy(sigma->0) =      -85.68623729


--------------------------------------------------------------------------------------------------------




--------------------------------------- Iteration      1(  18)  ---------------------------------------


    POTLOK:  cpu time     22.9535: real time     22.9608
    SETDIJ:  cpu time      0.0764: real time      0.0764
    TRIAL :  cpu time      0.4508: real time      0.4508
    CORREC:  cpu time     23.2219: real time     23.2293
    CHARGE:  cpu time      0.1297: real time      0.1297
    --------------------------------------------
      LOOP:  cpu time     46.8622: real time     46.8771

 eigenvalue-minimisations  :     0
 total energy-change (2. order) :-0.3059089E-04  (-0.8914547E-05)
 number of electron      44.0000000 magnetization 
 augmentation part        0.0814127 magnetization 

 Free energy of the ion-electron system (eV)
  ---------------------------------------------------
  alpha Z        PSCENC =         0.85132753
  Ewald energy   TEWEN  =      3249.38137581
  -Hartree energ DENC   =     -4771.41672145
  -exchange      EXHF   =         0.00000000
  -V(xc)+E(xc)   XCENC  =       119.18076824
  PAW double counting   =     16079.62934177   -16046.28495073
  entropy T*S    EENTRO =        -0.00000000
  eigenvalues    EBANDS =      -582.37196897
  atomic energy  EATOM  =      1865.34455991
  ---------------------------------------------------
  free energy    TOTEN  =       -85.68626788 eV

  energy without entropy =      -85.68626788  energy(sigma->0) =      -85.68626788


--------------------------------------------------------------------------------------------------------




--------------------------------------- Iteration      1(  19)  ---------------------------------------


    POTLOK:  cpu time     22.9148: real time     22.9224
    SETDIJ:  cpu time      0.0710: real time      0.0710
    TRIAL :  cpu time      0.4513: real time      0.4513
    CORREC:  cpu time     23.2893: real time     23.2970
    CHARGE:  cpu time      0.1294: real time      0.1299
    --------------------------------------------
      LOOP:  cpu time     46.8728: real time     46.9014

 eigenvalue-minimisations  :     0
 total energy-change (2. order) :-0.9348387E-05  (-0.2858102E-05)
 number of electron      44.0000000 magnetization 
 augmentation part        0.0814011 magnetization 

 Free energy of the ion-electron system (eV)
  ---------------------------------------------------
  alpha Z        PSCENC =         0.85132753
  Ewald energy   TEWEN  =      3249.38137581
  -Hartree energ DENC   =     -4771.40752517
  -exchange      EXHF   =         0.00000000
  -V(xc)+E(xc)   XCENC  =       119.18060369
  PAW double counting   =     16080.57619731   -16047.23154324
  entropy T*S    EENTRO =        -0.00000000
  eigenvalues    EBANDS =      -582.38127308
  atomic energy  EATOM  =      1865.34455991
  ---------------------------------------------------
  free energy    TOTEN  =       -85.68627723 eV

  energy without entropy =      -85.68627723  energy(sigma->0) =      -85.68627723


--------------------------------------------------------------------------------------------------------




--------------------------------------- Iteration      1(  20)  ---------------------------------------


    POTLOK:  cpu time     22.9325: real time     22.9399
    SETDIJ:  cpu time      0.0587: real time      0.0587
    TRIAL :  cpu time      0.4482: real time      0.4483
    CORREC:  cpu time     23.2180: real time     23.2256
    CHARGE:  cpu time      0.1282: real time      0.1282
    --------------------------------------------
      LOOP:  cpu time     46.7988: real time     46.8317

 eigenvalue-minimisations  :     0
 total energy-change (2. order) :-0.3009493E-05  (-0.1015681E-05)
 number of electron      44.0000000 magnetization 
 augmentation part        0.0813933 magnetization 

 Free energy of the ion-electron system (eV)
  ---------------------------------------------------
  alpha Z        PSCENC =         0.85132753
  Ewald energy   TEWEN  =      3249.38137581
  -Hartree energ DENC   =     -4771.39761510
  -exchange      EXHF   =         0.00000000
  -V(xc)+E(xc)   XCENC  =       119.18049648
  PAW double counting   =     16081.43015313   -16048.08542455
  entropy T*S    EENTRO =        -0.00000000
  eigenvalues    EBANDS =      -582.39115346
  atomic energy  EATOM  =      1865.34455991
  ---------------------------------------------------
  free energy    TOTEN  =       -85.68628024 eV

  energy without entropy =      -85.68628024  energy(sigma->0) =      -85.68628024


--------------------------------------------------------------------------------------------------------




--------------------------------------- Iteration      1(  21)  ---------------------------------------


    POTLOK:  cpu time     22.8994: real time     22.9071
    SETDIJ:  cpu time      0.1766: real time      0.1769
    TRIAL :  cpu time      0.4479: real time      0.4479
    CORREC:  cpu time     23.1856: real time     23.1927
    CHARGE:  cpu time      0.1291: real time      0.1291
    --------------------------------------------
      LOOP:  cpu time     46.8520: real time     46.8822

 eigenvalue-minimisations  :     0
 total energy-change (2. order) :-0.1072782E-05  (-0.3260181E-06)
 number of electron      44.0000000 magnetization 
 augmentation part        0.0813842 magnetization 

 Free energy of the ion-electron system (eV)
  ---------------------------------------------------
  alpha Z        PSCENC =         0.85132753
  Ewald energy   TEWEN  =      3249.38137581
  -Hartree energ DENC   =     -4771.40349630
  -exchange      EXHF   =         0.00000000
  -V(xc)+E(xc)   XCENC  =       119.18079782
  PAW double counting   =     16081.98522921   -16048.64051977
  entropy T*S    EENTRO =        -0.00000000
  eigenvalues    EBANDS =      -582.38555552
  atomic energy  EATOM  =      1865.34455991
  ---------------------------------------------------
  free energy    TOTEN  =       -85.68628131 eV

  energy without entropy =      -85.68628131  energy(sigma->0) =      -85.68628131


--------------------------------------------------------------------------------------------------------




--------------------------------------- Iteration      1(  22)  ---------------------------------------


    POTLOK:  cpu time     23.0051: real time     23.0114
    SETDIJ:  cpu time      0.0009: real time      0.0009
    TRIAL :  cpu time      0.4455: real time      0.4462
    CORREC:  cpu time     23.2402: real time     23.2461
    CHARGE:  cpu time      0.1293: real time      0.1293
    --------------------------------------------
      LOOP:  cpu time     46.8343: real time     46.8637

 eigenvalue-minimisations  :     0
 total energy-change (2. order) :-0.3406985E-06  (-0.1427500E-06)
 number of electron      44.0000000 magnetization 
 augmentation part        0.0813810 magnetization 

 Free energy of the ion-electron system (eV)
  ---------------------------------------------------
  alpha Z        PSCENC =         0.85132753
  Ewald energy   TEWEN  =      3249.38137581
  -Hartree energ DENC   =     -4771.40115932
  -exchange      EXHF   =         0.00000000
  -V(xc)+E(xc)   XCENC  =       119.18071427
  PAW double counting   =     16082.20559578   -16048.86085852
  entropy T*S    EENTRO =        -0.00000000
  eigenvalues    EBANDS =      -582.38783712
  atomic energy  EATOM  =      1865.34455991
  ---------------------------------------------------
  free energy    TOTEN  =       -85.68628165 eV

  energy without entropy =      -85.68628165  energy(sigma->0) =      -85.68628165


--------------------------------------------------------------------------------------------------------




--------------------------------------- Iteration      1(  23)  ---------------------------------------


    POTLOK:  cpu time     22.9859: real time     22.9922
    SETDIJ:  cpu time      0.0129: real time      0.0129
    TRIAL :  cpu time      0.4500: real time      0.4504
    CORREC:  cpu time     23.2465: real time     23.2531
    CHARGE:  cpu time      0.1298: real time      0.1298
    --------------------------------------------
      LOOP:  cpu time     46.8545: real time     46.8683

 eigenvalue-minimisations  :     0
 total energy-change (2. order) :-0.1456046E-06  (-0.9639481E-07)
 number of electron      44.0000000 magnetization 
 augmentation part        0.0813782 magnetization 

 Free energy of the ion-electron system (eV)
  ---------------------------------------------------
  alpha Z        PSCENC =         0.85132753
  Ewald energy   TEWEN  =      3249.38137581
  -Hartree energ DENC   =     -4771.40028791
  -exchange      EXHF   =         0.00000000
  -V(xc)+E(xc)   XCENC  =       119.18072422
  PAW double counting   =     16082.23716514   -16048.89244226
  entropy T*S    EENTRO =        -0.00000000
  eigenvalues    EBANDS =      -582.38870424
  atomic energy  EATOM  =      1865.34455991
  ---------------------------------------------------
  free energy    TOTEN  =       -85.68628180 eV

  energy without entropy =      -85.68628180  energy(sigma->0) =      -85.68628180


--------------------------------------------------------------------------------------------------------




--------------------------------------- Iteration      1(  24)  ---------------------------------------


    POTLOK:  cpu time     22.9422: real time     22.9485
    SETDIJ:  cpu time      0.0794: real time      0.0794
    TRIAL :  cpu time      0.4481: real time      0.4485
    CORREC:  cpu time     23.1906: real time     23.1976
    EDDIAG:  cpu time      0.1796: real time      0.1803
    CHARGE:  cpu time      0.1289: real time      0.1289
    --------------------------------------------
      LOOP:  cpu time     46.9802: real time     47.0124

 eigenvalue-minimisations  :     0
 total energy-change (2. order) :-0.9659379E-07  (-0.9803815E-07)
 number of electron      44.0000000 magnetization 
 augmentation part        0.0813713 magnetization 

 Free energy of the ion-electron system (eV)
  ---------------------------------------------------
  alpha Z        PSCENC =         0.85132753
  Ewald energy   TEWEN  =      3249.38137581
  -Hartree energ DENC   =     -4771.40020234
  -exchange      EXHF   =         0.00000000
  -V(xc)+E(xc)   XCENC  =       119.18071854
  PAW double counting   =     16082.21338724   -16048.86867689
  entropy T*S    EENTRO =        -0.00000000
  eigenvalues    EBANDS =      -582.38877170
  atomic energy  EATOM  =      1865.34455991
  ---------------------------------------------------
  free energy    TOTEN  =       -85.68628189 eV

  energy without entropy =      -85.68628189  energy(sigma->0) =      -85.68628189


--------------------------------------------------------------------------------------------------------


  average scaling for gradient   1.0620


 average (electrostatic) potential at core
  the test charge radii are     0.5770  0.4325  0.5955
  (the norm of the test charge is              1.0000)
       1 -87.3402       2 -87.3390       3 -87.3397       4 -87.3385       5 -89.1566
       6 -89.1569       7 -46.3660       8 -46.6330       9 -46.6325      10 -46.6336
      11 -46.3688      12 -46.6340      13 -46.3656      14 -46.3704      15-119.6349
      16-119.6350



 E-fermi :  -5.8531     XC(G=0):  -0.6492     alpha+bet : -0.1477

 Fermi energy:        -5.8531297768

 k-point     1 :       0.0000    0.0000    0.0000
  band No.  band energies     occupation 
      1     -26.3131      2.00000
      2     -26.2721      2.00000
      3     -21.0519      2.00000
      4     -19.3772      2.00000
      5     -17.7050      2.00000
      6     -16.5049      2.00000
      7     -14.2169      2.00000
      8     -12.8008      2.00000
      9     -12.7702      2.00000
     10     -11.7713      2.00000
     11     -11.7526      2.00000
     12     -10.8818      2.00000
     13     -10.8194      2.00000
     14     -10.4649      2.00000
     15     -10.1724      2.00000
     16      -9.8591      2.00000
     17      -9.7507      2.00000
     18      -9.3031      2.00000
     19      -8.9052      2.00000
     20      -8.4756      2.00000
     21      -6.0667      2.00000
     22      -5.9597      2.00000
     23      -2.1959      0.00000
     24      -2.1139      0.00000
     25      -1.8310      0.00000
     26      -1.5153      0.00000
     27      -1.0693      0.00000
     28      -0.9161      0.00000
     29      -0.6855      0.00000
     30      -0.5725      0.00000
     31      -0.4307      0.00000
     32      -0.2194      0.00000


--------------------------------------------------------------------------------------------------------


 soft charge-density along one line, spin component           1
         0         1         2         3         4         5         6         7         8         9
 total charge-density along one line

 pseudopotential strength for first ion, spin component:           1
 12.722  21.410   0.002   0.002   0.002   0.003   0.003   0.004
 21.410  36.030   0.003   0.003   0.004   0.005   0.005   0.006
  0.002   0.003  -3.262   0.000   0.000  -5.848   0.001   0.001
  0.002   0.003   0.000  -3.262   0.001   0.001  -5.847   0.001
  0.002   0.004   0.000   0.001  -3.263   0.001   0.001  -5.849
  0.003   0.005  -5.848   0.001   0.001 -10.461   0.001   0.001
  0.003   0.005   0.001  -5.847   0.001   0.001 -10.460   0.002
  0.004   0.006   0.001   0.001  -5.849   0.001   0.002 -10.464
 total augmentation occupancy for first ion, spin component:           1
  6.506  -2.141   0.102   0.074  -0.134  -0.081  -0.020   0.052
 -2.141   0.742  -0.088  -0.030   0.043   0.059   0.001  -0.018
  0.102  -0.088   5.203   0.029   0.007  -1.591   0.001   0.015
  0.074  -0.030   0.029   5.091   0.027   0.001  -1.524  -0.000
 -0.134   0.043   0.007   0.027   5.180   0.014  -0.000  -1.604
 -0.081   0.059  -1.591   0.001   0.014   0.499  -0.006  -0.014
 -0.020   0.001   0.001  -1.524  -0.000  -0.006   0.462  -0.001
  0.052  -0.018   0.015  -0.000  -1.604  -0.014  -0.001   0.510


------------------------ aborting loop because EDIFF is reached ----------------------------------------


    FORLOC:  cpu time      0.0539: real time      0.0539
    FORNL :  cpu time      0.0540: real time      0.0540
    FORCOR:  cpu time     22.9176: real time     22.9244
    OFIELD:  cpu time      0.0060: real time      0.0064

 VOLUME and BASIS-vectors are now :
 -----------------------------------------------------------------------------
  energy-cutoff  :     1000.00
  volume of cell :     6859.00
      direct lattice vectors                 reciprocal lattice vectors
    19.000000000  0.000000000  0.000000000     0.052631579  0.000000000  0.000000000
     0.000000000 19.000000000  0.000000000     0.000000000  0.052631579  0.000000000
     0.000000000  0.000000000 19.000000000     0.000000000  0.000000000  0.052631579

  length of vectors
    19.000000000 19.000000000 19.000000000     0.052631579  0.052631579  0.052631579


 FORCES acting on ions:
    Electron-Ion                     Ewald-Force                    Non-Local-Force
 -----------------------------------------------------------------------------------------------
   0.480E+02 0.179E+03 -.265E+02   -.495E+02 -.180E+03 0.256E+02   0.151E+01 0.997E+00 0.978E+00
   -.834E+02 0.151E+03 0.747E+02   0.851E+02 -.152E+03 -.740E+02   -.172E+01 0.907E+00 -.709E+00
   -.161E+02 -.158E+03 -.100E+03   0.177E+02 0.159E+03 0.100E+03   -.172E+01 -.113E+01 -.196E+00
   0.510E+02 -.173E+03 0.539E+02   -.528E+02 0.173E+03 -.538E+02   0.193E+01 -.774E+00 -.818E-01
   -.113E+02 -.856E+00 -.253E+01   0.810E+01 0.637E+00 0.167E+01   0.313E+01 0.213E+00 0.840E+00
   0.110E+02 0.914E+00 0.376E+01   -.778E+01 -.685E+00 -.294E+01   -.313E+01 -.224E+00 -.805E+00
   -.458E+02 0.777E+02 -.760E+01   0.490E+02 -.822E+02 0.904E+01   -.321E+01 0.457E+01 -.144E+01
   -.265E+02 0.145E+02 0.839E+02   0.274E+02 -.138E+02 -.893E+02   -.858E+00 -.676E+00 0.544E+01
   0.204E+02 0.426E+02 -.756E+02   -.212E+02 -.436E+02 0.810E+02   0.815E+00 0.107E+01 -.538E+01
   0.202E+02 -.151E+02 -.855E+02   -.220E+02 0.143E+02 0.907E+02   0.185E+01 0.735E+00 -.518E+01
   -.333E+02 -.831E+02 -.131E+02   0.362E+02 0.881E+02 0.133E+02   -.288E+01 -.499E+01 -.163E+00
   -.141E+02 -.418E+02 0.775E+02   0.159E+02 0.429E+02 -.826E+02   -.181E+01 -.111E+01 0.512E+01
   0.500E+02 -.748E+02 -.921E+01   -.538E+02 0.790E+02 0.103E+02   0.385E+01 -.414E+01 -.113E+01
   0.289E+02 0.801E+02 0.305E+02   -.312E+02 -.847E+02 -.333E+02   0.223E+01 0.455E+01 0.276E+01
   -.395E+03 -.269E+02 -.106E+03   0.445E+03 0.303E+02 0.119E+03   -.503E+02 -.341E+01 -.135E+02
   0.395E+03 0.271E+02 0.103E+03   -.446E+03 -.305E+02 -.115E+03   0.505E+02 0.342E+01 0.130E+02
 -----------------------------------------------------------------------------------------------
   -.126E+00 -.412E-02 0.484E+00   -.114E-12 0.639E-13 -.142E-13   0.126E+00 0.529E-02 -.485E+00


 POSITION                                       TOTAL-FORCE (eV/Angst)
 -----------------------------------------------------------------------------------
      8.88549      8.18627      9.31883        -0.000668     -0.000867      0.002408
     10.38057      8.38655      9.03672         0.001330     -0.000186     -0.000435
      9.95913     10.72654     10.02168        -0.000908      0.003633      0.002766
      8.78469     10.74207      9.03431        -0.001763      0.002268     -0.003116
     10.95393      9.60975      9.73853         0.013929      0.001298      0.004483
      8.04929      9.41075      8.97339        -0.015324     -0.000462     -0.001150
     10.97825      7.51183      9.31492         0.001350     -0.001032      0.001026
     10.53647      8.53934      7.95552        -0.000175      0.001667     -0.004806
      8.73398      7.99364     10.39427        -0.000245     -0.001325      0.005345
      9.58109     10.56042     11.04448        -0.003995      0.001657      0.005502
     10.49919     11.67930     10.04260         0.002741     -0.000434     -0.001297
      9.15869     10.94424      8.01650         0.004154      0.000836     -0.004183
      8.06014     11.53179      9.26022        -0.003355      0.000672      0.001817
      8.47350      7.32070      8.78900        -0.002392     -0.002035     -0.003686
     12.12626      9.68930     10.05298        -0.012239     -0.004074     -0.006149
      6.87374      9.33069      8.67122         0.017560     -0.001614      0.001475
 -----------------------------------------------------------------------------------
    total drift:                                0.000320      0.001168     -0.001124


--------------------------------------------------------------------------------------------------------



  FREE ENERGIE OF THE ION-ELECTRON SYSTEM (eV)
  ---------------------------------------------------
  free  energy   TOTEN  =       -85.68628189 eV

  energy  without entropy=      -85.68628189  energy(sigma->0) =      -85.68628189



--------------------------------------------------------------------------------------------------------


    POTLOK:  cpu time     23.1190: real time     23.1257


--------------------------------------------------------------------------------------------------------


 stress matrix after NEB project (eV)
      0.00000      0.00000      0.00000
      0.00000      0.00000      0.00000
      0.00000      0.00000      0.00000
  FORCES: max atom, RMS     0.017696    0.008698
  FORCE total and by dimension    0.034794    0.017560
  Stress total and by dimension    0.000000    0.000000
     LOOP+:  cpu time    966.1442: real time    966.7655
    4ORBIT:  cpu time      0.0000: real time      0.0000

 total amount of memory used by VASP MPI-rank0   111763. kBytes
=======================================================================

   base      :      30000. kBytes
   nonl-proj :       3440. kBytes
   fftplans  :      25107. kBytes
   grid      :      50266. kBytes
   one-center:          1. kBytes
   wavefun   :       2949. kBytes

  
  
 General timing and accounting informations for this job:
 ========================================================
  
                  Total CPU time used (sec):      976.226
                            User time (sec):      964.537
                          System time (sec):       11.689
                         Elapsed time (sec):      979.706
  
                   Maximum memory used (kb):      709456.
                   Average memory used (kb):          N/A
  
                          Minor page faults:       307668
                          Major page faults:         1160
                 Voluntary context switches:         3896
