 vasp.6.4.1 05Apr23 (build Jun  6 2023 14:46:38) gamma-only                      
 executed on        HPECrayEX_GCC date 2024.08.20  17:20:48
 running  256 mpi-ranks, with    1 threads/rank, on    2 nodes
 distrk:  each k-point on  256 cores,    1 groups
 distr:  one band on NCORE=  64 cores,    4 groups


--------------------------------------------------------------------------------------------------------


 INCAR:
   ALGO = Conjugate
   NPAR = 4
   ISMEAR = 0
   SIGMA = 0.01
   PREC = Accurate
   EDIFF = 1E-7
   ENCUT = 1000
   ISIF = 0
   GGA = MK
   PARAM1 = 0.1234
   PARAM2 = 1.0000
   LUSE_VDW = .TRUE.
   AGGAC = 0.0000
   LASPH = .TRUE.
   SYMPREC = 1E-7
   LWAVE = .FALSE.
   LCHARG = .FALSE.

 POTCAR:    PAW_PBE C_h 06Feb2004                 
 POTCAR:    PAW_PBE H_h 06Feb2004                 
 POTCAR:    PAW_PBE O_h 06Feb2004                 
 -----------------------------------------------------------------------------
|                                                                             |
|               ----> ADVICE to this user running VASP <----                  |
|                                                                             |
|     You have switched on vdW-DFT.                                           |
|     This routine was written and supplied by Jiri Klimes. We recommend      |
|     that you carefully read and cite the following publications:            |
|       J. Klimes, D.R. Bowler, A. Michelides                                 |
|          J. Phys.: Cond Matt. 22 022201 (2010)                              |
|       J. Klimes, D.R. Bowler, A. Michelides                                 |
|          Phys. Rev. B. 83, 195131 (2011)                                    |
|     and references therein.                                                 |
|                                                                             |
 -----------------------------------------------------------------------------

 POTCAR:    PAW_PBE C_h 06Feb2004                 
   VRHFIN =C: s2p2                                                                                  
   LEXCH  = PE                                                                                      
   EATOM  =   147.1560 eV,   10.8157 Ry                                                             
                                                                                                    
   TITEL  = PAW_PBE C_h 06Feb2004                                                                   
   LULTRA =        F    use ultrasoft PP ?                                                          
   IUNSCR =        1    unscreen: 0-lin 1-nonlin 2-no                                               
   RPACOR =    0.800    partial core radius                                                         
   POMASS =   12.011; ZVAL   =    4.000    mass and valenz                                          
   RCORE  =    1.100    outmost cutoff radius                                                       
   RWIGS  =    1.630; RWIGS  =    0.863    wigner-seitz radius (au A)                               
   ENMAX  =  700.000; ENMIN  =  500.000 eV                                                          
   ICORE  =        2    local potential                                                             
   LCOR   =        T    correct aug charges                                                         
   LPAW   =        T    paw PP                                                                      
   EAUG   =  946.768                                                                                
   DEXC   =    0.000                                                                                
   RMAX   =    1.128    core radius for proj-oper                                                   
   RAUG   =    1.300    factor for augmentation sphere                                              
   RDEP   =    1.162    radius for radial grids                                                     
   RDEPT  =    1.088    core radius for aug-charge                                                  
                                                                                                    
   Atomic configuration                                                                             
    4 entries                                                                                       
     n  l   j            E        occ.                                                              
     1  0  0.50      -273.3789   2.0000                                                             
     2  0  0.50       -13.7508   2.0000                                                             
     2  1  0.50        -5.2854   2.0000                                                             
     3  2  1.50        -5.4423   0.0000                                                             
   Description                                                                                      
     l       E           TYP  RCUT    TYP  RCUT                                                     
     0    -13.7508458     23  1.100                                                                 
     0     -8.2022199     23  1.100                                                                 
     1     -5.2854383     23  1.100                                                                 
     1      1.1560700     23  1.100                                                                 
     2     -5.4423304      7  1.100                                                                 
  local pseudopotential read in
  partial core-charges read in
  partial kinetic energy density read in
  atomic valenz-charges read in
  non local Contribution for L=           0  read in
    real space projection operators read in
  non local Contribution for L=           0  read in
    real space projection operators read in
  non local Contribution for L=           1  read in
    real space projection operators read in
  non local Contribution for L=           1  read in
    real space projection operators read in
    PAW grid and wavefunctions read in

   number of l-projection  operators is LMAX  =           4
   number of lm-projection operators is LMMAX =           8

 POTCAR:    PAW_PBE H_h 06Feb2004                 
   VRHFIN =H: ultrasoft test                                                                        
   LEXCH  = PE                                                                                      
   EATOM  =    12.4884 eV,    0.9179 Ry                                                             
                                                                                                    
   TITEL  = PAW_PBE H_h 06Feb2004                                                                   
   LULTRA =        F    use ultrasoft PP ?                                                          
   IUNSCR =        0    unscreen: 0-lin 1-nonlin 2-no                                               
   RPACOR =    0.000    partial core radius                                                         
   POMASS =    1.000; ZVAL   =    1.000    mass and valenz                                          
   RCORE  =    0.800    outmost cutoff radius                                                       
   RWIGS  =    0.700; RWIGS  =    0.370    wigner-seitz radius (au A)                               
   ENMAX  =  700.000; ENMIN  =  350.000 eV                                                          
   RCLOC  =    0.701    cutoff for local pot                                                        
   LCOR   =        T    correct aug charges                                                         
   LPAW   =        T    paw PP                                                                      
   EAUG   = 1000.000                                                                                
   RMAX   =    0.819    core radius for proj-oper                                                   
   RAUG   =    1.000    factor for augmentation sphere                                              
   RDEP   =    0.817    radius for radial grids                                                     
   RDEPT  =    0.817    core radius for aug-charge                                                  
                                                                                                    
   Atomic configuration                                                                             
    2 entries                                                                                       
     n  l   j            E        occ.                                                              
     1  0  0.50        -6.4927   1.0000                                                             
     2  1  0.50        -3.4015   0.0000                                                             
   Description                                                                                      
     l       E           TYP  RCUT    TYP  RCUT                                                     
     0     -6.4927493     23  0.800                                                                 
     0      6.8029130     23  0.800                                                                 
     1     -6.8029130     23  0.800                                                                 
  local pseudopotential read in
  atomic valenz-charges read in
  non local Contribution for L=           0  read in
    real space projection operators read in
  non local Contribution for L=           0  read in
    real space projection operators read in
  non local Contribution for L=           1  read in
    real space projection operators read in
    PAW grid and wavefunctions read in

   number of l-projection  operators is LMAX  =           3
   number of lm-projection operators is LMMAX =           5

 POTCAR:    PAW_PBE O_h 06Feb2004                 
   VRHFIN =O: s2p4                                                                                  
   LEXCH  = PE                                                                                      
   EATOM  =   432.3788 eV,   31.7789 Ry                                                             
                                                                                                    
   TITEL  = PAW_PBE O_h 06Feb2004                                                                   
   LULTRA =        F    use ultrasoft PP ?                                                          
   IUNSCR =        1    unscreen: 0-lin 1-nonlin 2-no                                               
   RPACOR =    0.800    partial core radius                                                         
   POMASS =   16.000; ZVAL   =    6.000    mass and valenz                                          
   RCORE  =    1.100    outmost cutoff radius                                                       
   RWIGS  =    1.400; RWIGS  =    0.741    wigner-seitz radius (au A)                               
   ENMAX  =  700.000; ENMIN  =  500.000 eV                                                          
   ICORE  =        2    local potential                                                             
   LCOR   =        T    correct aug charges                                                         
   LPAW   =        T    paw PP                                                                      
   EAUG   =  888.804                                                                                
   DEXC   =    0.000                                                                                
   RMAX   =    1.128    core radius for proj-oper                                                   
   RAUG   =    1.300    factor for augmentation sphere                                              
   RDEP   =    1.125    radius for radial grids                                                     
   RDEPT  =    1.088    core radius for aug-charge                                                  
                                                                                                    
   Atomic configuration                                                                             
    4 entries                                                                                       
     n  l   j            E        occ.                                                              
     1  0  0.50      -514.6923   2.0000                                                             
     2  0  0.50       -23.9615   2.0000                                                             
     2  1  0.50        -9.0305   4.0000                                                             
     3  2  1.50        -9.5241   0.0000                                                             
   Description                                                                                      
     l       E           TYP  RCUT    TYP  RCUT                                                     
     0    -23.9615319     23  1.100                                                                 
     0    -25.3221145     23  1.100                                                                 
     1     -9.0304911     23  1.100                                                                 
     1     -5.4802209     23  1.100                                                                 
     2     -9.5240782      7  1.100                                                                 
  local pseudopotential read in
  partial core-charges read in
  partial kinetic energy density read in
  atomic valenz-charges read in
  non local Contribution for L=           0  read in
    real space projection operators read in
  non local Contribution for L=           0  read in
    real space projection operators read in
  non local Contribution for L=           1  read in
    real space projection operators read in
  non local Contribution for L=           1  read in
    real space projection operators read in
    PAW grid and wavefunctions read in

   number of l-projection  operators is LMAX  =           4
   number of lm-projection operators is LMMAX =           8

 -----------------------------------------------------------------------------
|                                                                             |
|               ----> ADVICE to this user running VASP <----                  |
|                                                                             |
|     You enforced a specific xc type in the INCAR file but a different       |
|     type was found in the POTCAR file.                                      |
|     I HOPE YOU KNOW WHAT YOU ARE DOING!                                     |
|                                                                             |
 -----------------------------------------------------------------------------

  PAW_PBE C_h 06Feb2004                 :
 energy of atom  1       EATOM= -147.1560
 kinetic energy error for atom=    0.0031 (will be added to EATOM!!)
  PAW_PBE H_h 06Feb2004                 :
 energy of atom  2       EATOM=  -12.4884
 kinetic energy error for atom=    0.0006 (will be added to EATOM!!)
  PAW_PBE O_h 06Feb2004                 :
 energy of atom  3       EATOM= -432.3788
 kinetic energy error for atom=    0.0171 (will be added to EATOM!!)


 POSCAR:  C  H  O
  positions in cartesian coordinates
  No initial velocities read in
 exchange correlation table for  LEXCH =       43
   RHO(1)=    0.500       N(1)  =     2000
   RHO(2)=  100.500       N(2)  =     4000

 VTST: version 4.1, (05/19/21)

 CHAIN: initializing optimizer
 
 OPT: Using VASP Dynamics algorithm
 CHAIN: Read ICHAIN            0

 POSCAR:  C  H  O
  positions in cartesian coordinates
  No initial velocities read in



--------------------------------------------------------------------------------------------------------


 ion  position               nearest neighbor table
   1  0.468  0.431  0.490-  14 1.10   9 1.10   6 1.52   2 1.53
   2  0.546  0.441  0.476-   7 1.10   8 1.10   5 1.52   1 1.53
   3  0.524  0.565  0.527-  11 1.10  10 1.10   5 1.52   4 1.53
   4  0.462  0.565  0.475-  13 1.10  12 1.10   6 1.52   3 1.53
   5  0.577  0.506  0.513-  15 1.22   3 1.52   2 1.52
   6  0.424  0.495  0.472-  16 1.22   4 1.52   1 1.52
   7  0.578  0.395  0.490-   2 1.10
   8  0.555  0.449  0.419-   2 1.10
   9  0.460  0.421  0.547-   1 1.10
  10  0.504  0.556  0.581-   3 1.10
  11  0.553  0.615  0.529-   3 1.10
  12  0.482  0.576  0.422-   4 1.10
  13  0.424  0.607  0.487-   4 1.10
  14  0.446  0.385  0.463-   1 1.10
  15  0.638  0.510  0.529-   5 1.22
  16  0.362  0.491  0.456-   6 1.22

  LATTYP: Found a simple cubic cell.
 ALAT       =    19.0000000000
  
  Lattice vectors:
  
 A1 = (  19.0000000000,   0.0000000000,   0.0000000000)
 A2 = (   0.0000000000,  19.0000000000,   0.0000000000)
 A3 = (   0.0000000000,   0.0000000000,  19.0000000000)


Analysis of symmetry for initial positions (statically):
=====================================================================
 Subroutine PRICEL returns:
 Original cell was already a primitive cell.
 

 Routine SETGRP: Setting up the symmetry group for a 
 simple cubic supercell.


 Subroutine GETGRP returns: Found  1 space group operations
 (whereof  1 operations were pure point group operations)
 out of a pool of 48 trial point group operations.


The static configuration has the point symmetry C_1 .


Analysis of symmetry for dynamics (positions and initial velocities):
=====================================================================
 Subroutine PRICEL returns:
 Original cell was already a primitive cell.
 

 Routine SETGRP: Setting up the symmetry group for a 
 simple cubic supercell.


 Subroutine GETGRP returns: Found  1 space group operations
 (whereof  1 operations were pure point group operations)
 out of a pool of 48 trial point group operations.


The dynamic configuration has the point symmetry C_1 .


 Subroutine INISYM returns: Found  1 space group operations
 (whereof  1 operations are pure point group operations),
 and found     1 'primitive' translations


----------------------------------------------------------------------------------------

                                     Primitive cell                                     

  volume of cell :    6859.0000

  direct lattice vectors                    reciprocal lattice vectors
    19.000000000  0.000000000  0.000000000     0.052631579  0.000000000  0.000000000
     0.000000000 19.000000000  0.000000000     0.000000000  0.052631579  0.000000000
     0.000000000  0.000000000 19.000000000     0.000000000  0.000000000  0.052631579

  length of vectors
    19.000000000 19.000000000 19.000000000     0.052631579  0.052631579  0.052631579

  position of ions in fractional coordinates (direct lattice)
     0.467657632  0.430856316  0.490464737
     0.546345526  0.441397368  0.475616842
     0.524165000  0.564554737  0.527456842
     0.462351842  0.565372105  0.475490000
     0.576522895  0.505776316  0.512554211
     0.423647105  0.495302632  0.472283684
     0.577802895  0.395359474  0.490258947
     0.554550789  0.449438947  0.418711579
     0.459683421  0.420717895  0.547066842
     0.504267632  0.555811579  0.581288421
     0.552589211  0.614700000  0.528557895
     0.482036579  0.576012632  0.421921053
     0.424217632  0.606936316  0.487380000
     0.445973421  0.385300000  0.462578947
     0.638223947  0.509963158  0.529104211
     0.361776053  0.491088947  0.456380000

  ion indices of the primitive-cell ions
   primitive index   ion index
                 1           1
                 2           2
                 3           3
                 4           4
                 5           5
                 6           6
                 7           7
                 8           8
                 9           9
                10          10
                11          11
                12          12
                13          13
                14          14
                15          15
                16          16

----------------------------------------------------------------------------------------



 KPOINTS: auto                                    

Automatic generation of k-mesh.
 Grid dimensions read from file:
 generate k-points for:    1    1    1

 Generating k-lattice:

  Cartesian coordinates                     Fractional coordinates (reciprocal lattice)
     0.052631579  0.000000000  0.000000000     1.000000000  0.000000000  0.000000000
     0.000000000  0.052631579  0.000000000     0.000000000  1.000000000  0.000000000
     0.000000000  0.000000000  0.052631579     0.000000000  0.000000000  1.000000000

  Length of vectors
     0.052631579  0.052631579  0.052631579

  Shift w.r.t. Gamma in fractional coordinates (k-lattice)
     0.000000000  0.000000000  0.000000000

 
 Subroutine IBZKPT returns following result:
 ===========================================
 
 Found      1 irreducible k-points:
 
 Following reciprocal coordinates:
            Coordinates               Weight
  0.000000  0.000000  0.000000      1.000000
 
 Following cartesian coordinates:
            Coordinates               Weight
  0.000000  0.000000  0.000000      1.000000
 


--------------------------------------------------------------------------------------------------------




 Dimension of arrays:
   k-points           NKPTS =      1   k-points in BZ     NKDIM =      1   number of bands    NBANDS=     32
   number of dos      NEDOS =    301   number of ions     NIONS =     16
   non local maximal  LDIM  =      4   non local SUM 2l+1 LMDIM =      8
   total plane-waves  NPLWV = ******
   max r-space proj   IRMAX =      1   max aug-charges    IRDMAX=   8205
   dimension x,y,z NGX =   196 NGY =  196 NGZ =  196
   dimension x,y,z NGXF=   392 NGYF=  392 NGZF=  392
   support grid    NGXF=   392 NGYF=  392 NGZF=  392
   ions per type =               6   8   2
   NGX,Y,Z   is equivalent  to a cutoff of  17.15, 17.15, 17.15 a.u.
   NGXF,Y,Z  is equivalent  to a cutoff of  34.30, 34.30, 34.30 a.u.

 SYSTEM =  unknown system                          
 POSCAR =   C  H  O                                

 Startparameter for this run:
   NWRITE =      2    write-flag & timer
   PREC   = accura    normal or accurate (medium, high low for compatibility)
   ISTART =      0    job   : 0-new  1-cont  2-samecut
   ICHARG =      2    charge: 1-file 2-atom 10-const
   ISPIN  =      1    spin polarized calculation?
   LNONCOLLINEAR =      F non collinear calculations
   LSORBIT =      F    spin-orbit coupling
   INIWAV =      1    electr: 0-lowe 1-rand  2-diag
   LASPH  =      T    aspherical Exc in radial PAW
 Electronic Relaxation 1
   ENCUT  = 1000.0 eV  73.50 Ry    8.57 a.u.  48.99 48.99 48.99*2*pi/ulx,y,z
   ENINI  = 1000.0     initial cutoff
   ENAUG  = 1000.0 eV  augmentation charge cutoff
   NELM   =     60;   NELMIN=  2; NELMDL= -5     # of ELM steps 
   EDIFF  = 0.1E-06   stopping-criterion for ELM
   LREAL  =      F    real-space projection
   NLSPLINE    = F    spline interpolate recip. space projectors
   LCOMPAT=      F    compatible to vasp.4.4
   GGA_COMPAT  = T    GGA compatible to vasp.4.4-vasp.4.6
   LMAXPAW     = -100 max onsite density
   LMAXMIX     =    2 max onsite mixed and CHGCAR
   VOSKOWN=      0    Vosko Wilk Nusair interpolation
   ROPT   =    0.00000   0.00000   0.00000
 Ionic relaxation
   EDIFFG = 0.1E-05   stopping-criterion for IOM
   NSW    =      0    number of steps for IOM
   NBLOCK =      1;   KBLOCK =      1    inner block; outer block 
   IBRION =     -1    ionic relax: 0-MD 1-quasi-New 2-CG
   NFREE  =      0    steps in history (QN), initial steepest desc. (CG)
   ISIF   =      0    stress and relaxation
   IWAVPR =     10    prediction:  0-non 1-charg 2-wave 3-comb
   ISYM   =      2    0-nonsym 1-usesym 2-fastsym
   LCORR  =      T    Harris-Foulkes like correction to forces

   POTIM  = 0.5000    time-step for ionic-motion
   TEIN   =    0.0    initial temperature
   TEBEG  =    0.0;   TEEND  =   0.0 temperature during run
   SMASS  =  -3.00    Nose mass-parameter (am)
   estimated Nose-frequenzy (Omega)   =  0.10E-29 period in steps = 0.13E+47 mass=  -0.825E-26a.u.
   SCALEE = 1.0000    scale energy and forces
   NPACO  =    256;   APACO  = 10.0  distance and # of slots for P.C.
   PSTRESS=    0.0 pullay stress

  Mass of Ions in am
   POMASS =  12.01  1.00 16.00
  Ionic Valenz
   ZVAL   =   4.00  1.00  6.00
  Atomic Wigner-Seitz radii
   RWIGS  =  -1.00 -1.00 -1.00
  virtual crystal weights 
   VCA    =   1.00  1.00  1.00
   NELECT =      44.0000    total number of electrons
   NUPDOWN=      -1.0000    fix difference up-down

 DOS related values:
   EMIN   =  10.00;   EMAX   =-10.00  energy-range for DOS
   EFERMI =   0.00;   METHOD = LEGACY      
   ISMEAR =     0;   SIGMA  =   0.01  broadening in eV -4-tet -1-fermi 0-gaus

 Electronic relaxation 2 (details)
   IALGO  =     58    algorithm
   LDIAG  =      T    sub-space diagonalisation (order eigenvalues)
   LSUBROT=      F    optimize rotation matrix (better conditioning)
   TURBO    =      0    0=normal 1=particle mesh
   IRESTART =      0    0=no restart 2=restart with 2 vectors
   NREBOOT  =      0    no. of reboots
   NMIN     =      0    reboot dimension
   EREF     =   0.00    reference energy to select bands
   IMIX   =      4    mixing-type and parameters
     AMIX     =   0.40;   BMIX     =  1.00
     AMIX_MAG =   1.60;   BMIX_MAG =  1.00
     AMIN     =   0.10
     WC   =   100.;   INIMIX=   1;  MIXPRE=   1;  MAXMIX= -45

 Intra band minimization:
   WEIMIN = 0.0000     energy-eigenvalue tresh-hold
   EBREAK =  0.78E-09  absolut break condition
   DEPER  =   0.30     relativ break condition  

   TIME   =   0.40     timestep for ELM

  volume/ion in A,a.u.               =     428.69      2892.93
  Fermi-wavevector in a.u.,A,eV,Ry     =   0.304186  0.574828  1.258933  0.092529
  Thomas-Fermi vector in A             =   1.176043

 Write flags
   LWAVE        =      F    write WAVECAR
   LDOWNSAMPLE  =      F    k-point downsampling of WAVECAR
   LCHARG       =      F    write CHGCAR
   LVTOT        =      F    write LOCPOT, total local potential
   LVHAR        =      F    write LOCPOT, Hartree potential only
   LELF         =      F    write electronic localiz. function (ELF)
   LORBIT       =      0    0 simple, 1 ext, 2 COOP (PROOUT), +10 PAW based schemes


 Dipole corrections
   LMONO  =      F    monopole corrections only (constant potential shift)
   LDIPOL =      F    correct potential (dipole corrections)
   IDIPOL =      0    1-x, 2-y, 3-z, 4-all directions 
   EPSILON=  1.0000000 bulk dielectric constant

 Exchange correlation treatment:
   GGA     =    MK    GGA type
   LEXCH   =    43    internal setting for exchange type
   LIBXC   =     F    Libxc                    
   VOSKOWN =     0    Vosko Wilk Nusair interpolation
   LHFCALC =     F    Hartree Fock is set to
   LHFONE  =     F    Hartree Fock one center treatment
   AEXX    =    0.0000 exact exchange contribution

 vdW DFT:
   LUSE_VDW   =     T    switch on vdW DFT
   IVDW_NL    =     1    kernel type
   LSPIN_VDW  =     F    use spin-polarized vdW DFT
   Zab_VDW    =-.8491    correlation parameter
   PARAM1     =0.1234
   PARAM2     =1.0000
   PARAM3     =0.0000
   -- rVV10 --
   BPARAM     = 6.3000
   CPARAM     = 0.0093

 Linear response parameters
   LEPSILON=     F    determine dielectric tensor
   LRPA    =     F    only Hartree local field effects (RPA)
   LNABLA  =     F    use nabla operator in PAW spheres
   LVEL    =     F    velocity operator in full k-point grid
   CSHIFT  =0.1000    complex shift for real part using Kramers Kronig
   OMEGAMAX=  -1.0    maximum frequency
   DEG_THRESHOLD= 0.2000000E-02 threshold for treating states as degnerate
   RTIME   =   -0.100 relaxation time in fs
  (WPLASMAI=    0.000 imaginary part of plasma frequency in eV, 0.658/RTIME)
   DFIELD  = 0.0000000 0.0000000 0.0000000 field for delta impulse in time

  Optional k-point grid parameters
   LKPOINTS_OPT  =     F    use optional k-point grid
   KPOINTS_OPT_MODE=     1    mode for optional k-point grid

 Orbital magnetization related:
   ORBITALMAG=     F  switch on orbital magnetization
   LCHIMAG   =     F  perturbation theory with respect to B field
   DQ        =  0.001000  dq finite difference perturbation B field
   LLRAUG    =     F  two centre corrections for induced B field
   LBONE     =     F  B-component reconstruction in AE one-centre
   LVGVCALC  =     T  calculate vGv susceptibility
   LVGVAPPL  =     F  apply vGv susceptibility instead of pGv for G=0

 Random number generation:
   RANDOM_GENERATOR = DEFAULT
   PCG_SEED         = not used


--------------------------------------------------------------------------------------------------------


 Static calculation
 charge density and potential will be updated during run
 non-spin polarized calculation
 Conjugate gradient for all bands (Freysoldt, et al. PRB 79, 241103 (2009))
 preconditioned conjugated gradient                                        
 perform sub-space diagonalisation
    before iterative eigenvector-optimisation
 modified Broyden-mixing scheme, WC =      100.0
 initial mixing is a Kerker type mixing with AMIX =  0.4000 and BMIX =      1.0000
 Hartree-type preconditioning will be used
 using additional bands           10
 reciprocal scheme for non local part
 use partial core corrections
 no Harris-corrections to forces 
 use gradient corrections 
 use of overlap-Matrix (Vanderbilt PP)
 Gauss-broadening in eV      SIGMA  =   0.01


--------------------------------------------------------------------------------------------------------


  energy-cutoff  :     1000.00
  volume of cell :     6859.00
      direct lattice vectors                 reciprocal lattice vectors
    19.000000000  0.000000000  0.000000000     0.052631579  0.000000000  0.000000000
     0.000000000 19.000000000  0.000000000     0.000000000  0.052631579  0.000000000
     0.000000000  0.000000000 19.000000000     0.000000000  0.000000000  0.052631579

  length of vectors
    19.000000000 19.000000000 19.000000000     0.052631579  0.052631579  0.052631579



 k-points in units of 2pi/SCALE and weight: auto                                    
   0.00000000  0.00000000  0.00000000       1.000

 k-points in reciprocal lattice and weights: auto                                    
   0.00000000  0.00000000  0.00000000       1.000

 position of ions in fractional coordinates (direct lattice) 
   0.46765763  0.43085632  0.49046474
   0.54634553  0.44139737  0.47561684
   0.52416500  0.56455474  0.52745684
   0.46235184  0.56537211  0.47549000
   0.57652289  0.50577632  0.51255421
   0.42364711  0.49530263  0.47228368
   0.57780289  0.39535947  0.49025895
   0.55455079  0.44943895  0.41871158
   0.45968342  0.42071789  0.54706684
   0.50426763  0.55581158  0.58128842
   0.55258921  0.61470000  0.52855789
   0.48203658  0.57601263  0.42192105
   0.42421763  0.60693632  0.48738000
   0.44597342  0.38530000  0.46257895
   0.63822395  0.50996316  0.52910421
   0.36177605  0.49108895  0.45638000

 position of ions in cartesian coordinates  (Angst):
   8.88549500  8.18627000  9.31883000
  10.38056500  8.38655000  9.03672000
   9.95913500 10.72654000 10.02168000
   8.78468500 10.74207000  9.03431000
  10.95393500  9.60975000  9.73853000
   8.04929500  9.41075000  8.97339000
  10.97825500  7.51183000  9.31492000
  10.53646500  8.53934000  7.95552000
   8.73398500  7.99364000 10.39427000
   9.58108500 10.56042000 11.04448000
  10.49919500 11.67930000 10.04260000
   9.15869500 10.94424000  8.01650000
   8.06013500 11.53179000  9.26022000
   8.47349500  7.32070000  8.78900000
  12.12625500  9.68930000 10.05298000
   6.87374500  9.33069000  8.67122000



--------------------------------------------------------------------------------------------------------


 use parallel FFT for orbitals z direction half grid
 k-point   1 :   0.0000 0.0000 0.0000  plane waves:  246089

 maximum and minimum number of plane-waves per node :      3857     3838

 maximum number of plane-waves:    246089
 maximum index in each direction: 
   IXMAX=   48   IYMAX=   48   IZMAX=   48
   IXMIN=  -48   IYMIN=  -48   IZMIN=    0


 parallel 3D FFT for wavefunctions:
    minimum data exchange during FFTs selected (reduces bandwidth)
 parallel 3D FFT for charge:
    minimum data exchange during FFTs selected (reduces bandwidth)


 total amount of memory used by VASP MPI-rank0    72095. kBytes
=======================================================================

   base      :      30000. kBytes
   nonl-proj :       1720. kBytes
   fftplans  :      12995. kBytes
   grid      :      25903. kBytes
   one-center:          1. kBytes
   wavefun   :       1476. kBytes

     INWAV:  cpu time      0.0000: real time      0.0000
 Broyden mixing: mesh for mixing (old mesh)
   NGX = 97   NGY = 97   NGZ = 97
  (NGX  =392   NGY  =392   NGZ  =392)
  gives a total of 912673 points

 initial charge density was supplied:
 charge density of overlapping atoms calculated
 number of electron      44.0000000 magnetization 
 keeping initial charge density in first step


--------------------------------------------------------------------------------------------------------


 Maximum index for augmentation-charges          366 (set IRDMAX)


--------------------------------------------------------------------------------------------------------


 First call to EWALD:  gamma=   0.093
 Maximum number of real-space cells 3x 3x 3
 Maximum number of reciprocal cells 3x 3x 3

    FEWALD:  cpu time      0.0023: real time      0.0023


--------------------------------------- Ionic step        1  -------------------------------------------




--------------------------------------- Iteration      1(   1)  ---------------------------------------


vdW kernel read from vdw_kernel.bindat
  0.0000  0.2424  0.5071  0.7962  1.1119  1.4567  1.8333  2.2446  2.6937  3.1842
  3.7199  4.3049  4.9438  5.6415  6.4036  7.2358  8.1446  9.1372 10.2212 11.4050
 12.6979 14.1099 15.6519 17.3360 19.1751 21.1837 23.3773 25.7729 28.3892 31.2465
 34.3669 37.7748 41.4965 45.5611 50.0000

    POTLOK:  cpu time     12.2558: real time     12.2613
    SETDIJ:  cpu time      0.0759: real time      0.0762
    TRIAL :  cpu time      0.4099: real time      0.4110
    CORREC:  cpu time      0.0014: real time      0.0014
    --------------------------------------------
      LOOP:  cpu time     12.7498: real time     12.7569

 eigenvalue-minimisations  :    80
 total energy-change (2. order) : 0.4926172E+03  (-0.1284593E+04)
 number of electron      44.0000000 magnetization 
 augmentation part       44.0000000 magnetization 

 Free energy of the ion-electron system (eV)
  ---------------------------------------------------
  alpha Z        PSCENC =         0.85132753
  Ewald energy   TEWEN  =      3249.38137581
  -Hartree energ DENC   =     -4582.57818006
  -exchange      EXHF   =         0.00000000
  -V(xc)+E(xc)   XCENC  =       112.25085689
  PAW double counting   =      1390.10570328    -1356.34064746
  entropy T*S    EENTRO =        -0.00000000
  eigenvalues    EBANDS =      -177.27830262
  atomic energy  EATOM  =      1856.22507691
  ---------------------------------------------------
  free energy    TOTEN  =       492.61721028 eV

  energy without entropy =      492.61721028  energy(sigma->0) =      492.61721028


--------------------------------------------------------------------------------------------------------




--------------------------------------- Iteration      1(   2)  ---------------------------------------


    TRIAL :  cpu time      0.4846: real time      0.4851
    CORREC:  cpu time      0.0004: real time      0.0004
    --------------------------------------------
      LOOP:  cpu time      0.4964: real time      0.5122

 eigenvalue-minimisations  :   112
 total energy-change (2. order) :-0.2700558E+03  (-0.2537422E+03)
 number of electron      44.0000000 magnetization 
 augmentation part       44.0000000 magnetization 

 Free energy of the ion-electron system (eV)
  ---------------------------------------------------
  alpha Z        PSCENC =         0.85132753
  Ewald energy   TEWEN  =      3249.38137581
  -Hartree energ DENC   =     -4582.57818006
  -exchange      EXHF   =         0.00000000
  -V(xc)+E(xc)   XCENC  =       112.25085689
  PAW double counting   =      1390.10570328    -1356.34064746
  entropy T*S    EENTRO =        -0.00514644
  eigenvalues    EBANDS =      -447.32900552
  atomic energy  EATOM  =      1856.22507691
  ---------------------------------------------------
  free energy    TOTEN  =       222.56136094 eV

  energy without entropy =      222.56650738  energy(sigma->0) =      222.56393416


--------------------------------------------------------------------------------------------------------




--------------------------------------- Iteration      1(   3)  ---------------------------------------


    TRIAL :  cpu time      0.4601: real time      0.4601
    CORREC:  cpu time      0.0001: real time      0.0001
    --------------------------------------------
      LOOP:  cpu time      0.4739: real time      0.4883

 eigenvalue-minimisations  :   104
 total energy-change (2. order) :-0.2312560E+03  (-0.2278301E+03)
 number of electron      44.0000000 magnetization 
 augmentation part       44.0000000 magnetization 

 Free energy of the ion-electron system (eV)
  ---------------------------------------------------
  alpha Z        PSCENC =         0.85132753
  Ewald energy   TEWEN  =      3249.38137581
  -Hartree energ DENC   =     -4582.57818006
  -exchange      EXHF   =         0.00000000
  -V(xc)+E(xc)   XCENC  =       112.25085689
  PAW double counting   =      1390.10570328    -1356.34064746
  entropy T*S    EENTRO =        -0.00000000
  eigenvalues    EBANDS =      -678.59018840
  atomic energy  EATOM  =      1856.22507691
  ---------------------------------------------------
  free energy    TOTEN  =        -8.69467550 eV

  energy without entropy =       -8.69467550  energy(sigma->0) =       -8.69467550


--------------------------------------------------------------------------------------------------------




--------------------------------------- Iteration      1(   4)  ---------------------------------------


    TRIAL :  cpu time      0.4074: real time      0.4079
    CORREC:  cpu time      0.0001: real time      0.0001
    --------------------------------------------
      LOOP:  cpu time      0.4352: real time      0.4358

 eigenvalue-minimisations  :    88
 total energy-change (2. order) :-0.7887704E+02  (-0.7851200E+02)
 number of electron      44.0000000 magnetization 
 augmentation part       44.0000000 magnetization 

 Free energy of the ion-electron system (eV)
  ---------------------------------------------------
  alpha Z        PSCENC =         0.85132753
  Ewald energy   TEWEN  =      3249.38137581
  -Hartree energ DENC   =     -4582.57818006
  -exchange      EXHF   =         0.00000000
  -V(xc)+E(xc)   XCENC  =       112.25085689
  PAW double counting   =      1390.10570328    -1356.34064746
  entropy T*S    EENTRO =        -0.00000000
  eigenvalues    EBANDS =      -757.46723121
  atomic energy  EATOM  =      1856.22507691
  ---------------------------------------------------
  free energy    TOTEN  =       -87.57171831 eV

  energy without entropy =      -87.57171831  energy(sigma->0) =      -87.57171831


--------------------------------------------------------------------------------------------------------




--------------------------------------- Iteration      1(   5)  ---------------------------------------


    TRIAL :  cpu time      0.3796: real time      0.3797
    CORREC:  cpu time      0.0001: real time      0.0001
    CHARGE:  cpu time      0.0771: real time      0.0782
    --------------------------------------------
      LOOP:  cpu time      0.4696: real time      0.4856

 eigenvalue-minimisations  :    80
 total energy-change (2. order) :-0.6904368E+01  (-0.6793852E+01)
 number of electron      44.0000000 magnetization 
 augmentation part        0.1443961 magnetization 

 Free energy of the ion-electron system (eV)
  ---------------------------------------------------
  alpha Z        PSCENC =         0.85132753
  Ewald energy   TEWEN  =      3249.38137581
  -Hartree energ DENC   =     -4582.57818006
  -exchange      EXHF   =         0.00000000
  -V(xc)+E(xc)   XCENC  =       112.25085689
  PAW double counting   =      1390.10570328    -1356.34064746
  entropy T*S    EENTRO =        -0.00000000
  eigenvalues    EBANDS =      -764.37159900
  atomic energy  EATOM  =      1856.22507691
  ---------------------------------------------------
  free energy    TOTEN  =       -94.47608609 eV

  energy without entropy =      -94.47608609  energy(sigma->0) =      -94.47608609


--------------------------------------------------------------------------------------------------------




--------------------------------------- Iteration      1(   6)  ---------------------------------------


    POTLOK:  cpu time     11.6334: real time     11.6377
    SETDIJ:  cpu time      0.0690: real time      0.0690
    TRIAL :  cpu time      0.2026: real time      0.2043
    CORREC:  cpu time     11.8707: real time     11.8748
    CHARGE:  cpu time      0.0489: real time      0.0489
    --------------------------------------------
      LOOP:  cpu time     23.8389: real time     23.8638

 eigenvalue-minimisations  :     0
 total energy-change (2. order) : 0.1761596E+02  (-0.7001599E+01)
 number of electron      44.0000000 magnetization 
 augmentation part        0.0991453 magnetization 

 Free energy of the ion-electron system (eV)
  ---------------------------------------------------
  alpha Z        PSCENC =         0.85132753
  Ewald energy   TEWEN  =      3249.38137581
  -Hartree energ DENC   =     -4936.29616409
  -exchange      EXHF   =         0.00000000
  -V(xc)+E(xc)   XCENC  =       127.53506505
  PAW double counting   =     15243.77833371   -15211.78388770
  entropy T*S    EENTRO =        -0.00000000
  eigenvalues    EBANDS =      -406.55124998
  atomic energy  EATOM  =      1856.22507691
  ---------------------------------------------------
  free energy    TOTEN  =       -76.86012276 eV

  energy without entropy =      -76.86012276  energy(sigma->0) =      -76.86012276


--------------------------------------------------------------------------------------------------------




--------------------------------------- Iteration      1(   7)  ---------------------------------------


    POTLOK:  cpu time     11.6606: real time     11.6648
    SETDIJ:  cpu time      0.0699: real time      0.0699
    TRIAL :  cpu time      0.1882: real time      0.1882
    CORREC:  cpu time     11.8534: real time     11.8568
    CHARGE:  cpu time      0.0496: real time      0.0496
    --------------------------------------------
      LOOP:  cpu time     23.8507: real time     23.8584

 eigenvalue-minimisations  :     0
 total energy-change (2. order) :-0.7066775E+01  (-0.9696146E+00)
 number of electron      44.0000000 magnetization 
 augmentation part        0.0759458 magnetization 

 Free energy of the ion-electron system (eV)
  ---------------------------------------------------
  alpha Z        PSCENC =         0.85132753
  Ewald energy   TEWEN  =      3249.38137581
  -Hartree energ DENC   =     -4772.22468063
  -exchange      EXHF   =         0.00000000
  -V(xc)+E(xc)   XCENC  =       120.91900725
  PAW double counting   =     18081.57843586   -18048.59825826
  entropy T*S    EENTRO =        -0.00000000
  eigenvalues    EBANDS =      -572.05918189
  atomic energy  EATOM  =      1856.22507691
  ---------------------------------------------------
  free energy    TOTEN  =       -83.92689743 eV

  energy without entropy =      -83.92689743  energy(sigma->0) =      -83.92689743


--------------------------------------------------------------------------------------------------------




--------------------------------------- Iteration      1(   8)  ---------------------------------------


    POTLOK:  cpu time     11.7106: real time     11.7141
    SETDIJ:  cpu time      0.0686: real time      0.0689
    TRIAL :  cpu time      0.1871: real time      0.1871
    CORREC:  cpu time     11.9058: real time     11.9101
    CHARGE:  cpu time      0.0495: real time      0.0495
    --------------------------------------------
      LOOP:  cpu time     23.9351: real time     23.9586

 eigenvalue-minimisations  :     0
 total energy-change (2. order) :-0.9750157E+00  (-0.3823348E+00)
 number of electron      44.0000000 magnetization 
 augmentation part        0.0716821 magnetization 

 Free energy of the ion-electron system (eV)
  ---------------------------------------------------
  alpha Z        PSCENC =         0.85132753
  Ewald energy   TEWEN  =      3249.38137581
  -Hartree energ DENC   =     -4775.08940949
  -exchange      EXHF   =         0.00000000
  -V(xc)+E(xc)   XCENC  =       121.07724373
  PAW double counting   =     18223.38603952   -18190.32694529
  entropy T*S    EENTRO =        -0.00000000
  eigenvalues    EBANDS =      -570.40662187
  atomic energy  EATOM  =      1856.22507691
  ---------------------------------------------------
  free energy    TOTEN  =       -84.90191315 eV

  energy without entropy =      -84.90191315  energy(sigma->0) =      -84.90191315


--------------------------------------------------------------------------------------------------------




--------------------------------------- Iteration      1(   9)  ---------------------------------------


    POTLOK:  cpu time     11.6745: real time     11.6781
    SETDIJ:  cpu time      0.0692: real time      0.0692
    TRIAL :  cpu time      0.1869: real time      0.1872
    CORREC:  cpu time     11.9491: real time     11.9529
    CHARGE:  cpu time      0.0490: real time      0.0490
    --------------------------------------------
      LOOP:  cpu time     23.9414: real time     23.9657

 eigenvalue-minimisations  :     0
 total energy-change (2. order) :-0.3813061E+00  (-0.1730959E+00)
 number of electron      44.0000000 magnetization 
 augmentation part        0.0707933 magnetization 

 Free energy of the ion-electron system (eV)
  ---------------------------------------------------
  alpha Z        PSCENC =         0.85132753
  Ewald energy   TEWEN  =      3249.38137581
  -Hartree energ DENC   =     -4778.50831057
  -exchange      EXHF   =         0.00000000
  -V(xc)+E(xc)   XCENC  =       121.02894263
  PAW double counting   =     18680.34810274   -18647.23278863
  entropy T*S    EENTRO =        -0.00000000
  eigenvalues    EBANDS =      -567.37694569
  atomic energy  EATOM  =      1856.22507691
  ---------------------------------------------------
  free energy    TOTEN  =       -85.28321927 eV

  energy without entropy =      -85.28321927  energy(sigma->0) =      -85.28321927


--------------------------------------------------------------------------------------------------------




--------------------------------------- Iteration      1(  10)  ---------------------------------------


    POTLOK:  cpu time     11.7728: real time     11.7757
    SETDIJ:  cpu time      0.0688: real time      0.0690
    TRIAL :  cpu time      0.1870: real time      0.1870
    CORREC:  cpu time     11.8689: real time     11.8722
    CHARGE:  cpu time      0.0492: real time      0.0492
    --------------------------------------------
      LOOP:  cpu time     23.9591: real time     23.9829

 eigenvalue-minimisations  :     0
 total energy-change (2. order) :-0.1701669E+00  (-0.5644929E-01)
 number of electron      44.0000000 magnetization 
 augmentation part        0.0733346 magnetization 

 Free energy of the ion-electron system (eV)
  ---------------------------------------------------
  alpha Z        PSCENC =         0.85132753
  Ewald energy   TEWEN  =      3249.38137581
  -Hartree energ DENC   =     -4770.89203678
  -exchange      EXHF   =         0.00000000
  -V(xc)+E(xc)   XCENC  =       120.85079846
  PAW double counting   =     18406.15226184   -18373.02384133
  entropy T*S    EENTRO =        -0.00000000
  eigenvalues    EBANDS =      -574.99834857
  atomic energy  EATOM  =      1856.22507691
  ---------------------------------------------------
  free energy    TOTEN  =       -85.45338613 eV

  energy without entropy =      -85.45338613  energy(sigma->0) =      -85.45338613


--------------------------------------------------------------------------------------------------------




--------------------------------------- Iteration      1(  11)  ---------------------------------------


    POTLOK:  cpu time     11.7183: real time     11.7211
    SETDIJ:  cpu time      0.0690: real time      0.0690
    TRIAL :  cpu time      0.1868: real time      0.1871
    CORREC:  cpu time     11.9008: real time     11.9040
    CHARGE:  cpu time      0.0483: real time      0.0483
    --------------------------------------------
      LOOP:  cpu time     23.9363: real time     23.9582

 eigenvalue-minimisations  :     0
 total energy-change (2. order) :-0.5614607E-01  (-0.1924035E-01)
 number of electron      44.0000000 magnetization 
 augmentation part        0.0742683 magnetization 

 Free energy of the ion-electron system (eV)
  ---------------------------------------------------
  alpha Z        PSCENC =         0.85132753
  Ewald energy   TEWEN  =      3249.38137581
  -Hartree energ DENC   =     -4768.30593355
  -exchange      EXHF   =         0.00000000
  -V(xc)+E(xc)   XCENC  =       120.83587395
  PAW double counting   =     18055.39473126   -18022.29431485
  entropy T*S    EENTRO =        -0.00000000
  eigenvalues    EBANDS =      -577.59766927
  atomic energy  EATOM  =      1856.22507691
  ---------------------------------------------------
  free energy    TOTEN  =       -85.50953220 eV

  energy without entropy =      -85.50953220  energy(sigma->0) =      -85.50953220


--------------------------------------------------------------------------------------------------------




--------------------------------------- Iteration      1(  12)  ---------------------------------------


    POTLOK:  cpu time     11.6873: real time     11.6904
    SETDIJ:  cpu time      0.0689: real time      0.0689
    TRIAL :  cpu time      0.1856: real time      0.1861
    CORREC:  cpu time     11.8503: real time     11.8533
    CHARGE:  cpu time      0.0494: real time      0.0494
    --------------------------------------------
      LOOP:  cpu time     23.8707: real time     23.8773

 eigenvalue-minimisations  :     0
 total energy-change (2. order) :-0.1920307E-01  (-0.5623308E-02)
 number of electron      44.0000000 magnetization 
 augmentation part        0.0746024 magnetization 

 Free energy of the ion-electron system (eV)
  ---------------------------------------------------
  alpha Z        PSCENC =         0.85132753
  Ewald energy   TEWEN  =      3249.38137581
  -Hartree energ DENC   =     -4768.26467739
  -exchange      EXHF   =         0.00000000
  -V(xc)+E(xc)   XCENC  =       120.80229940
  PAW double counting   =     17929.98666640   -17896.89167265
  entropy T*S    EENTRO =        -0.00000000
  eigenvalues    EBANDS =      -577.61913128
  atomic energy  EATOM  =      1856.22507691
  ---------------------------------------------------
  free energy    TOTEN  =       -85.52873528 eV

  energy without entropy =      -85.52873528  energy(sigma->0) =      -85.52873528


--------------------------------------------------------------------------------------------------------




--------------------------------------- Iteration      1(  13)  ---------------------------------------


    POTLOK:  cpu time     11.7671: real time     11.7703
    SETDIJ:  cpu time      0.0690: real time      0.0690
    TRIAL :  cpu time      0.1869: real time      0.1873
    CORREC:  cpu time     11.8740: real time     11.8770
    CHARGE:  cpu time      0.0497: real time      0.0497
    --------------------------------------------
      LOOP:  cpu time     23.9602: real time     23.9824

 eigenvalue-minimisations  :     0
 total energy-change (2. order) :-0.5623838E-02  (-0.2004322E-02)
 number of electron      44.0000000 magnetization 
 augmentation part        0.0750261 magnetization 

 Free energy of the ion-electron system (eV)
  ---------------------------------------------------
  alpha Z        PSCENC =         0.85132753
  Ewald energy   TEWEN  =      3249.38137581
  -Hartree energ DENC   =     -4768.32409877
  -exchange      EXHF   =         0.00000000
  -V(xc)+E(xc)   XCENC  =       120.79577267
  PAW double counting   =     17925.55039986   -17892.45811330
  entropy T*S    EENTRO =        -0.00000000
  eigenvalues    EBANDS =      -577.55609983
  atomic energy  EATOM  =      1856.22507691
  ---------------------------------------------------
  free energy    TOTEN  =       -85.53435911 eV

  energy without entropy =      -85.53435911  energy(sigma->0) =      -85.53435911


--------------------------------------------------------------------------------------------------------




--------------------------------------- Iteration      1(  14)  ---------------------------------------


    POTLOK:  cpu time     11.6992: real time     11.7027
    SETDIJ:  cpu time      0.0691: real time      0.0692
    TRIAL :  cpu time      0.1864: real time      0.1864
    CORREC:  cpu time     11.8404: real time     11.8439
    CHARGE:  cpu time      0.0488: real time      0.0488
    --------------------------------------------
      LOOP:  cpu time     23.8612: real time     23.8805

 eigenvalue-minimisations  :     0
 total energy-change (2. order) :-0.2006046E-02  (-0.8214393E-03)
 number of electron      44.0000000 magnetization 
 augmentation part        0.0751661 magnetization 

 Free energy of the ion-electron system (eV)
  ---------------------------------------------------
  alpha Z        PSCENC =         0.85132753
  Ewald energy   TEWEN  =      3249.38137581
  -Hartree energ DENC   =     -4768.14000209
  -exchange      EXHF   =         0.00000000
  -V(xc)+E(xc)   XCENC  =       120.79002858
  PAW double counting   =     17948.43038148   -17915.33993527
  entropy T*S    EENTRO =        -0.00000000
  eigenvalues    EBANDS =      -577.73461810
  atomic energy  EATOM  =      1856.22507691
  ---------------------------------------------------
  free energy    TOTEN  =       -85.53636516 eV

  energy without entropy =      -85.53636516  energy(sigma->0) =      -85.53636516


--------------------------------------------------------------------------------------------------------




--------------------------------------- Iteration      1(  15)  ---------------------------------------


    POTLOK:  cpu time     11.6736: real time     11.6767
    SETDIJ:  cpu time      0.0693: real time      0.0693
    TRIAL :  cpu time      0.1869: real time      0.1869
    CORREC:  cpu time     11.7996: real time     11.8033
    CHARGE:  cpu time      0.0489: real time      0.0489
    --------------------------------------------
      LOOP:  cpu time     23.8072: real time     23.8140

 eigenvalue-minimisations  :     0
 total energy-change (2. order) :-0.8230346E-03  (-0.3432288E-03)
 number of electron      44.0000000 magnetization 
 augmentation part        0.0753793 magnetization 

 Free energy of the ion-electron system (eV)
  ---------------------------------------------------
  alpha Z        PSCENC =         0.85132753
  Ewald energy   TEWEN  =      3249.38137581
  -Hartree energ DENC   =     -4768.39379104
  -exchange      EXHF   =         0.00000000
  -V(xc)+E(xc)   XCENC  =       120.79268937
  PAW double counting   =     17962.15316680   -17929.06229365
  entropy T*S    EENTRO =        -0.00000000
  eigenvalues    EBANDS =      -577.48473993
  atomic energy  EATOM  =      1856.22507691
  ---------------------------------------------------
  free energy    TOTEN  =       -85.53718819 eV

  energy without entropy =      -85.53718819  energy(sigma->0) =      -85.53718819


--------------------------------------------------------------------------------------------------------




--------------------------------------- Iteration      1(  16)  ---------------------------------------


    POTLOK:  cpu time     11.7046: real time     11.7086
    SETDIJ:  cpu time      0.0691: real time      0.0691
    TRIAL :  cpu time      0.1870: real time      0.1870
    CORREC:  cpu time     11.8243: real time     11.8283
    CHARGE:  cpu time      0.0499: real time      0.0499
    --------------------------------------------
      LOOP:  cpu time     23.8473: real time     23.8719

 eigenvalue-minimisations  :     0
 total energy-change (2. order) :-0.3441764E-03  (-0.1267836E-03)
 number of electron      44.0000000 magnetization 
 augmentation part        0.0754267 magnetization 

 Free energy of the ion-electron system (eV)
  ---------------------------------------------------
  alpha Z        PSCENC =         0.85132753
  Ewald energy   TEWEN  =      3249.38137581
  -Hartree energ DENC   =     -4768.61952335
  -exchange      EXHF   =         0.00000000
  -V(xc)+E(xc)   XCENC  =       120.80083690
  PAW double counting   =     17960.64018053   -17927.55011738
  entropy T*S    EENTRO =        -0.00000000
  eigenvalues    EBANDS =      -577.26668932
  atomic energy  EATOM  =      1856.22507691
  ---------------------------------------------------
  free energy    TOTEN  =       -85.53753237 eV

  energy without entropy =      -85.53753237  energy(sigma->0) =      -85.53753237


--------------------------------------------------------------------------------------------------------




--------------------------------------- Iteration      1(  17)  ---------------------------------------


    POTLOK:  cpu time     11.6281: real time     11.6321
    SETDIJ:  cpu time      0.0690: real time      0.0690
    TRIAL :  cpu time      0.1876: real time      0.1876
    CORREC:  cpu time     11.8047: real time     11.8081
    CHARGE:  cpu time      0.0495: real time      0.0495
    --------------------------------------------
      LOOP:  cpu time     23.7562: real time     23.7759

 eigenvalue-minimisations  :     0
 total energy-change (2. order) :-0.1272939E-03  (-0.4387495E-04)
 number of electron      44.0000000 magnetization 
 augmentation part        0.0754833 magnetization 

 Free energy of the ion-electron system (eV)
  ---------------------------------------------------
  alpha Z        PSCENC =         0.85132753
  Ewald energy   TEWEN  =      3249.38137581
  -Hartree energ DENC   =     -4768.51151643
  -exchange      EXHF   =         0.00000000
  -V(xc)+E(xc)   XCENC  =       120.79718730
  PAW double counting   =     17958.53524006   -17925.44431363
  entropy T*S    EENTRO =        -0.00000000
  eigenvalues    EBANDS =      -577.37203721
  atomic energy  EATOM  =      1856.22507691
  ---------------------------------------------------
  free energy    TOTEN  =       -85.53765966 eV

  energy without entropy =      -85.53765966  energy(sigma->0) =      -85.53765966


--------------------------------------------------------------------------------------------------------




--------------------------------------- Iteration      1(  18)  ---------------------------------------


    POTLOK:  cpu time     11.6949: real time     11.6990
    SETDIJ:  cpu time      0.0692: real time      0.0692
    TRIAL :  cpu time      0.1873: real time      0.1873
    CORREC:  cpu time     11.8291: real time     11.8328
    CHARGE:  cpu time      0.0495: real time      0.0495
    --------------------------------------------
      LOOP:  cpu time     23.8586: real time     23.8666

 eigenvalue-minimisations  :     0
 total energy-change (2. order) :-0.4386049E-04  (-0.1443609E-04)
 number of electron      44.0000000 magnetization 
 augmentation part        0.0754277 magnetization 

 Free energy of the ion-electron system (eV)
  ---------------------------------------------------
  alpha Z        PSCENC =         0.85132753
  Ewald energy   TEWEN  =      3249.38137581
  -Hartree energ DENC   =     -4768.63458315
  -exchange      EXHF   =         0.00000000
  -V(xc)+E(xc)   XCENC  =       120.80269817
  PAW double counting   =     17957.48746693   -17924.39703015
  entropy T*S    EENTRO =        -0.00000000
  eigenvalues    EBANDS =      -577.25403558
  atomic energy  EATOM  =      1856.22507691
  ---------------------------------------------------
  free energy    TOTEN  =       -85.53770353 eV

  energy without entropy =      -85.53770353  energy(sigma->0) =      -85.53770353


--------------------------------------------------------------------------------------------------------




--------------------------------------- Iteration      1(  19)  ---------------------------------------


    POTLOK:  cpu time     11.6472: real time     11.6503
    SETDIJ:  cpu time      0.0689: real time      0.0689
    TRIAL :  cpu time      0.1862: real time      0.1867
    CORREC:  cpu time     11.8627: real time     11.8663
    CHARGE:  cpu time      0.0484: real time      0.0488
    --------------------------------------------
      LOOP:  cpu time     23.8266: real time     23.8500

 eigenvalue-minimisations  :     0
 total energy-change (2. order) :-0.1438525E-04  (-0.4621648E-05)
 number of electron      44.0000000 magnetization 
 augmentation part        0.0754156 magnetization 

 Free energy of the ion-electron system (eV)
  ---------------------------------------------------
  alpha Z        PSCENC =         0.85132753
  Ewald energy   TEWEN  =      3249.38137581
  -Hartree energ DENC   =     -4768.59475160
  -exchange      EXHF   =         0.00000000
  -V(xc)+E(xc)   XCENC  =       120.80140017
  PAW double counting   =     17958.89213544   -17925.80127044
  entropy T*S    EENTRO =        -0.00000000
  eigenvalues    EBANDS =      -577.29301173
  atomic energy  EATOM  =      1856.22507691
  ---------------------------------------------------
  free energy    TOTEN  =       -85.53771791 eV

  energy without entropy =      -85.53771791  energy(sigma->0) =      -85.53771791


--------------------------------------------------------------------------------------------------------




--------------------------------------- Iteration      1(  20)  ---------------------------------------


    POTLOK:  cpu time     11.6211: real time     11.6246
    SETDIJ:  cpu time      0.0689: real time      0.0689
    TRIAL :  cpu time      0.1866: real time      0.1866
    CORREC:  cpu time     11.8104: real time     11.8144
    CHARGE:  cpu time      0.0495: real time      0.0495
    --------------------------------------------
      LOOP:  cpu time     23.7498: real time     23.7733

 eigenvalue-minimisations  :     0
 total energy-change (2. order) :-0.4543790E-05  (-0.1731038E-05)
 number of electron      44.0000000 magnetization 
 augmentation part        0.0753875 magnetization 

 Free energy of the ion-electron system (eV)
  ---------------------------------------------------
  alpha Z        PSCENC =         0.85132753
  Ewald energy   TEWEN  =      3249.38137581
  -Hartree energ DENC   =     -4768.59432078
  -exchange      EXHF   =         0.00000000
  -V(xc)+E(xc)   XCENC  =       120.80190567
  PAW double counting   =     17959.91896355   -17926.82820976
  entropy T*S    EENTRO =        -0.00000000
  eigenvalues    EBANDS =      -577.29384139
  atomic energy  EATOM  =      1856.22507691
  ---------------------------------------------------
  free energy    TOTEN  =       -85.53772245 eV

  energy without entropy =      -85.53772245  energy(sigma->0) =      -85.53772245


--------------------------------------------------------------------------------------------------------




--------------------------------------- Iteration      1(  21)  ---------------------------------------


    POTLOK:  cpu time     11.6998: real time     11.7036
    SETDIJ:  cpu time      0.0690: real time      0.0690
    TRIAL :  cpu time      0.1864: real time      0.1864
    CORREC:  cpu time     11.7736: real time     11.7772
    CHARGE:  cpu time      0.0490: real time      0.0490
    --------------------------------------------
      LOOP:  cpu time     23.7929: real time     23.8144

 eigenvalue-minimisations  :     0
 total energy-change (2. order) :-0.1646647E-05  (-0.6808068E-06)
 number of electron      44.0000000 magnetization 
 augmentation part        0.0753863 magnetization 

 Free energy of the ion-electron system (eV)
  ---------------------------------------------------
  alpha Z        PSCENC =         0.85132753
  Ewald energy   TEWEN  =      3249.38137581
  -Hartree energ DENC   =     -4768.58900004
  -exchange      EXHF   =         0.00000000
  -V(xc)+E(xc)   XCENC  =       120.80150344
  PAW double counting   =     17960.61674250   -17927.52588795
  entropy T*S    EENTRO =        -0.00000000
  eigenvalues    EBANDS =      -577.29886231
  atomic energy  EATOM  =      1856.22507691
  ---------------------------------------------------
  free energy    TOTEN  =       -85.53772410 eV

  energy without entropy =      -85.53772410  energy(sigma->0) =      -85.53772410


--------------------------------------------------------------------------------------------------------




--------------------------------------- Iteration      1(  22)  ---------------------------------------


    POTLOK:  cpu time     11.6471: real time     11.6507
    SETDIJ:  cpu time      0.0689: real time      0.0689
    TRIAL :  cpu time      0.1875: real time      0.1875
    CORREC:  cpu time     12.0272: real time     12.0305
    CHARGE:  cpu time      0.0497: real time      0.0497
    --------------------------------------------
      LOOP:  cpu time     23.9926: real time     24.0161

 eigenvalue-minimisations  :     0
 total energy-change (2. order) :-0.6385126E-06  (-0.2526477E-06)
 number of electron      44.0000000 magnetization 
 augmentation part        0.0753760 magnetization 

 Free energy of the ion-electron system (eV)
  ---------------------------------------------------
  alpha Z        PSCENC =         0.85132753
  Ewald energy   TEWEN  =      3249.38137581
  -Hartree energ DENC   =     -4768.59137773
  -exchange      EXHF   =         0.00000000
  -V(xc)+E(xc)   XCENC  =       120.80180745
  PAW double counting   =     17960.60311051   -17927.51237632
  entropy T*S    EENTRO =        -0.00000000
  eigenvalues    EBANDS =      -577.29666891
  atomic energy  EATOM  =      1856.22507691
  ---------------------------------------------------
  free energy    TOTEN  =       -85.53772474 eV

  energy without entropy =      -85.53772474  energy(sigma->0) =      -85.53772474


--------------------------------------------------------------------------------------------------------




--------------------------------------- Iteration      1(  23)  ---------------------------------------


    POTLOK:  cpu time     11.6750: real time     11.6783
    SETDIJ:  cpu time      0.0693: real time      0.0693
    TRIAL :  cpu time      0.1878: real time      0.1878
    CORREC:  cpu time     11.8376: real time     11.8409
    CHARGE:  cpu time      0.0489: real time      0.0489
    --------------------------------------------
      LOOP:  cpu time     23.8476: real time     23.8544

 eigenvalue-minimisations  :     0
 total energy-change (2. order) :-0.2478664E-06  (-0.1044110E-06)
 number of electron      44.0000000 magnetization 
 augmentation part        0.0753802 magnetization 

 Free energy of the ion-electron system (eV)
  ---------------------------------------------------
  alpha Z        PSCENC =         0.85132753
  Ewald energy   TEWEN  =      3249.38137581
  -Hartree energ DENC   =     -4768.58095300
  -exchange      EXHF   =         0.00000000
  -V(xc)+E(xc)   XCENC  =       120.80128733
  PAW double counting   =     17960.57310084   -17927.48229096
  entropy T*S    EENTRO =        -0.00000000
  eigenvalues    EBANDS =      -577.30664945
  atomic energy  EATOM  =      1856.22507691
  ---------------------------------------------------
  free energy    TOTEN  =       -85.53772499 eV

  energy without entropy =      -85.53772499  energy(sigma->0) =      -85.53772499


--------------------------------------------------------------------------------------------------------




--------------------------------------- Iteration      1(  24)  ---------------------------------------


    POTLOK:  cpu time     11.6831: real time     11.6869
    SETDIJ:  cpu time      0.0689: real time      0.0689
    TRIAL :  cpu time      0.1869: real time      0.1870
    CORREC:  cpu time     11.7635: real time     11.7666
    CHARGE:  cpu time      0.0485: real time      0.0485
    --------------------------------------------
      LOOP:  cpu time     23.7639: real time     23.7863

 eigenvalue-minimisations  :     0
 total energy-change (2. order) :-0.1027947E-06  (-0.2763654E-07)
 number of electron      44.0000000 magnetization 
 augmentation part        0.0753810 magnetization 

 Free energy of the ion-electron system (eV)
  ---------------------------------------------------
  alpha Z        PSCENC =         0.85132753
  Ewald energy   TEWEN  =      3249.38137581
  -Hartree energ DENC   =     -4768.58742437
  -exchange      EXHF   =         0.00000000
  -V(xc)+E(xc)   XCENC  =       120.80151063
  PAW double counting   =     17960.54113725   -17927.45037247
  entropy T*S    EENTRO =        -0.00000000
  eigenvalues    EBANDS =      -577.30035639
  atomic energy  EATOM  =      1856.22507691
  ---------------------------------------------------
  free energy    TOTEN  =       -85.53772509 eV

  energy without entropy =      -85.53772509  energy(sigma->0) =      -85.53772509


--------------------------------------------------------------------------------------------------------




--------------------------------------- Iteration      1(  25)  ---------------------------------------


    POTLOK:  cpu time     11.6504: real time     11.6534
    SETDIJ:  cpu time      0.0688: real time      0.0690
    TRIAL :  cpu time      0.1873: real time      0.1873
    CORREC:  cpu time     11.8528: real time     11.8561
    EDDIAG:  cpu time      0.0849: real time      0.0857
    CHARGE:  cpu time      0.0496: real time      0.0496
    --------------------------------------------
      LOOP:  cpu time     23.9075: real time     23.9299

 eigenvalue-minimisations  :     0
 total energy-change (2. order) :-0.2739762E-07  (-0.9874255E-08)
 number of electron      44.0000000 magnetization 
 augmentation part        0.0753815 magnetization 

 Free energy of the ion-electron system (eV)
  ---------------------------------------------------
  alpha Z        PSCENC =         0.85132753
  Ewald energy   TEWEN  =      3249.38137581
  -Hartree energ DENC   =     -4768.58610968
  -exchange      EXHF   =         0.00000000
  -V(xc)+E(xc)   XCENC  =       120.80145226
  PAW double counting   =     17960.63553509   -17927.54476401
  entropy T*S    EENTRO =        -0.00000000
  eigenvalues    EBANDS =      -577.30161902
  atomic energy  EATOM  =      1856.22507691
  ---------------------------------------------------
  free energy    TOTEN  =       -85.53772512 eV

  energy without entropy =      -85.53772512  energy(sigma->0) =      -85.53772512


--------------------------------------------------------------------------------------------------------


  average scaling for gradient   0.9471


 average (electrostatic) potential at core
  the test charge radii are     0.5770  0.4325  0.5955
  (the norm of the test charge is              1.0000)
       1 -86.9709       2 -86.9696       3 -86.9704       4 -86.9691       5 -88.7871
       6 -88.7875       7 -45.7202       8 -45.9789       9 -45.9783      10 -45.9790
      11 -45.7230      12 -45.9796      13 -45.7194      14 -45.7246      15-119.4649
      16-119.4651



 E-fermi :  -5.7297     XC(G=0):  -0.4133     alpha+bet : -0.1477

 Fermi energy:        -5.7297283527

 k-point     1 :       0.0000    0.0000    0.0000
  band No.  band energies     occupation 
      1     -26.2152      2.00000
      2     -26.1733      2.00000
      3     -20.9666      2.00000
      4     -19.2809      2.00000
      5     -17.5976      2.00000
      6     -16.3957      2.00000
      7     -14.1110      2.00000
      8     -12.6766      2.00000
      9     -12.6634      2.00000
     10     -11.6761      2.00000
     11     -11.6454      2.00000
     12     -10.7503      2.00000
     13     -10.7098      2.00000
     14     -10.3326      2.00000
     15     -10.0401      2.00000
     16      -9.7424      2.00000
     17      -9.6188      2.00000
     18      -9.1571      2.00000
     19      -8.7883      2.00000
     20      -8.3503      2.00000
     21      -5.9325      2.00000
     22      -5.8272      2.00000
     23      -2.0916      0.00000
     24      -2.0051      0.00000
     25      -1.0350      0.00000
     26      -0.4745      0.00000
     27      -0.3950      0.00000
     28      -0.1488      0.00000
     29       0.0077      0.00000
     30       0.1310      0.00000
     31       0.2668      0.00000
     32       0.4361      0.00000


--------------------------------------------------------------------------------------------------------


 soft charge-density along one line, spin component           1
         0         1         2         3         4         5         6         7         8         9
 total charge-density along one line

 pseudopotential strength for first ion, spin component:           1
 12.754  21.464   0.002   0.002   0.003   0.003   0.003   0.005
 21.464  36.120   0.003   0.003   0.004   0.005   0.005   0.008
  0.002   0.003  -3.212   0.000   0.000  -5.758   0.000   0.000
  0.002   0.003   0.000  -3.212   0.000   0.000  -5.758   0.001
  0.003   0.004   0.000   0.000  -3.212   0.000   0.001  -5.758
  0.003   0.005  -5.758   0.000   0.000 -10.299   0.000   0.000
  0.003   0.005   0.000  -5.758   0.001   0.000 -10.299   0.001
  0.005   0.008   0.000   0.001  -5.758   0.000   0.001 -10.300
 total augmentation occupancy for first ion, spin component:           1
  7.237  -2.479   0.096   0.078  -0.139  -0.077  -0.023   0.053
 -2.479   0.883  -0.086  -0.032   0.044   0.058   0.003  -0.018
  0.096  -0.086   5.609   0.031   0.010  -1.772  -0.000   0.013
  0.078  -0.032   0.031   5.496   0.030  -0.000  -1.705  -0.001
 -0.139   0.044   0.010   0.030   5.584   0.013  -0.001  -1.786
 -0.077   0.058  -1.772  -0.000   0.013   0.572  -0.006  -0.014
 -0.023   0.003  -0.000  -1.705  -0.001  -0.006   0.534  -0.001
  0.053  -0.018   0.013  -0.001  -1.786  -0.014  -0.001   0.584


------------------------ aborting loop because EDIFF is reached ----------------------------------------


    FORLOC:  cpu time      0.0240: real time      0.0240
    FORNL :  cpu time      0.0311: real time      0.0311
    FORCOR:  cpu time     11.6924: real time     11.6961
    OFIELD:  cpu time      0.0040: real time      0.0043

 VOLUME and BASIS-vectors are now :
 -----------------------------------------------------------------------------
  energy-cutoff  :     1000.00
  volume of cell :     6859.00
      direct lattice vectors                 reciprocal lattice vectors
    19.000000000  0.000000000  0.000000000     0.052631579  0.000000000  0.000000000
     0.000000000 19.000000000  0.000000000     0.000000000  0.052631579  0.000000000
     0.000000000  0.000000000 19.000000000     0.000000000  0.000000000  0.052631579

  length of vectors
    19.000000000 19.000000000 19.000000000     0.052631579  0.052631579  0.052631579


 FORCES acting on ions:
    Electron-Ion                     Ewald-Force                    Non-Local-Force
 -----------------------------------------------------------------------------------------------
   0.480E+02 0.179E+03 -.265E+02   -.495E+02 -.180E+03 0.256E+02   0.165E+01 0.110E+01 0.918E+00
   -.834E+02 0.151E+03 0.747E+02   0.851E+02 -.152E+03 -.740E+02   -.188E+01 0.960E+00 -.627E+00
   -.160E+02 -.158E+03 -.100E+03   0.177E+02 0.159E+03 0.100E+03   -.180E+01 -.120E+01 -.341E+00
   0.509E+02 -.173E+03 0.539E+02   -.528E+02 0.173E+03 -.538E+02   0.203E+01 -.862E+00 0.407E-01
   -.111E+02 -.841E+00 -.248E+01   0.810E+01 0.637E+00 0.167E+01   0.277E+01 0.189E+00 0.743E+00
   0.108E+02 0.899E+00 0.371E+01   -.778E+01 -.685E+00 -.294E+01   -.277E+01 -.199E+00 -.712E+00
   -.457E+02 0.776E+02 -.758E+01   0.490E+02 -.822E+02 0.904E+01   -.316E+01 0.451E+01 -.142E+01
   -.265E+02 0.145E+02 0.838E+02   0.274E+02 -.138E+02 -.893E+02   -.844E+00 -.668E+00 0.536E+01
   0.204E+02 0.426E+02 -.756E+02   -.212E+02 -.436E+02 0.810E+02   0.802E+00 0.105E+01 -.531E+01
   0.202E+02 -.151E+02 -.855E+02   -.220E+02 0.143E+02 0.907E+02   0.183E+01 0.727E+00 -.510E+01
   -.333E+02 -.831E+02 -.131E+02   0.362E+02 0.881E+02 0.133E+02   -.284E+01 -.492E+01 -.159E+00
   -.141E+02 -.418E+02 0.775E+02   0.159E+02 0.429E+02 -.826E+02   -.179E+01 -.109E+01 0.505E+01
   0.500E+02 -.748E+02 -.920E+01   -.538E+02 0.790E+02 0.103E+02   0.380E+01 -.409E+01 -.112E+01
   0.289E+02 0.801E+02 0.305E+02   -.312E+02 -.847E+02 -.333E+02   0.220E+01 0.449E+01 0.272E+01
   -.395E+03 -.269E+02 -.106E+03   0.445E+03 0.303E+02 0.119E+03   -.502E+02 -.341E+01 -.135E+02
   0.395E+03 0.271E+02 0.103E+03   -.446E+03 -.305E+02 -.115E+03   0.504E+02 0.341E+01 0.129E+02
 -----------------------------------------------------------------------------------------------
   -.127E+00 -.511E-02 0.487E+00   -.114E-12 0.639E-13 -.142E-13   0.127E+00 0.505E-02 -.487E+00


 POSITION                                       TOTAL-FORCE (eV/Angst)
 -----------------------------------------------------------------------------------
      8.88549      8.18627      9.31883         0.088963      0.133827     -0.056283
     10.38057      8.38655      9.03672        -0.112411      0.090793      0.090186
      9.95913     10.72654     10.02168        -0.042440     -0.098510     -0.128915
      8.78469     10.74207      9.03431         0.063520     -0.120950      0.096403
     10.95393      9.60975      9.73853        -0.065003     -0.004240     -0.016629
      8.04929      9.41075      8.97339         0.063618      0.004750      0.019318
     10.97825      7.51183      9.31492         0.070488     -0.090498      0.031193
     10.53647      8.53934      7.95552         0.017270      0.021305     -0.112172
      8.73398      7.99364     10.39427        -0.017738     -0.016805      0.113258
      9.58109     10.56042     11.04448        -0.039657     -0.018941      0.107887
     10.49919     11.67930     10.04260         0.065412      0.098181      0.003538
      9.15869     10.94424      8.01650         0.040104      0.016870     -0.107222
      8.06014     11.53179      9.26022        -0.084967      0.081676      0.022570
      8.47350      7.32070      8.78900        -0.052495     -0.091772     -0.059348
     12.12626      9.68930     10.05298         0.062876      0.001092      0.014139
      6.87374      9.33069      8.67122        -0.057539     -0.006780     -0.017924
 -----------------------------------------------------------------------------------
    total drift:                               -0.000202     -0.000058     -0.000020


--------------------------------------------------------------------------------------------------------



  FREE ENERGIE OF THE ION-ELECTRON SYSTEM (eV)
  ---------------------------------------------------
  free  energy   TOTEN  =       -85.53772512 eV

  energy  without entropy=      -85.53772512  energy(sigma->0) =      -85.53772512



--------------------------------------------------------------------------------------------------------


    POTLOK:  cpu time     11.6746: real time     11.6784


--------------------------------------------------------------------------------------------------------


 stress matrix after NEB project (eV)
      0.00000      0.00000      0.00000
      0.00000      0.00000      0.00000
      0.00000      0.00000      0.00000
  FORCES: max atom, RMS     0.170333    0.122924
  FORCE total and by dimension    0.491695    0.133827
  Stress total and by dimension    0.000000    0.000000
     LOOP+:  cpu time    515.3853: real time    515.8412
    4ORBIT:  cpu time      0.0000: real time      0.0000

 total amount of memory used by VASP MPI-rank0    72095. kBytes
=======================================================================

   base      :      30000. kBytes
   nonl-proj :       1720. kBytes
   fftplans  :      12995. kBytes
   grid      :      25903. kBytes
   one-center:          1. kBytes
   wavefun   :       1476. kBytes

  
  
 General timing and accounting informations for this job:
 ========================================================
  
                  Total CPU time used (sec):      535.659
                            User time (sec):      526.729
                          System time (sec):        8.930
                         Elapsed time (sec):      540.012
  
                   Maximum memory used (kb):      496408.
                   Average memory used (kb):          N/A
  
                          Minor page faults:       287533
                          Major page faults:          298
                 Voluntary context switches:         6172
