  576  576    1    1
  0.8534057E+01  0.1868058E-08  0.1868059E-08  0.1626543E-08  0.5000000E-15
   1.0000000000000000E-004
  CAR 
 unknown system                          
   1728      1   1280

  0.1262379E-14  0.1262379E-14  0.1262379E-14  0.1000000E+01
      1        -22.186863   1.000000
      2        -22.163184   1.000000
      3        -22.161826   1.000000
      4        -22.157662   1.000000
      5        -22.155170   1.000000
      6        -22.155167   1.000000
      7        -22.154797   1.000000
      8        -22.154748   1.000000
      9        -22.154715   1.000000
     10        -22.142763   1.000000
     11        -22.139363   1.000000
     12        -22.139347   1.000000
     13        -22.139313   1.000000
     14        -22.139229   1.000000
     15        -22.139197   1.000000
     16        -22.136444   1.000000
     17        -22.135408   1.000000
     18        -22.135368   1.000000
     19        -22.134285   1.000000
     20        -22.133243   1.000000
     21        -22.133210   1.000000
     22        -22.133180   1.000000
     23        -22.133144   1.000000
     24        -22.133126   1.000000
     25        -22.129603   1.000000
     26        -22.128668   1.000000
     27        -22.127145   1.000000
     28        -22.126145   1.000000
     29        -22.125020   1.000000
     30        -22.124526   1.000000
     31        -22.122851   1.000000
     32        -22.122007   1.000000
     33        -22.121975   1.000000
     34        -22.121121   1.000000
     35        -22.120522   1.000000
     36        -22.120482   1.000000
     37        -22.120395   1.000000
     38        -22.120361   1.000000
     39        -22.120355   1.000000
     40        -22.110410   1.000000
     41        -22.109208   1.000000
     42        -22.109202   1.000000
     43        -22.108829   1.000000
     44        -22.108785   1.000000
     45        -22.108746   1.000000
     46        -22.106003   1.000000
     47        -22.105682   1.000000
     48        -22.087064   1.000000
     49        -20.025839   1.000000
     50        -20.024059   1.000000
     51        -20.024041   1.000000
     52        -20.010038   1.000000
     53        -20.004843   1.000000
     54        -20.004831   1.000000
     55        -20.004807   1.000000
     56        -20.004756   1.000000
     57        -20.004713   1.000000
     58        -20.002532   1.000000
     59        -20.001338   1.000000
     60        -20.000965   1.000000
     61        -20.000963   1.000000
     62        -19.997846   1.000000
     63        -19.996246   1.000000
     64        -19.996195   1.000000
     65        -19.996151   1.000000
     66        -19.993385   1.000000
     67        -19.991652   1.000000
     68        -19.991629   1.000000
     69        -19.991394   1.000000
     70        -19.991345   1.000000
     71        -19.991328   1.000000
     72        -19.986918   1.000000
     73        -19.986062   1.000000
     74        -19.982651   1.000000
     75        -19.978600   1.000000
     76        -19.978586   1.000000
     77        -19.978563   1.000000
     78        -19.978549   1.000000
     79        -19.978522   1.000000
     80        -19.978266   1.000000
     81        -19.978259   1.000000
     82        -19.978221   1.000000
     83        -19.978149   1.000000
     84        -19.978128   1.000000
     85        -19.978097   1.000000
     86        -19.976074   1.000000
     87        -19.975483   1.000000
     88        -19.975476   1.000000
     89        -19.975463   1.000000
     90        -19.971347   1.000000
     91        -19.969433   1.000000
     92        -19.969430   1.000000
     93        -19.969202   1.000000
     94        -19.969175   1.000000
     95        -19.969157   1.000000
     96        -19.968313   1.000000
     97        -19.967789   1.000000
     98        -19.967778   1.000000
     99        -19.966881   1.000000
    100        -19.966307   1.000000
    101        -19.966305   1.000000
    102        -19.966190   1.000000
    103        -19.966154   1.000000
    104        -19.966141   1.000000
    105        -19.964383   1.000000
    106        -19.964054   1.000000
    107        -19.964021   1.000000
    108        -19.959667   1.000000
    109        -19.958410   1.000000
    110        -19.958378   1.000000
    111        -19.958322   1.000000
    112        -19.958315   1.000000
    113        -19.958290   1.000000
    114        -19.956553   1.000000
    115        -19.955954   1.000000
    116        -19.955933   1.000000
    117        -19.955907   1.000000
    118        -19.955902   1.000000
    119        -19.955879   1.000000
    120        -19.947123   1.000000
    121        -19.945668   1.000000
    122        -19.945648   1.000000
    123        -19.945564   1.000000
    124        -19.945525   1.000000
    125        -19.945510   1.000000
    126        -19.944337   1.000000
    127        -19.943893   1.000000
    128        -19.943469   1.000000
    129        -19.943462   1.000000
    130        -19.941128   1.000000
    131        -19.940653   1.000000
    132        -19.940103   1.000000
    133        -19.939559   1.000000
    134        -19.939521   1.000000
    135        -19.939476   1.000000
    136        -19.939447   1.000000
    137        -19.939430   1.000000
    138        -19.936986   1.000000
    139        -19.936596   1.000000
    140        -19.936526   1.000000
    141        -19.936490   1.000000
    142        -19.929593   1.000000
    143        -19.929181   1.000000
    144        -19.929168   1.000000
    145        -12.431621   1.000000
    146        -12.429766   1.000000
    147        -12.429743   1.000000
    148        -12.429528   1.000000
    149        -12.429467   1.000000
    150        -12.429444   1.000000
    151        -12.417813   1.000000
    152        -12.416120   1.000000
    153        -12.416090   1.000000
    154        -12.416048   1.000000
    155        -12.415999   1.000000
    156        -12.415924   1.000000
    157        -12.412628   1.000000
    158        -12.412066   1.000000
    159        -12.412015   1.000000
    160        -12.400625   1.000000
    161        -12.399981   1.000000
    162        -12.396221   1.000000
    163        -12.395141   1.000000
    164        -12.395107   1.000000
    165        -12.395022   1.000000
    166        -12.392258   1.000000
    167        -12.391300   1.000000
    168        -12.391283   1.000000
    169        -12.391243   1.000000
    170        -12.391201   1.000000
    171        -12.391112   1.000000
    172        -12.375397   1.000000
    173        -12.374582   1.000000
    174        -12.374341   1.000000
    175        -12.374274   1.000000
    176        -12.337907   1.000000
    177        -12.336831   1.000000
    178        -12.336803   1.000000
    179        -12.331010   1.000000
    180        -12.329518   1.000000
    181        -12.329473   1.000000
    182        -12.329436   1.000000
    183        -12.329391   1.000000
    184        -12.329279   1.000000
    185        -12.322744   1.000000
    186        -12.321742   1.000000
    187        -12.321713   1.000000
    188        -12.321635   1.000000
    189        -12.316679   1.000000
    190        -12.314549   1.000000
    191        -12.314462   1.000000
    192        -12.314438   1.000000
    193        -12.314407   1.000000
    194        -12.314301   1.000000
    195        -12.314130   1.000000
    196        -12.314066   1.000000
    197        -12.314002   1.000000
    198        -12.313956   1.000000
    199        -12.313878   1.000000
    200        -12.313793   1.000000
    201        -12.313099   1.000000
    202        -12.312993   1.000000
    203        -12.312858   1.000000
    204        -12.258926   1.000000
    205        -12.257748   1.000000
    206        -12.257660   1.000000
    207        -12.257587   1.000000
    208        -12.252157   1.000000
    209        -12.250872   1.000000
    210        -12.250863   1.000000
    211        -12.250759   1.000000
    212        -12.250700   1.000000
    213        -12.250638   1.000000
    214        -12.241185   1.000000
    215        -12.239990   1.000000
    216        -12.239931   1.000000
    217        -12.239916   1.000000
    218        -12.239835   1.000000
    219        -12.239762   1.000000
    220        -12.231275   1.000000
    221        -12.230123   1.000000
    222        -12.230065   1.000000
    223        -12.230063   1.000000
    224        -12.230032   1.000000
    225        -12.229939   1.000000
    226        -12.220242   1.000000
    227        -12.218963   1.000000
    228        -12.218913   1.000000
    229        -12.218823   1.000000
    230        -12.218405   1.000000
    231        -12.218050   1.000000
    232        -12.218024   1.000000
    233        -12.217993   1.000000
    234        -12.217911   1.000000
    235        -12.217817   1.000000
    236        -12.206600   1.000000
    237        -12.206181   1.000000
    238        -12.204213   1.000000
    239        -12.203781   1.000000
    240        -12.203703   1.000000
    241         -9.919492   1.000000
    242         -9.919363   1.000000
    243         -9.896483   1.000000
    244         -9.896451   1.000000
    245         -9.895881   1.000000
    246         -9.886300   1.000000
    247         -9.886296   1.000000
    248         -9.885930   1.000000
    249         -9.885884   1.000000
    250         -9.885849   1.000000
    251         -9.885189   1.000000
    252         -9.883184   1.000000
    253         -9.769841   1.000000
    254         -9.769378   1.000000
    255         -9.699325   1.000000
    256         -9.699209   1.000000
    257         -9.699198   1.000000
    258         -9.699144   1.000000
    259         -9.699118   1.000000
    260         -9.698159   1.000000
    261         -9.694590   1.000000
    262         -9.694559   1.000000
    263         -9.694520   1.000000
    264         -9.694429   1.000000
    265         -9.694389   1.000000
    266         -9.693100   1.000000
    267         -9.678735   1.000000
    268         -9.678254   1.000000
    269         -9.669422   1.000000
    270         -9.669121   1.000000
    271         -9.667535   1.000000
    272         -9.667492   1.000000
    273         -9.667453   1.000000
    274         -9.667369   1.000000
    275         -9.667336   1.000000
    276         -9.665751   1.000000
    277         -9.601596   1.000000
    278         -9.493458   1.000000
    279         -9.493455   1.000000
    280         -9.493041   1.000000
    281         -9.492994   1.000000
    282         -9.492958   1.000000
    283         -9.492407   1.000000
    284         -9.447096   1.000000
    285         -9.446984   1.000000
    286         -9.446747   1.000000
    287         -9.446722   1.000000
    288         -9.445948   1.000000
    289         -8.158106   1.000000
    290         -8.139571   1.000000
    291         -8.139271   1.000000
    292         -8.014880   1.000000
    293         -8.014423   1.000000
    294         -8.014364   1.000000
    295         -7.985096   1.000000
    296         -7.984540   1.000000
    297         -7.967229   1.000000
    298         -7.966456   1.000000
    299         -7.966411   1.000000
    300         -7.966393   1.000000
    301         -7.966310   1.000000
    302         -7.966268   1.000000
    303         -7.888855   1.000000
    304         -7.887368   1.000000
    305         -7.887274   1.000000
    306         -7.887252   1.000000
    307         -7.887117   1.000000
    308         -7.887090   1.000000
    309         -7.886876   1.000000
    310         -7.886853   1.000000
    311         -7.886768   1.000000
    312         -7.886613   1.000000
    313         -7.886574   1.000000
    314         -7.886565   1.000000
    315         -7.838858   1.000000
    316         -7.837984   1.000000
    317         -7.837962   1.000000
    318         -7.837534   1.000000
    319         -7.837515   1.000000
    320         -7.837458   1.000000
    321         -7.815024   1.000000
    322         -7.814910   1.000000
    323         -7.730669   1.000000
    324         -7.729969   1.000000
    325         -7.699020   1.000000
    326         -7.698242   1.000000
    327         -7.698195   1.000000
    328         -7.698152   1.000000
    329         -7.698056   1.000000
    330         -7.698018   1.000000
    331         -7.690777   1.000000
    332         -7.690095   1.000000
    333         -7.646623   1.000000
    334         -7.614034   1.000000
    335         -7.612746   1.000000
    336         -7.612706   1.000000
    337         -7.586516   1.000000
    338         -7.582224   1.000000
    339         -7.582154   1.000000
    340         -7.582115   1.000000
    341         -7.582037   1.000000
    342         -7.581999   1.000000
    343         -7.579996   1.000000
    344         -7.579463   1.000000
    345         -7.579423   1.000000
    346         -7.565043   1.000000
    347         -7.563549   1.000000
    348         -7.561591   1.000000
    349         -7.561580   1.000000
    350         -7.561278   1.000000
    351         -7.561243   1.000000
    352         -7.561189   1.000000
    353         -7.539557   1.000000
    354         -7.536387   1.000000
    355         -7.536340   1.000000
    356         -7.536332   1.000000
    357         -7.536272   1.000000
    358         -7.536251   1.000000
    359         -7.524211   1.000000
    360         -7.521461   1.000000
    361         -7.521450   1.000000
    362         -7.521099   1.000000
    363         -7.521062   1.000000
    364         -7.521023   1.000000
    365         -7.512959   1.000000
    366         -7.510893   1.000000
    367         -7.510862   1.000000
    368         -7.510844   1.000000
    369         -7.510759   1.000000
    370         -7.510727   1.000000
    371         -7.505508   1.000000
    372         -7.504764   1.000000
    373         -7.504729   1.000000
    374         -7.459732   1.000000
    375         -7.459615   1.000000
    376         -7.451001   1.000000
    377         -7.449757   1.000000
    378         -7.441411   1.000000
    379         -7.440903   1.000000
    380         -7.424587   1.000000
    381         -7.423779   1.000000
    382         -7.412131   1.000000
    383         -7.386535   1.000000
    384         -7.386527   1.000000
    385         -6.968621   1.000000
    386         -6.968535   1.000000
    387         -6.968213   1.000000
    388         -6.968188   1.000000
    389         -6.968163   1.000000
    390         -6.967948   1.000000
    391         -6.940899   1.000000
    392         -6.940659   1.000000
    393         -6.902783   1.000000
    394         -6.902401   1.000000
    395         -6.902377   1.000000
    396         -6.902302   1.000000
    397         -6.832012   1.000000
    398         -6.831846   1.000000
    399         -6.831614   1.000000
    400         -6.831530   1.000000
    401         -6.831512   1.000000
    402         -6.831314   1.000000
    403         -6.831006   1.000000
    404         -6.830928   1.000000
    405         -6.830723   1.000000
    406         -6.828745   1.000000
    407         -6.828700   1.000000
    408         -6.828285   1.000000
    409         -6.758649   1.000000
    410         -6.758626   1.000000
    411         -6.758558   1.000000
    412         -6.758156   1.000000
    413         -6.747664   1.000000
    414         -6.747589   1.000000
    415         -6.747536   1.000000
    416         -6.747522   1.000000
    417         -6.747488   1.000000
    418         -6.746849   1.000000
    419         -6.740850   1.000000
    420         -6.740802   1.000000
    421         -6.740784   1.000000
    422         -6.740681   1.000000
    423         -6.740661   1.000000
    424         -6.740091   1.000000
    425         -6.683243   1.000000
    426         -6.683231   1.000000
    427         -6.683180   1.000000
    428         -6.682809   1.000000
    429         -6.678441   1.000000
    430         -6.678389   1.000000
    431         -6.678357   1.000000
    432         -6.678287   1.000000
    433         -6.678271   1.000000
    434         -6.677591   1.000000
    435         -6.650707   1.000000
    436         -6.650634   1.000000
    437         -6.650580   1.000000
    438         -6.650182   1.000000
    439         -6.637617   1.000000
    440         -6.637577   1.000000
    441         -6.637555   1.000000
    442         -6.637525   1.000000
    443         -6.637439   1.000000
    444         -6.636843   1.000000
    445         -6.626058   1.000000
    446         -6.626037   1.000000
    447         -6.626005   1.000000
    448         -6.625973   1.000000
    449         -6.625947   1.000000
    450         -6.625364   1.000000
    451         -6.620946   1.000000
    452         -6.620909   1.000000
    453         -6.620881   1.000000
    454         -6.620826   1.000000
    455         -6.620778   1.000000
    456         -6.620004   1.000000
    457         -6.486648   1.000000
    458         -6.486537   1.000000
    459         -6.486327   1.000000
    460         -6.466197   1.000000
    461         -6.465877   1.000000
    462         -6.458055   1.000000
    463         -6.457822   1.000000
    464         -6.457425   1.000000
    465         -6.457405   1.000000
    466         -6.457382   1.000000
    467         -6.457152   1.000000
    468         -6.450013   1.000000
    469         -6.449594   1.000000
    470         -6.449553   1.000000
    471         -6.449539   1.000000
    472         -6.448843   1.000000
    473         -6.448744   1.000000
    474         -6.448210   1.000000
    475         -6.418353   1.000000
    476         -6.418154   1.000000
    477         -6.417819   1.000000
    478         -6.417808   1.000000
    479         -6.417779   1.000000
    480         -6.417450   1.000000
    481         -5.905383   1.000000
    482         -5.824331   1.000000
    483         -5.823738   1.000000
    484         -5.822032   1.000000
    485         -5.821259   1.000000
    486         -5.821215   1.000000
    487         -5.821015   1.000000
    488         -5.820918   1.000000
    489         -5.820889   1.000000
    490         -5.798133   1.000000
    491         -5.797956   1.000000
    492         -5.797904   1.000000
    493         -5.758491   1.000000
    494         -5.757454   1.000000
    495         -5.757356   1.000000
    496         -5.757294   1.000000
    497         -5.757232   1.000000
    498         -5.757213   1.000000
    499         -5.749561   1.000000
    500         -5.749016   1.000000
    501         -5.748807   1.000000
    502         -5.748787   1.000000
    503         -5.748773   1.000000
    504         -5.748737   1.000000
    505         -5.734205   1.000000
    506         -5.734024   1.000000
    507         -5.733907   1.000000
    508         -5.733688   1.000000
    509         -5.733633   1.000000
    510         -5.733588   1.000000
    511         -5.680877   1.000000
    512         -5.680392   1.000000
    513         -5.680332   1.000000
    514         -5.642885   1.000000
    515         -5.642089   1.000000
    516         -5.639559   1.000000
    517         -5.639031   1.000000
    518         -5.638906   1.000000
    519         -5.638723   1.000000
    520         -5.638656   1.000000
    521         -5.638591   1.000000
    522         -5.553142   1.000000
    523         -5.552778   1.000000
    524         -5.512024   1.000000
    525         -5.511927   1.000000
    526         -5.511802   1.000000
    527         -5.469138   1.000000
    528         -5.468819   1.000000
    529         -5.468336   1.000000
    530         -5.468283   1.000000
    531         -5.467912   1.000000
    532         -5.467880   1.000000
    533         -5.467801   1.000000
    534         -5.467641   1.000000
    535         -5.467590   1.000000
    536         -5.467546   1.000000
    537         -5.456768   1.000000
    538         -5.456696   1.000000
    539         -5.443928   1.000000
    540         -5.443178   1.000000
    541         -5.435749   1.000000
    542         -5.435629   1.000000
    543         -5.435025   1.000000
    544         -5.434999   1.000000
    545         -5.328638   1.000000
    546         -5.328444   1.000000
    547         -5.327971   1.000000
    548         -5.327700   1.000000
    549         -5.327666   1.000000
    550         -5.327631   1.000000
    551         -5.314796   1.000000
    552         -5.314608   1.000000
    553         -5.314360   1.000000
    554         -5.314324   1.000000
    555         -5.286990   1.000000
    556         -5.286632   1.000000
    557         -5.218758   1.000000
    558         -5.218693   1.000000
    559         -5.218553   1.000000
    560         -5.188739   1.000000
    561         -5.188640   1.000000
    562         -5.188398   1.000000
    563         -5.188308   1.000000
    564         -5.188259   1.000000
    565         -5.188227   1.000000
    566         -5.170870   1.000000
    567         -5.152498   1.000000
    568         -5.152201   1.000000
    569         -5.151820   1.000000
    570         -5.151764   1.000000
    571         -5.151751   1.000000
    572         -5.151710   1.000000
    573         -5.144477   1.000000
    574         -5.144306   1.000000
    575         -5.143596   1.000000
    576         -5.143551   1.000000
    577         -5.127423   1.000000
    578         -5.127378   1.000000
    579         -5.127054   1.000000
    580         -5.126876   1.000000
    581         -5.126666   1.000000
    582         -5.126622   1.000000
    583         -5.071879   1.000000
    584         -5.071586   1.000000
    585         -5.071431   1.000000
    586         -5.071298   1.000000
    587         -5.071270   1.000000
    588         -5.071209   1.000000
    589         -5.063641   1.000000
    590         -5.063361   1.000000
    591         -5.063013   1.000000
    592         -5.062737   1.000000
    593         -5.062721   1.000000
    594         -5.062656   1.000000
    595         -5.031865   1.000000
    596         -5.031402   1.000000
    597         -5.031159   1.000000
    598         -5.031138   1.000000
    599         -5.031082   1.000000
    600         -5.031016   1.000000
    601         -5.012839   1.000000
    602         -5.012543   1.000000
    603         -5.012464   1.000000
    604         -4.986420   1.000000
    605         -4.986158   1.000000
    606         -4.985895   1.000000
    607         -4.985888   1.000000
    608         -4.958862   1.000000
    609         -4.958555   1.000000
    610         -4.958282   1.000000
    611         -4.957990   1.000000
    612         -4.957951   1.000000
    613         -4.957898   1.000000
    614         -4.905010   1.000000
    615         -4.904836   1.000000
    616         -4.899139   1.000000
    617         -4.898798   1.000000
    618         -4.898487   1.000000
    619         -4.898458   1.000000
    620         -4.898425   1.000000
    621         -4.898356   1.000000
    622         -4.885608   1.000000
    623         -4.885419   1.000000
    624         -4.885227   1.000000
    625         -3.349104   1.000000
    626         -3.348867   1.000000
    627         -3.348422   1.000000
    628         -3.323467   1.000000
    629         -3.323068   1.000000
    630         -3.322821   1.000000
    631         -3.322741   1.000000
    632         -3.322721   1.000000
    633         -3.322114   1.000000
    634         -3.315872   1.000000
    635         -3.315397   1.000000
    636         -3.196970   1.000000
    637         -3.196536   1.000000
    638         -3.196513   1.000000
    639         -3.196466   1.000000
    640         -3.196427   1.000000
    641         -3.195985   1.000000
    642         -3.147228   1.000000
    643         -3.146711   1.000000
    644         -3.146454   1.000000
    645         -3.146370   1.000000
    646         -3.146340   1.000000
    647         -3.146326   1.000000
    648         -3.146315   1.000000
    649         -3.145988   1.000000
    650         -3.145977   1.000000
    651         -3.144636   1.000000
    652         -3.106498   1.000000
    653         -3.106213   1.000000
    654         -3.106186   1.000000
    655         -3.105753   1.000000
    656         -3.098359   1.000000
    657         -3.097985   1.000000
    658         -3.097952   1.000000
    659         -3.097919   1.000000
    660         -3.097855   1.000000
    661         -3.097122   1.000000
    662         -3.071754   1.000000
    663         -3.071531   1.000000
    664         -3.071395   1.000000
    665         -3.024710   1.000000
    666         -3.024498   1.000000
    667         -3.024126   1.000000
    668         -3.022906   1.000000
    669         -3.022636   1.000000
    670         -3.022526   1.000000
    671         -3.022519   1.000000
    672         -3.022490   1.000000
    673         -3.021384   1.000000
    674         -2.985967   1.000000
    675         -2.985669   1.000000
    676         -2.985653   1.000000
    677         -2.985060   1.000000
    678         -2.950129   1.000000
    679         -2.949707   1.000000
    680         -2.949660   1.000000
    681         -2.949635   1.000000
    682         -2.949621   1.000000
    683         -2.948785   1.000000
    684         -2.920392   1.000000
    685         -2.920054   1.000000
    686         -2.920029   1.000000
    687         -2.919975   1.000000
    688         -2.919923   1.000000
    689         -2.918899   1.000000
    690         -2.898722   1.000000
    691         -2.898188   1.000000
    692         -2.898092   1.000000
    693         -2.897940   1.000000
    694         -2.868669   1.000000
    695         -2.868045   1.000000
    696         -2.867911   1.000000
    697         -2.867790   1.000000
    698         -2.867774   1.000000
    699         -2.867655   1.000000
    700         -2.866642   1.000000
    701         -2.866446   1.000000
    702         -2.866404   1.000000
    703         -2.865515   1.000000
    704         -2.797661   1.000000
    705         -2.797278   1.000000
    706         -2.797265   1.000000
    707         -2.797210   1.000000
    708         -2.797162   1.000000
    709         -2.796160   1.000000
    710         -2.719052   1.000000
    711         -2.718547   1.000000
    712         -2.718314   1.000000
    713         -2.718181   1.000000
    714         -2.718163   1.000000
    715         -2.717671   1.000000
    716         -2.710153   1.000000
    717         -2.709906   1.000000
    718         -2.709469   1.000000
    719         -2.657633   1.000000
    720         -2.657217   1.000000
    721         -2.285659   1.000000
    722         -2.285591   1.000000
    723         -2.284742   1.000000
    724         -2.277509   1.000000
    725         -2.277265   1.000000
    726         -2.226162   1.000000
    727         -2.226129   1.000000
    728         -2.225863   1.000000
    729         -2.225820   1.000000
    730         -2.225783   1.000000
    731         -2.224052   1.000000
    732         -2.180784   1.000000
    733         -1.857576   1.000000
    734         -1.857176   1.000000
    735         -1.857039   1.000000
    736         -1.848835   1.000000
    737         -1.848119   1.000000
    738         -1.848090   1.000000
    739         -1.847800   1.000000
    740         -1.847796   1.000000
    741         -1.847773   1.000000
    742         -1.826753   1.000000
    743         -1.826484   1.000000
    744         -1.821597   1.000000
    745         -1.821057   1.000000
    746         -1.821041   1.000000
    747         -1.821000   1.000000
    748         -1.820926   1.000000
    749         -1.820841   1.000000
    750         -1.750274   1.000000
    751         -1.749714   1.000000
    752         -1.749690   1.000000
    753         -1.749671   1.000000
    754         -1.749538   1.000000
    755         -1.749507   1.000000
    756         -1.739414   1.000000
    757         -1.738379   1.000000
    758         -1.738184   1.000000
    759         -1.737920   1.000000
    760         -1.737887   1.000000
    761         -1.737868   1.000000
    762         -1.737691   1.000000
    763         -1.737549   1.000000
    764         -1.737272   1.000000
    765         -1.737255   1.000000
    766         -1.727405   1.000000
    767         -1.726853   1.000000
    768         -1.726830   1.000000
    769         -1.726806   1.000000
    770         -1.726792   1.000000
    771         -1.726637   1.000000
    772         -1.711151   1.000000
    773         -1.710742   1.000000
    774         -1.710715   1.000000
    775         -1.710645   1.000000
    776         -1.697708   1.000000
    777         -1.697247   1.000000
    778         -1.697208   1.000000
    779         -1.697155   1.000000
    780         -1.693723   1.000000
    781         -1.693268   1.000000
    782         -1.693224   1.000000
    783         -1.693185   1.000000
    784         -1.693082   1.000000
    785         -1.692630   1.000000
    786         -1.672835   1.000000
    787         -1.672240   1.000000
    788         -1.672180   1.000000
    789         -1.672122   1.000000
    790         -1.672054   1.000000
    791         -1.671982   1.000000
    792         -1.643712   1.000000
    793         -1.643347   1.000000
    794         -1.643287   1.000000
    795         -1.618672   1.000000
    796         -1.618263   1.000000
    797         -1.618153   1.000000
    798         -1.618082   1.000000
    799         -1.602503   1.000000
    800         -1.601924   1.000000
    801         -1.601736   1.000000
    802         -1.601622   1.000000
    803         -1.601603   1.000000