 vasp.6.4.1 05Apr23 (build Jun  6 2023 14:36:51) complex                         
 executed on        HPECrayEX_GCC date 2024.08.20  14:24:34
 running  256 mpi-ranks, with    1 threads/rank, on    2 nodes
 distrk:  each k-point on  256 cores,    1 groups
 distr:  one band on NCORE=   2 cores,  128 groups


--------------------------------------------------------------------------------------------------------


 INCAR:
   ALGO = Conjugate
   NCORE = 2
   PREC = Accurate
   EDIFF = 1E-7
   ENCUT = 1000
   ISMEAR = 0
   SIGMA = 0.01
   ISIF = 0
   SYMPREC = 1E-7
   GGA = B5
   ALDAX = 1.0
   AGGAX = 1.0
   AGGAC = 1.0
   ALDAC = 0.0
   IVDW = 11
   VDW_S8 = 1.682
   VDW_SR = 1.094
   LWAVE = .FALSE.
   LCHARGE = .FALSE.
   LWAVE = .FALSE.
   LCHARGE = .FALSE.

 POTCAR:    PAW_PBE C_h 06Feb2004                 
 POTCAR:    PAW_PBE O_h 06Feb2004                 
 POTCAR:    PAW_PBE N_h 06Feb2004                 
 POTCAR:    PAW_PBE H_h 06Feb2004                 
 POTCAR:    PAW_PBE C_h 06Feb2004                 
   VRHFIN =C: s2p2                                                                                  
   LEXCH  = PE                                                                                      
   EATOM  =   147.1560 eV,   10.8157 Ry                                                             
                                                                                                    
   TITEL  = PAW_PBE C_h 06Feb2004                                                                   
   LULTRA =        F    use ultrasoft PP ?                                                          
   IUNSCR =        1    unscreen: 0-lin 1-nonlin 2-no                                               
   RPACOR =    0.800    partial core radius                                                         
   POMASS =   12.011; ZVAL   =    4.000    mass and valenz                                          
   RCORE  =    1.100    outmost cutoff radius                                                       
   RWIGS  =    1.630; RWIGS  =    0.863    wigner-seitz radius (au A)                               
   ENMAX  =  700.000; ENMIN  =  500.000 eV                                                          
   ICORE  =        2    local potential                                                             
   LCOR   =        T    correct aug charges                                                         
   LPAW   =        T    paw PP                                                                      
   EAUG   =  946.768                                                                                
   DEXC   =    0.000                                                                                
   RMAX   =    1.128    core radius for proj-oper                                                   
   RAUG   =    1.300    factor for augmentation sphere                                              
   RDEP   =    1.162    radius for radial grids                                                     
   RDEPT  =    1.088    core radius for aug-charge                                                  
                                                                                                    
   Atomic configuration                                                                             
    4 entries                                                                                       
     n  l   j            E        occ.                                                              
     1  0  0.50      -273.3789   2.0000                                                             
     2  0  0.50       -13.7508   2.0000                                                             
     2  1  0.50        -5.2854   2.0000                                                             
     3  2  1.50        -5.4423   0.0000                                                             
   Description                                                                                      
     l       E           TYP  RCUT    TYP  RCUT                                                     
     0    -13.7508458     23  1.100                                                                 
     0     -8.2022199     23  1.100                                                                 
     1     -5.2854383     23  1.100                                                                 
     1      1.1560700     23  1.100                                                                 
     2     -5.4423304      7  1.100                                                                 
  local pseudopotential read in
  partial core-charges read in
  partial kinetic energy density read in
  atomic valenz-charges read in
  non local Contribution for L=           0  read in
    real space projection operators read in
  non local Contribution for L=           0  read in
    real space projection operators read in
  non local Contribution for L=           1  read in
    real space projection operators read in
  non local Contribution for L=           1  read in
    real space projection operators read in
    PAW grid and wavefunctions read in

   number of l-projection  operators is LMAX  =           4
   number of lm-projection operators is LMMAX =           8

 POTCAR:    PAW_PBE O_h 06Feb2004                 
   VRHFIN =O: s2p4                                                                                  
   LEXCH  = PE                                                                                      
   EATOM  =   432.3788 eV,   31.7789 Ry                                                             
                                                                                                    
   TITEL  = PAW_PBE O_h 06Feb2004                                                                   
   LULTRA =        F    use ultrasoft PP ?                                                          
   IUNSCR =        1    unscreen: 0-lin 1-nonlin 2-no                                               
   RPACOR =    0.800    partial core radius                                                         
   POMASS =   16.000; ZVAL   =    6.000    mass and valenz                                          
   RCORE  =    1.100    outmost cutoff radius                                                       
   RWIGS  =    1.400; RWIGS  =    0.741    wigner-seitz radius (au A)                               
   ENMAX  =  700.000; ENMIN  =  500.000 eV                                                          
   ICORE  =        2    local potential                                                             
   LCOR   =        T    correct aug charges                                                         
   LPAW   =        T    paw PP                                                                      
   EAUG   =  888.804                                                                                
   DEXC   =    0.000                                                                                
   RMAX   =    1.128    core radius for proj-oper                                                   
   RAUG   =    1.300    factor for augmentation sphere                                              
   RDEP   =    1.125    radius for radial grids                                                     
   RDEPT  =    1.088    core radius for aug-charge                                                  
                                                                                                    
   Atomic configuration                                                                             
    4 entries                                                                                       
     n  l   j            E        occ.                                                              
     1  0  0.50      -514.6923   2.0000                                                             
     2  0  0.50       -23.9615   2.0000                                                             
     2  1  0.50        -9.0305   4.0000                                                             
     3  2  1.50        -9.5241   0.0000                                                             
   Description                                                                                      
     l       E           TYP  RCUT    TYP  RCUT                                                     
     0    -23.9615319     23  1.100                                                                 
     0    -25.3221145     23  1.100                                                                 
     1     -9.0304911     23  1.100                                                                 
     1     -5.4802209     23  1.100                                                                 
     2     -9.5240782      7  1.100                                                                 
  local pseudopotential read in
  partial core-charges read in
  partial kinetic energy density read in
  atomic valenz-charges read in
  non local Contribution for L=           0  read in
    real space projection operators read in
  non local Contribution for L=           0  read in
    real space projection operators read in
  non local Contribution for L=           1  read in
    real space projection operators read in
  non local Contribution for L=           1  read in
    real space projection operators read in
    PAW grid and wavefunctions read in

   number of l-projection  operators is LMAX  =           4
   number of lm-projection operators is LMMAX =           8

 POTCAR:    PAW_PBE N_h 06Feb2004                 
   VRHFIN =N: s2p3                                                                                  
   LEXCH  = PE                                                                                      
   EATOM  =   264.5486 eV,   19.4438 Ry                                                             
                                                                                                    
   TITEL  = PAW_PBE N_h 06Feb2004                                                                   
   LULTRA =        F    use ultrasoft PP ?                                                          
   IUNSCR =        1    unscreen: 0-lin 1-nonlin 2-no                                               
   RPACOR =    0.800    partial core radius                                                         
   POMASS =   14.001; ZVAL   =    5.000    mass and valenz                                          
   RCORE  =    1.100    outmost cutoff radius                                                       
   RWIGS  =    1.480; RWIGS  =    0.783    wigner-seitz radius (au A)                               
   ENMAX  =  700.000; ENMIN  =  500.000 eV                                                          
   ICORE  =        2    local potential                                                             
   LCOR   =        T    correct aug charges                                                         
   LPAW   =        T    paw PP                                                                      
   EAUG   =  904.640                                                                                
   DEXC   =    0.000                                                                                
   RMAX   =    1.127    core radius for proj-oper                                                   
   RAUG   =    1.300    factor for augmentation sphere                                              
   RDEP   =    1.115    radius for radial grids                                                     
   RDEPT  =    1.106    core radius for aug-charge                                                  
                                                                                                    
   Atomic configuration                                                                             
    4 entries                                                                                       
     n  l   j            E        occ.                                                              
     1  0  0.50      -384.7179   2.0000                                                             
     2  0  0.50       -18.5828   2.0000                                                             
     2  1  0.50        -7.0898   3.0000                                                             
     3  2  1.50        -6.8029   0.0000                                                             
   Description                                                                                      
     l       E           TYP  RCUT    TYP  RCUT                                                     
     0    -18.5828117     23  1.100                                                                 
     0    -15.0750597     23  1.100                                                                 
     1     -7.0897851     23  1.100                                                                 
     1     -1.9663412     23  1.100                                                                 
     2     -6.8029130      7  1.100                                                                 
  local pseudopotential read in
  partial core-charges read in
  partial kinetic energy density read in
  kinetic energy density of atom read in
  atomic valenz-charges read in
  non local Contribution for L=           0  read in
    real space projection operators read in
  non local Contribution for L=           0  read in
    real space projection operators read in
  non local Contribution for L=           1  read in
    real space projection operators read in
  non local Contribution for L=           1  read in
    real space projection operators read in
    PAW grid and wavefunctions read in

   number of l-projection  operators is LMAX  =           4
   number of lm-projection operators is LMMAX =           8

 POTCAR:    PAW_PBE H_h 06Feb2004                 
   VRHFIN =H: ultrasoft test                                                                        
   LEXCH  = PE                                                                                      
   EATOM  =    12.4884 eV,    0.9179 Ry                                                             
                                                                                                    
   TITEL  = PAW_PBE H_h 06Feb2004                                                                   
   LULTRA =        F    use ultrasoft PP ?                                                          
   IUNSCR =        0    unscreen: 0-lin 1-nonlin 2-no                                               
   RPACOR =    0.000    partial core radius                                                         
   POMASS =    1.000; ZVAL   =    1.000    mass and valenz                                          
   RCORE  =    0.800    outmost cutoff radius                                                       
   RWIGS  =    0.700; RWIGS  =    0.370    wigner-seitz radius (au A)                               
   ENMAX  =  700.000; ENMIN  =  350.000 eV                                                          
   RCLOC  =    0.701    cutoff for local pot                                                        
   LCOR   =        T    correct aug charges                                                         
   LPAW   =        T    paw PP                                                                      
   EAUG   = 1000.000                                                                                
   RMAX   =    0.819    core radius for proj-oper                                                   
   RAUG   =    1.000    factor for augmentation sphere                                              
   RDEP   =    0.817    radius for radial grids                                                     
   RDEPT  =    0.817    core radius for aug-charge                                                  
                                                                                                    
   Atomic configuration                                                                             
    2 entries                                                                                       
     n  l   j            E        occ.                                                              
     1  0  0.50        -6.4927   1.0000                                                             
     2  1  0.50        -3.4015   0.0000                                                             
   Description                                                                                      
     l       E           TYP  RCUT    TYP  RCUT                                                     
     0     -6.4927493     23  0.800                                                                 
     0      6.8029130     23  0.800                                                                 
     1     -6.8029130     23  0.800                                                                 
  local pseudopotential read in
  atomic valenz-charges read in
  non local Contribution for L=           0  read in
    real space projection operators read in
  non local Contribution for L=           0  read in
    real space projection operators read in
  non local Contribution for L=           1  read in
    real space projection operators read in
    PAW grid and wavefunctions read in

   number of l-projection  operators is LMAX  =           3
   number of lm-projection operators is LMMAX =           5

 -----------------------------------------------------------------------------
|                                                                             |
|               ----> ADVICE to this user running VASP <----                  |
|                                                                             |
|     You have a (more or less) 'large supercell' and for larger cells it     |
|     might be more efficient to use real-space projection operators.         |
|     Therefore, try LREAL= Auto in the INCAR file.                           |
|     Mind: For very accurate calculation, you might also keep the            |
|     reciprocal projection scheme (i.e. LREAL=.FALSE.).                      |
|                                                                             |
 -----------------------------------------------------------------------------

 -----------------------------------------------------------------------------
|                                                                             |
|               ----> ADVICE to this user running VASP <----                  |
|                                                                             |
|     You enforced a specific xc type in the INCAR file but a different       |
|     type was found in the POTCAR file.                                      |
|     I HOPE YOU KNOW WHAT YOU ARE DOING!                                     |
|                                                                             |
 -----------------------------------------------------------------------------

  PAW_PBE C_h 06Feb2004                 :
 energy of atom  1       EATOM= -147.1560
 kinetic energy error for atom=    0.0031 (will be added to EATOM!!)
  PAW_PBE O_h 06Feb2004                 :
 energy of atom  2       EATOM= -432.3788
 kinetic energy error for atom=    0.0171 (will be added to EATOM!!)
  PAW_PBE N_h 06Feb2004                 :
 energy of atom  3       EATOM= -264.5486
 kinetic energy error for atom=    0.0081 (will be added to EATOM!!)
  PAW_PBE H_h 06Feb2004                 :
 energy of atom  4       EATOM=  -12.4884
 kinetic energy error for atom=    0.0006 (will be added to EATOM!!)


 POSCAR:  C  O  N  H
  positions in cartesian coordinates
  No initial velocities read in
 exchange correlation table for  LEXCH =       12
   RHO(1)=    0.500       N(1)  =     2000
   RHO(2)=  100.500       N(2)  =     4000

 VTST: version 4.1, (05/19/21)

 CHAIN: initializing optimizer
 
 OPT: Using VASP Dynamics algorithm
 CHAIN: Read ICHAIN            0

 POSCAR:  C  O  N  H
  positions in cartesian coordinates
  No initial velocities read in



--------------------------------------------------------------------------------------------------------


 ion  position               nearest neighbor table
   1  0.332  0.055  0.257-  21 1.11   5 1.25   9 1.33
   2  0.668  0.945  0.743-  22 1.11   6 1.25  10 1.33
   3  0.168  0.555  0.243-  23 1.11   7 1.25  11 1.33
   4  0.832  0.445  0.757-  24 1.11   8 1.25  12 1.33
   5  0.474  0.929  0.248-   1 1.25
   6  0.526  0.071  0.752-   2 1.25
   7  0.026  0.429  0.252-   3 1.25
   8  0.974  0.571  0.748-   4 1.25
   9  0.294  0.156  0.117-  13 1.03  17 1.03   1 1.33
  10  0.706  0.844  0.883-  14 1.03  18 1.03   2 1.33
  11  0.206  0.656  0.383-  15 1.03  19 1.03   3 1.33
  12  0.794  0.344  0.617-  16 1.03  20 1.03   4 1.33
  13  0.189  0.258  0.142-   9 1.03
  14  0.811  0.742  0.858-  10 1.03
  15  0.311  0.758  0.358-  11 1.03
  16  0.689  0.242  0.642-  12 1.03
  17  0.377  0.132  0.987-   9 1.03
  18  0.623  0.868  0.013-  10 1.03
  19  0.123  0.632  0.513-  11 1.03
  20  0.877  0.368  0.487-  12 1.03
  21  0.231  0.090  0.390-   1 1.11
  22  0.769  0.910  0.610-   2 1.11
  23  0.269  0.590  0.110-   3 1.11
  24  0.731  0.410  0.890-   4 1.11

  LATTYP: Found a simple monoclinic cell.
 ALAT       =     3.6040000000
 B/A-ratio  =     2.5086015538
 C/A-ratio  =     1.9406204551
 COS(beta)  =    -0.1822363036
  
  Lattice vectors:
  
 A1 = (   3.6040000000,   0.0000000000,   0.0000000000)
 A2 = (   0.0000000000,   9.0410000000,   0.0000000000)
 A3 = (  -1.2745600000,   0.0000000000,   6.8768800000)


Analysis of symmetry for initial positions (statically):
=====================================================================
 Subroutine PRICEL returns:
 Original cell was already a primitive cell.
 

 Routine SETGRP: Setting up the symmetry group for a 
 simple monoclinic supercell.


 Subroutine GETGRP returns: Found  1 space group operations
 (whereof  1 operations were pure point group operations)
 out of a pool of  4 trial point group operations.


The static configuration has the point symmetry C_1 .


Analysis of symmetry for dynamics (positions and initial velocities):
=====================================================================
 Subroutine PRICEL returns:
 Original cell was already a primitive cell.
 

 Routine SETGRP: Setting up the symmetry group for a 
 simple monoclinic supercell.


 Subroutine GETGRP returns: Found  1 space group operations
 (whereof  1 operations were pure point group operations)
 out of a pool of  4 trial point group operations.


The dynamic configuration has the point symmetry C_1 .


 Subroutine INISYM returns: Found  1 space group operations
 (whereof  1 operations are pure point group operations),
 and found     1 'primitive' translations


----------------------------------------------------------------------------------------

                                     Primitive cell                                     

  volume of cell :     224.0746

  direct lattice vectors                    reciprocal lattice vectors
     3.604000000  0.000000000  0.000000000     0.277469478 -0.000000000  0.051426155
     0.000000000  9.041000000  0.000000000     0.000000000  0.110607234 -0.000000000
    -1.274560000  0.000000000  6.876880000     0.000000000  0.000000000  0.145414781

  length of vectors
     3.604000000  9.041000000  6.993996120     0.282194899  0.110607234  0.145414781

  position of ions in fractional coordinates (direct lattice)
     0.332035180  0.055078096  0.257321301
     0.667972969  0.944921904  0.742676847
     0.167965676  0.555067450  0.242675853
     0.832033720  0.444910090  0.757331833
     0.473768378  0.929215195  0.248297155
     0.526246655  0.070782293  0.751702361
     0.026231264  0.429212025  0.251703950
     0.973768736  0.570769425  0.748309174
     0.294445496  0.156005827  0.117042932
     0.705565224  0.843993451  0.882958795
     0.205547460  0.655999348  0.382955471
     0.794445909  0.343982590  0.617051648
     0.188576548  0.258378242  0.142409120
     0.811427489  0.741619094  0.857598341
     0.311430078  0.758374237  0.357589341
     0.688563440  0.241607514  0.642419811
     0.376907556  0.131796327  0.986750688
     0.623100706  0.868203990  0.013249312
     0.123091887  0.631792104  0.513242412
     0.876903280  0.368191668  0.486762024
     0.230780242  0.090412467  0.390248948
     0.769233524  0.909585154  0.609751050
     0.269234465  0.590400611  0.109750112
     0.730775104  0.409578996  0.890260578

  ion indices of the primitive-cell ions
   primitive index   ion index
                 1           1
                 2           2
                 3           3
                 4           4
                 5           5
                 6           6
                 7           7
                 8           8
                 9           9
                10          10
                11          11
                12          12
                13          13
                14          14
                15          15
                16          16
                17          17
                18          18
                19          19
                20          20
                21          21
                22          22
                23          23
                24          24

----------------------------------------------------------------------------------------



 KPOINTS: auto                                    

Automatic generation of k-mesh.
 Grid dimensions read from file:
 generate k-points for:    7    3    4

 Generating k-lattice:

  Cartesian coordinates                     Fractional coordinates (reciprocal lattice)
     0.039638497 -0.000000000  0.007346594     0.142857143  0.000000000 -0.000000000
     0.000000000  0.036869078 -0.000000000     0.000000000  0.333333333  0.000000000
     0.000000000  0.000000000  0.036353695     0.000000000  0.000000000  0.250000000

  Length of vectors
     0.040313557  0.036869078  0.036353695

  Shift w.r.t. Gamma in fractional coordinates (k-lattice)
     0.000000000  0.000000000  0.000000000

 
 Subroutine IBZKPT returns following result:
 ===========================================
 
 Found     43 irreducible k-points:
 
 Following reciprocal coordinates:
            Coordinates               Weight
  0.000000  0.000000  0.000000      1.000000
  0.142857  0.000000  0.000000      2.000000
  0.285714  0.000000  0.000000      2.000000
  0.428571  0.000000  0.000000      2.000000
  0.000000  0.333333  0.000000      2.000000
  0.142857  0.333333  0.000000      2.000000
 -0.142857  0.333333  0.000000      2.000000
  0.285714  0.333333  0.000000      2.000000
 -0.285714  0.333333  0.000000      2.000000
  0.428571  0.333333  0.000000      2.000000
 -0.428571  0.333333  0.000000      2.000000
  0.000000  0.000000  0.250000      2.000000
  0.142857  0.000000  0.250000      2.000000
  0.285714  0.000000  0.250000      2.000000
  0.428571  0.000000  0.250000      2.000000
 -0.428571  0.000000  0.250000      2.000000
 -0.285714  0.000000  0.250000      2.000000
 -0.142857  0.000000  0.250000      2.000000
  0.000000  0.333333  0.250000      2.000000
  0.000000  0.333333 -0.250000      2.000000
  0.142857  0.333333  0.250000      2.000000
 -0.142857  0.333333 -0.250000      2.000000
  0.285714  0.333333  0.250000      2.000000
 -0.285714  0.333333 -0.250000      2.000000
  0.428571  0.333333  0.250000      2.000000
 -0.428571  0.333333 -0.250000      2.000000
 -0.428571  0.333333  0.250000      2.000000
  0.428571  0.333333 -0.250000      2.000000
 -0.285714  0.333333  0.250000      2.000000
  0.285714  0.333333 -0.250000      2.000000
 -0.142857  0.333333  0.250000      2.000000
  0.142857  0.333333 -0.250000      2.000000
  0.000000  0.000000  0.500000      1.000000
  0.142857  0.000000  0.500000      2.000000
  0.285714  0.000000  0.500000      2.000000
  0.428571  0.000000  0.500000      2.000000
  0.000000  0.333333  0.500000      2.000000
  0.142857  0.333333  0.500000      2.000000
 -0.142857  0.333333  0.500000      2.000000
  0.285714  0.333333  0.500000      2.000000
 -0.285714  0.333333  0.500000      2.000000
  0.428571  0.333333  0.500000      2.000000
 -0.428571  0.333333  0.500000      2.000000
 
 Following cartesian coordinates:
            Coordinates               Weight
  0.000000  0.000000  0.000000      1.000000
  0.039638  0.000000  0.007347      2.000000
  0.079277  0.000000  0.014693      2.000000
  0.118915  0.000000  0.022040      2.000000
  0.000000  0.036869  0.000000      2.000000
  0.039638  0.036869  0.007347      2.000000
 -0.039638  0.036869 -0.007347      2.000000
  0.079277  0.036869  0.014693      2.000000
 -0.079277  0.036869 -0.014693      2.000000
  0.118915  0.036869  0.022040      2.000000
 -0.118915  0.036869 -0.022040      2.000000
  0.000000  0.000000  0.036354      2.000000
  0.039638  0.000000  0.043700      2.000000
  0.079277  0.000000  0.051047      2.000000
  0.118915  0.000000  0.058393      2.000000
 -0.118915  0.000000  0.014314      2.000000
 -0.079277  0.000000  0.021661      2.000000
 -0.039638  0.000000  0.029007      2.000000
  0.000000  0.036869  0.036354      2.000000
  0.000000  0.036869 -0.036354      2.000000
  0.039638  0.036869  0.043700      2.000000
 -0.039638  0.036869 -0.043700      2.000000
  0.079277  0.036869  0.051047      2.000000
 -0.079277  0.036869 -0.051047      2.000000
  0.118915  0.036869  0.058393      2.000000
 -0.118915  0.036869 -0.058393      2.000000
 -0.118915  0.036869  0.014314      2.000000
  0.118915  0.036869 -0.014314      2.000000
 -0.079277  0.036869  0.021661      2.000000
  0.079277  0.036869 -0.021661      2.000000
 -0.039638  0.036869  0.029007      2.000000
  0.039638  0.036869 -0.029007      2.000000
  0.000000  0.000000  0.072707      1.000000
  0.039638  0.000000  0.080054      2.000000
  0.079277  0.000000  0.087401      2.000000
  0.118915  0.000000  0.094747      2.000000
  0.000000  0.036869  0.072707      2.000000
  0.039638  0.036869  0.080054      2.000000
 -0.039638  0.036869  0.065361      2.000000
  0.079277  0.036869  0.087401      2.000000
 -0.079277  0.036869  0.058014      2.000000
  0.118915  0.036869  0.094747      2.000000
 -0.118915  0.036869  0.050668      2.000000
 


--------------------------------------------------------------------------------------------------------




 Dimension of arrays:
   k-points           NKPTS =     43   k-points in BZ     NKDIM =     43   number of bands    NBANDS=    128
   number of dos      NEDOS =    301   number of ions     NIONS =     24
   non local maximal  LDIM  =      4   non local SUM 2l+1 LMDIM =      8
   total plane-waves  NPLWV = 276480
   max r-space proj   IRMAX =      1   max aug-charges    IRDMAX=   9197
   dimension x,y,z NGX =    40 NGY =   96 NGZ =   72
   dimension x,y,z NGXF=    80 NGYF=  192 NGZF=  144
   support grid    NGXF=    80 NGYF=  192 NGZF=  144
   ions per type =               4   4   4  12
   NGX,Y,Z   is equivalent  to a cutoff of  18.45, 17.65, 17.11 a.u.
   NGXF,Y,Z  is equivalent  to a cutoff of  36.90, 35.30, 34.23 a.u.

 SYSTEM =  unknown system                          
 POSCAR =   C  O  N  H                             

 Startparameter for this run:
   NWRITE =      2    write-flag & timer
   PREC   = accura    normal or accurate (medium, high low for compatibility)
   ISTART =      0    job   : 0-new  1-cont  2-samecut
   ICHARG =      2    charge: 1-file 2-atom 10-const
   ISPIN  =      1    spin polarized calculation?
   LNONCOLLINEAR =      F non collinear calculations
   LSORBIT =      F    spin-orbit coupling
   INIWAV =      1    electr: 0-lowe 1-rand  2-diag
   LASPH  =      F    aspherical Exc in radial PAW
 Electronic Relaxation 1
   ENCUT  = 1000.0 eV  73.50 Ry    8.57 a.u.   9.29 23.31 18.03*2*pi/ulx,y,z
   ENINI  = 1000.0     initial cutoff
   ENAUG  = 1000.0 eV  augmentation charge cutoff
   NELM   =     60;   NELMIN=  2; NELMDL= -5     # of ELM steps 
   EDIFF  = 0.1E-06   stopping-criterion for ELM
   LREAL  =      F    real-space projection
   NLSPLINE    = F    spline interpolate recip. space projectors
   LCOMPAT=      F    compatible to vasp.4.4
   GGA_COMPAT  = T    GGA compatible to vasp.4.4-vasp.4.6
   LMAXPAW     = -100 max onsite density
   LMAXMIX     =    2 max onsite mixed and CHGCAR
   VOSKOWN=      0    Vosko Wilk Nusair interpolation
   ROPT   =    0.00000   0.00000   0.00000   0.00000
 Ionic relaxation
   EDIFFG = 0.1E-05   stopping-criterion for IOM
   NSW    =      0    number of steps for IOM
   NBLOCK =      1;   KBLOCK =      1    inner block; outer block 
   IBRION =     -1    ionic relax: 0-MD 1-quasi-New 2-CG
   NFREE  =      0    steps in history (QN), initial steepest desc. (CG)
   ISIF   =      0    stress and relaxation
   IWAVPR =     10    prediction:  0-non 1-charg 2-wave 3-comb
   ISYM   =      2    0-nonsym 1-usesym 2-fastsym
   LCORR  =      T    Harris-Foulkes like correction to forces

   POTIM  = 0.5000    time-step for ionic-motion
   TEIN   =    0.0    initial temperature
   TEBEG  =    0.0;   TEEND  =   0.0 temperature during run
   SMASS  =  -3.00    Nose mass-parameter (am)
   estimated Nose-frequenzy (Omega)   =  0.10E-29 period in steps = 0.13E+47 mass=  -0.297E-27a.u.
   SCALEE = 1.0000    scale energy and forces
   NPACO  =    256;   APACO  = 10.0  distance and # of slots for P.C.
   PSTRESS=    0.0 pullay stress

  Mass of Ions in am
   POMASS =  12.01 16.00 14.00  1.00
  Ionic Valenz
   ZVAL   =   4.00  6.00  5.00  1.00
  Atomic Wigner-Seitz radii
   RWIGS  =  -1.00 -1.00 -1.00 -1.00
  virtual crystal weights 
   VCA    =   1.00  1.00  1.00  1.00
   NELECT =      72.0000    total number of electrons
   NUPDOWN=      -1.0000    fix difference up-down

 DOS related values:
   EMIN   =  10.00;   EMAX   =-10.00  energy-range for DOS
   EFERMI =   0.00;   METHOD = LEGACY      
   ISMEAR =     0;   SIGMA  =   0.01  broadening in eV -4-tet -1-fermi 0-gaus

 Electronic relaxation 2 (details)
   IALGO  =     58    algorithm
   LDIAG  =      T    sub-space diagonalisation (order eigenvalues)
   LSUBROT=      F    optimize rotation matrix (better conditioning)
   TURBO    =      0    0=normal 1=particle mesh
   IRESTART =      0    0=no restart 2=restart with 2 vectors
   NREBOOT  =      0    no. of reboots
   NMIN     =      0    reboot dimension
   EREF     =   0.00    reference energy to select bands
   IMIX   =      4    mixing-type and parameters
     AMIX     =   0.40;   BMIX     =  1.00
     AMIX_MAG =   1.60;   BMIX_MAG =  1.00
     AMIN     =   0.10
     WC   =   100.;   INIMIX=   1;  MIXPRE=   1;  MAXMIX= -45

 Intra band minimization:
   WEIMIN = 0.0000     energy-eigenvalue tresh-hold
   EBREAK =  0.20E-09  absolut break condition
   DEPER  =   0.30     relativ break condition  

   TIME   =   0.40     timestep for ELM

  volume/ion in A,a.u.               =       9.34        63.01
  Fermi-wavevector in a.u.,A,eV,Ry     =   1.121299  2.118948 17.106760  1.257311
  Thomas-Fermi vector in A             =   2.257952

 Write flags
   LWAVE        =      F    write WAVECAR
   LDOWNSAMPLE  =      F    k-point downsampling of WAVECAR
   LCHARG       =      T    write CHGCAR
   LVTOT        =      F    write LOCPOT, total local potential
   LVHAR        =      F    write LOCPOT, Hartree potential only
   LELF         =      F    write electronic localiz. function (ELF)
   LORBIT       =      0    0 simple, 1 ext, 2 COOP (PROOUT), +10 PAW based schemes


 Dipole corrections
   LMONO  =      F    monopole corrections only (constant potential shift)
   LDIPOL =      F    correct potential (dipole corrections)
   IDIPOL =      0    1-x, 2-y, 3-z, 4-all directions 
   EPSILON=  1.0000000 bulk dielectric constant

 Exchange correlation treatment:
   GGA     =    B5    GGA type
   LEXCH   =    12    internal setting for exchange type
   LIBXC   =     F    Libxc                    
   VOSKOWN =     0    Vosko Wilk Nusair interpolation
   LHFCALC =     F    Hartree Fock is set to
   LHFONE  =     F    Hartree Fock one center treatment
   AEXX    =    0.0000 exact exchange contribution

 Linear response parameters
   LEPSILON=     F    determine dielectric tensor
   LRPA    =     F    only Hartree local field effects (RPA)
   LNABLA  =     F    use nabla operator in PAW spheres
   LVEL    =     F    velocity operator in full k-point grid
   CSHIFT  =0.1000    complex shift for real part using Kramers Kronig
   OMEGAMAX=  -1.0    maximum frequency
   DEG_THRESHOLD= 0.2000000E-02 threshold for treating states as degnerate
   RTIME   =   -0.100 relaxation time in fs
  (WPLASMAI=    0.000 imaginary part of plasma frequency in eV, 0.658/RTIME)
   DFIELD  = 0.0000000 0.0000000 0.0000000 field for delta impulse in time

  Optional k-point grid parameters
   LKPOINTS_OPT  =     F    use optional k-point grid
   KPOINTS_OPT_MODE=     1    mode for optional k-point grid

 Orbital magnetization related:
   ORBITALMAG=     F  switch on orbital magnetization
   LCHIMAG   =     F  perturbation theory with respect to B field
   DQ        =  0.001000  dq finite difference perturbation B field
   LLRAUG    =     F  two centre corrections for induced B field
   LBONE     =     F  B-component reconstruction in AE one-centre
   LVGVCALC  =     T  calculate vGv susceptibility
   LVGVAPPL  =     F  apply vGv susceptibility instead of pGv for G=0

 Random number generation:
   RANDOM_GENERATOR = DEFAULT
   PCG_SEED         = not used


--------------------------------------------------------------------------------------------------------


 Static calculation
 charge density and potential will be updated during run
 non-spin polarized calculation
 Conjugate gradient for all bands (Freysoldt, et al. PRB 79, 241103 (2009))
 preconditioned conjugated gradient                                        
 perform sub-space diagonalisation
    before iterative eigenvector-optimisation
 modified Broyden-mixing scheme, WC =      100.0
 initial mixing is a Kerker type mixing with AMIX =  0.4000 and BMIX =      1.0000
 Hartree-type preconditioning will be used
 using additional bands           92
 reciprocal scheme for non local part
 use partial core corrections
 no Harris-corrections to forces 
 use gradient corrections 
 use of overlap-Matrix (Vanderbilt PP)
 Gauss-broadening in eV      SIGMA  =   0.01


--------------------------------------------------------------------------------------------------------


  energy-cutoff  :     1000.00
  volume of cell :      224.07
      direct lattice vectors                 reciprocal lattice vectors
     3.604000000  0.000000000  0.000000000     0.277469478 -0.000000000  0.051426155
     0.000000000  9.041000000  0.000000000     0.000000000  0.110607234 -0.000000000
    -1.274560000  0.000000000  6.876880000     0.000000000  0.000000000  0.145414781

  length of vectors
     3.604000000  9.041000000  6.993996120     0.282194899  0.110607234  0.145414781



 k-points in units of 2pi/SCALE and weight: auto                                    
   0.00000000  0.00000000  0.00000000       0.012
   0.03963850  0.00000000  0.00734659       0.024
   0.07927699  0.00000000  0.01469319       0.024
   0.11891549  0.00000000  0.02203978       0.024
   0.00000000  0.03686908  0.00000000       0.024
   0.03963850  0.03686908  0.00734659       0.024
  -0.03963850  0.03686908 -0.00734659       0.024
   0.07927699  0.03686908  0.01469319       0.024
  -0.07927699  0.03686908 -0.01469319       0.024
   0.11891549  0.03686908  0.02203978       0.024
  -0.11891549  0.03686908 -0.02203978       0.024
   0.00000000  0.00000000  0.03635370       0.024
   0.03963850  0.00000000  0.04370029       0.024
   0.07927699  0.00000000  0.05104688       0.024
   0.11891549  0.00000000  0.05839348       0.024
  -0.11891549  0.00000000  0.01431391       0.024
  -0.07927699  0.00000000  0.02166051       0.024
  -0.03963850  0.00000000  0.02900710       0.024
   0.00000000  0.03686908  0.03635370       0.024
   0.00000000  0.03686908 -0.03635370       0.024
   0.03963850  0.03686908  0.04370029       0.024
  -0.03963850  0.03686908 -0.04370029       0.024
   0.07927699  0.03686908  0.05104688       0.024
  -0.07927699  0.03686908 -0.05104688       0.024
   0.11891549  0.03686908  0.05839348       0.024
  -0.11891549  0.03686908 -0.05839348       0.024
  -0.11891549  0.03686908  0.01431391       0.024
   0.11891549  0.03686908 -0.01431391       0.024
  -0.07927699  0.03686908  0.02166051       0.024
   0.07927699  0.03686908 -0.02166051       0.024
  -0.03963850  0.03686908  0.02900710       0.024
   0.03963850  0.03686908 -0.02900710       0.024
   0.00000000  0.00000000  0.07270739       0.012
   0.03963850  0.00000000  0.08005398       0.024
   0.07927699  0.00000000  0.08740058       0.024
   0.11891549  0.00000000  0.09474717       0.024
   0.00000000  0.03686908  0.07270739       0.024
   0.03963850  0.03686908  0.08005398       0.024
  -0.03963850  0.03686908  0.06536080       0.024
   0.07927699  0.03686908  0.08740058       0.024
  -0.07927699  0.03686908  0.05801420       0.024
   0.11891549  0.03686908  0.09474717       0.024
  -0.11891549  0.03686908  0.05066761       0.024

 k-points in reciprocal lattice and weights: auto                                    
   0.00000000  0.00000000  0.00000000       0.012
   0.14285714  0.00000000  0.00000000       0.024
   0.28571429  0.00000000  0.00000000       0.024
   0.42857143  0.00000000  0.00000000       0.024
   0.00000000  0.33333333  0.00000000       0.024
   0.14285714  0.33333333  0.00000000       0.024
  -0.14285714  0.33333333  0.00000000       0.024
   0.28571429  0.33333333  0.00000000       0.024
  -0.28571429  0.33333333  0.00000000       0.024
   0.42857143  0.33333333  0.00000000       0.024
  -0.42857143  0.33333333  0.00000000       0.024
   0.00000000  0.00000000  0.25000000       0.024
   0.14285714  0.00000000  0.25000000       0.024
   0.28571429  0.00000000  0.25000000       0.024
   0.42857143  0.00000000  0.25000000       0.024
  -0.42857143  0.00000000  0.25000000       0.024
  -0.28571429  0.00000000  0.25000000       0.024
  -0.14285714  0.00000000  0.25000000       0.024
   0.00000000  0.33333333  0.25000000       0.024
   0.00000000  0.33333333 -0.25000000       0.024
   0.14285714  0.33333333  0.25000000       0.024
  -0.14285714  0.33333333 -0.25000000       0.024
   0.28571429  0.33333333  0.25000000       0.024
  -0.28571429  0.33333333 -0.25000000       0.024
   0.42857143  0.33333333  0.25000000       0.024
  -0.42857143  0.33333333 -0.25000000       0.024
  -0.42857143  0.33333333  0.25000000       0.024
   0.42857143  0.33333333 -0.25000000       0.024
  -0.28571429  0.33333333  0.25000000       0.024
   0.28571429  0.33333333 -0.25000000       0.024
  -0.14285714  0.33333333  0.25000000       0.024
   0.14285714  0.33333333 -0.25000000       0.024
   0.00000000  0.00000000  0.50000000       0.012
   0.14285714  0.00000000  0.50000000       0.024
   0.28571429  0.00000000  0.50000000       0.024
   0.42857143  0.00000000  0.50000000       0.024
   0.00000000  0.33333333  0.50000000       0.024
   0.14285714  0.33333333  0.50000000       0.024
  -0.14285714  0.33333333  0.50000000       0.024
   0.28571429  0.33333333  0.50000000       0.024
  -0.28571429  0.33333333  0.50000000       0.024
   0.42857143  0.33333333  0.50000000       0.024
  -0.42857143  0.33333333  0.50000000       0.024

 position of ions in fractional coordinates (direct lattice) 
   0.33203518  0.05507810  0.25732130
   0.66797297  0.94492190  0.74267685
   0.16796568  0.55506745  0.24267585
   0.83203372  0.44491009  0.75733183
   0.47376838  0.92921519  0.24829715
   0.52624666  0.07078229  0.75170236
   0.02623126  0.42921202  0.25170395
   0.97376874  0.57076943  0.74830917
   0.29444550  0.15600583  0.11704293
   0.70556522  0.84399345  0.88295880
   0.20554746  0.65599935  0.38295547
   0.79444591  0.34398259  0.61705165
   0.18857655  0.25837824  0.14240912
   0.81142749  0.74161909  0.85759834
   0.31143008  0.75837424  0.35758934
   0.68856344  0.24160751  0.64241981
   0.37690756  0.13179633  0.98675069
   0.62310071  0.86820399  0.01324931
   0.12309189  0.63179210  0.51324241
   0.87690328  0.36819167  0.48676202
   0.23078024  0.09041247  0.39024895
   0.76923352  0.90958515  0.60975105
   0.26923447  0.59040061  0.10975011
   0.73077510  0.40957900  0.89026058

 position of ions in cartesian coordinates  (Angst):
   0.86868335  0.49796107  1.76956771
   1.46078838  8.54303893  5.10729956
   0.29604336  5.01836482  1.66885272
   2.03338466  4.02243212  5.20808014
   1.39099161  8.40103458  1.70750974
   0.93850318  0.63994271  5.16936693
  -0.22627431  3.88050592  1.73093786
   2.55569758  5.16032638  5.14603239
   0.91200333  1.41044869  0.80489020
   1.41747311  7.63054479  6.07200168
   0.25269332  5.93089010  2.63353882
   2.07671371  3.10994660  4.24339014
   0.49812091  2.33599769  0.97933043
   1.83132413  6.70497823  5.89760088
   0.66662493  6.85646147  2.45909899
   1.66278004  2.18437354  4.41784395
   0.10070188  1.19157059  6.78576607
   2.22876790  7.84943228  0.09111393
  -0.21053509  5.71203241  3.52950647
   2.53995202  3.32882087  3.34740403
   0.33433629  0.81741912  2.68369519
   1.99515332  8.22355938  4.19318480
   0.83043791  5.33781192  0.75473835
   1.49902295  3.70300371  6.12221516



--------------------------------------------------------------------------------------------------------


 k-point   1 :   0.0000 0.0000 0.0000  plane waves:   16099
 k-point   2 :   0.1429 0.0000 0.0000  plane waves:   16088
 k-point   3 :   0.2857 0.0000 0.0000  plane waves:   16074
 k-point   4 :   0.4286 0.0000 0.0000  plane waves:   16083
 k-point   5 :   0.0000 0.3333 0.0000  plane waves:   16112
 k-point   6 :   0.1429 0.3333 0.0000  plane waves:   16092
 k-point   7 :  -0.1429 0.3333 0.0000  plane waves:   16092
 k-point   8 :   0.2857 0.3333 0.0000  plane waves:   16059
 k-point   9 :  -0.2857 0.3333 0.0000  plane waves:   16059
 k-point  10 :   0.4286 0.3333 0.0000  plane waves:   16083
 k-point  11 :  -0.4286 0.3333 0.0000  plane waves:   16083
 k-point  12 :   0.0000 0.0000 0.2500  plane waves:   16086
 k-point  13 :   0.1429 0.0000 0.2500  plane waves:   16093
 k-point  14 :   0.2857 0.0000 0.2500  plane waves:   16099
 k-point  15 :   0.4286 0.0000 0.2500  plane waves:   16110
 k-point  16 :  -0.4286 0.0000 0.2500  plane waves:   16101
 k-point  17 :  -0.2857 0.0000 0.2500  plane waves:   16100
 k-point  18 :  -0.1429 0.0000 0.2500  plane waves:   16098
 k-point  19 :   0.0000 0.3333 0.2500  plane waves:   16106
 k-point  20 :   0.0000 0.3333-0.2500  plane waves:   16106
 k-point  21 :   0.1429 0.3333 0.2500  plane waves:   16086
 k-point  22 :  -0.1429 0.3333-0.2500  plane waves:   16086
 k-point  23 :   0.2857 0.3333 0.2500  plane waves:   16081
 k-point  24 :  -0.2857 0.3333-0.2500  plane waves:   16081
 k-point  25 :   0.4286 0.3333 0.2500  plane waves:   16088
 k-point  26 :  -0.4286 0.3333-0.2500  plane waves:   16088
 k-point  27 :  -0.4286 0.3333 0.2500  plane waves:   16077
 k-point  28 :   0.4286 0.3333-0.2500  plane waves:   16077
 k-point  29 :  -0.2857 0.3333 0.2500  plane waves:   16075
 k-point  30 :   0.2857 0.3333-0.2500  plane waves:   16075
 k-point  31 :  -0.1429 0.3333 0.2500  plane waves:   16107
 k-point  32 :   0.1429 0.3333-0.2500  plane waves:   16107
 k-point  33 :   0.0000 0.0000 0.5000  plane waves:   16110
 k-point  34 :   0.1429 0.0000 0.5000  plane waves:   16095
 k-point  35 :   0.2857 0.0000 0.5000  plane waves:   16090
 k-point  36 :   0.4286 0.0000 0.5000  plane waves:   16056
 k-point  37 :   0.0000 0.3333 0.5000  plane waves:   16112
 k-point  38 :   0.1429 0.3333 0.5000  plane waves:   16105
 k-point  39 :  -0.1429 0.3333 0.5000  plane waves:   16105
 k-point  40 :   0.2857 0.3333 0.5000  plane waves:   16088
 k-point  41 :  -0.2857 0.3333 0.5000  plane waves:   16088
 k-point  42 :   0.4286 0.3333 0.5000  plane waves:   16096
 k-point  43 :  -0.4286 0.3333 0.5000  plane waves:   16096

 maximum and minimum number of plane-waves per node :      8089     8023

 maximum number of plane-waves:     16112
 maximum index in each direction: 
   IXMAX=    9   IYMAX=   23   IZMAX=   18
   IXMIN=   -9   IYMIN=  -23   IZMIN=  -18


 parallel 3D FFT for wavefunctions:
    minimum data exchange during FFTs selected (reduces bandwidth)
 parallel 3D FFT for charge:
    minimum data exchange during FFTs selected (reduces bandwidth)


 total amount of memory used by VASP MPI-rank0   153077. kBytes
=======================================================================

   base      :      30000. kBytes
   nonl-proj :      93323. kBytes
   fftplans  :       4974. kBytes
   grid      :       7572. kBytes
   one-center:         36. kBytes
   wavefun   :      17172. kBytes

     INWAV:  cpu time      0.0001: real time      0.0002
 Broyden mixing: mesh for mixing (old mesh)
   NGX = 19   NGY = 47   NGZ = 37
  (NGX  = 80   NGY  =192   NGZ  =144)
  gives a total of  33041 points

 initial charge density was supplied:
 charge density of overlapping atoms calculated
 number of electron      72.0000000 magnetization 
 keeping initial charge density in first step


--------------------------------------------------------------------------------------------------------


 Maximum index for augmentation-charges          471 (set IRDMAX)


--------------------------------------------------------------------------------------------------------


 First call to EWALD:  gamma=   0.292
 Maximum number of real-space cells 4x 2x 2
 Maximum number of reciprocal cells 2x 4x 3

    FEWALD:  cpu time      0.0020: real time      0.0020


--------------------------------------- Ionic step        1  -------------------------------------------




--------------------------------------- Iteration      1(   1)  ---------------------------------------


    POTLOK:  cpu time      0.1376: real time      0.1384
    SETDIJ:  cpu time      0.0114: real time      0.0115
    TRIAL :  cpu time     24.1589: real time     24.1714
    CORREC:  cpu time      0.0019: real time      0.0019
    --------------------------------------------
      LOOP:  cpu time     24.3275: real time     24.3409

 eigenvalue-minimisations  : 11008
 total energy-change (2. order) : 0.2544345E+03  (-0.6913717E+04)
 number of electron      72.0000000 magnetization 
 augmentation part       72.0000000 magnetization 

 Free energy of the ion-electron system (eV)
  ---------------------------------------------------
  alpha Z        PSCENC =        66.04564387
  Ewald energy   TEWEN  =     -1794.06305543
  -Hartree energ DENC   =     -1388.40566428
  -exchange      EXHF   =         0.00000000
  -V(xc)+E(xc)   XCENC  =       221.16242576
  PAW double counting   =      2690.36641566    -2671.62827122
  entropy T*S    EENTRO =        -0.00019137
  eigenvalues    EBANDS =      -398.77110750
  atomic energy  EATOM  =      3529.72829765
  ---------------------------------------------------
  free energy    TOTEN  =       254.43449314 eV

  energy without entropy =      254.43468451  energy(sigma->0) =      254.43458882


--------------------------------------------------------------------------------------------------------




--------------------------------------- Iteration      1(   2)  ---------------------------------------


    TRIAL :  cpu time     66.4285: real time     66.4730
    CORREC:  cpu time      0.0004: real time      0.0004
    --------------------------------------------
      LOOP:  cpu time     66.4464: real time     66.5028

 eigenvalue-minimisations  : 16512
 total energy-change (2. order) :-0.3985550E+03  (-0.3974917E+03)
 number of electron      72.0000000 magnetization 
 augmentation part       72.0000000 magnetization 

 Free energy of the ion-electron system (eV)
  ---------------------------------------------------
  alpha Z        PSCENC =        66.04564387
  Ewald energy   TEWEN  =     -1794.06305543
  -Hartree energ DENC   =     -1388.40566428
  -exchange      EXHF   =         0.00000000
  -V(xc)+E(xc)   XCENC  =       221.16242576
  PAW double counting   =      2690.36641566    -2671.62827122
  entropy T*S    EENTRO =        -0.00000000
  eigenvalues    EBANDS =      -797.32631920
  atomic energy  EATOM  =      3529.72829765
  ---------------------------------------------------
  free energy    TOTEN  =      -144.12052719 eV

  energy without entropy =     -144.12052719  energy(sigma->0) =     -144.12052719


--------------------------------------------------------------------------------------------------------




--------------------------------------- Iteration      1(   3)  ---------------------------------------


    TRIAL :  cpu time     26.5152: real time     26.5298
    CORREC:  cpu time      0.0004: real time      0.0004
    --------------------------------------------
      LOOP:  cpu time     26.5314: real time     26.5596

 eigenvalue-minimisations  : 11008
 total energy-change (2. order) :-0.7317571E+01  (-0.7317571E+01)
 number of electron      72.0000000 magnetization 
 augmentation part       72.0000000 magnetization 

 Free energy of the ion-electron system (eV)
  ---------------------------------------------------
  alpha Z        PSCENC =        66.04564387
  Ewald energy   TEWEN  =     -1794.06305543
  -Hartree energ DENC   =     -1388.40566428
  -exchange      EXHF   =         0.00000000
  -V(xc)+E(xc)   XCENC  =       221.16242576
  PAW double counting   =      2690.36641566    -2671.62827122
  entropy T*S    EENTRO =        -0.00000000
  eigenvalues    EBANDS =      -804.64388992
  atomic energy  EATOM  =      3529.72829765
  ---------------------------------------------------
  free energy    TOTEN  =      -151.43809791 eV

  energy without entropy =     -151.43809791  energy(sigma->0) =     -151.43809791


--------------------------------------------------------------------------------------------------------




--------------------------------------- Iteration      1(   4)  ---------------------------------------


    TRIAL :  cpu time    139.8663: real time    139.9405
    CORREC:  cpu time      0.0038: real time      0.0038
    --------------------------------------------
      LOOP:  cpu time    139.8839: real time    139.9739

 eigenvalue-minimisations  : 22016
 total energy-change (2. order) :-0.1966141E-01  (-0.1966141E-01)
 number of electron      72.0000000 magnetization 
 augmentation part       72.0000000 magnetization 

 Free energy of the ion-electron system (eV)
  ---------------------------------------------------
  alpha Z        PSCENC =        66.04564387
  Ewald energy   TEWEN  =     -1794.06305543
  -Hartree energ DENC   =     -1388.40566428
  -exchange      EXHF   =         0.00000000
  -V(xc)+E(xc)   XCENC  =       221.16242576
  PAW double counting   =      2690.36641566    -2671.62827122
  entropy T*S    EENTRO =        -0.00000000
  eigenvalues    EBANDS =      -804.66355132
  atomic energy  EATOM  =      3529.72829765
  ---------------------------------------------------
  free energy    TOTEN  =      -151.45775932 eV

  energy without entropy =     -151.45775932  energy(sigma->0) =     -151.45775932


--------------------------------------------------------------------------------------------------------




--------------------------------------- Iteration      1(   5)  ---------------------------------------


    TRIAL :  cpu time     26.2649: real time     26.2800
    CORREC:  cpu time      0.0003: real time      0.0003
    CHARGE:  cpu time      0.1273: real time      0.1275
    --------------------------------------------
      LOOP:  cpu time     26.4040: real time     26.4390

 eigenvalue-minimisations  : 11008
 total energy-change (2. order) :-0.1121389E-06  (-0.1121403E-06)
 number of electron      72.0000000 magnetization 
 augmentation part        0.3817125 magnetization 

 Free energy of the ion-electron system (eV)
  ---------------------------------------------------
  alpha Z        PSCENC =        66.04564387
  Ewald energy   TEWEN  =     -1794.06305543
  -Hartree energ DENC   =     -1388.40566428
  -exchange      EXHF   =         0.00000000
  -V(xc)+E(xc)   XCENC  =       221.16242576
  PAW double counting   =      2690.36641566    -2671.62827122
  entropy T*S    EENTRO =        -0.00000000
  eigenvalues    EBANDS =      -804.66355144
  atomic energy  EATOM  =      3529.72829765
  ---------------------------------------------------
  free energy    TOTEN  =      -151.45775943 eV

  energy without entropy =     -151.45775943  energy(sigma->0) =     -151.45775943


--------------------------------------------------------------------------------------------------------




--------------------------------------- Iteration      1(   6)  ---------------------------------------


    POTLOK:  cpu time      0.1150: real time      0.1151
    SETDIJ:  cpu time      0.0044: real time      0.0044
    TRIAL :  cpu time      5.6165: real time      5.6203
    CORREC:  cpu time      1.5757: real time      1.5763
    CHARGE:  cpu time      0.1102: real time      0.1102
    --------------------------------------------
      LOOP:  cpu time      7.4343: real time      7.4556

 eigenvalue-minimisations  :     0
 total energy-change (2. order) : 0.2915289E+02  (-0.1403416E+02)
 number of electron      72.0000000 magnetization 
 augmentation part        0.1852886 magnetization 

 Free energy of the ion-electron system (eV)
  ---------------------------------------------------
  alpha Z        PSCENC =        66.04564387
  Ewald energy   TEWEN  =     -1794.06305543
  -Hartree energ DENC   =     -1821.99178088
  -exchange      EXHF   =         0.00000000
  -V(xc)+E(xc)   XCENC  =       248.91392726
  PAW double counting   =     20431.24934829   -20418.55941540
  entropy T*S    EENTRO =        -0.00000000
  eigenvalues    EBANDS =      -363.62783936
  atomic energy  EATOM  =      3529.72829765
  ---------------------------------------------------
  free energy    TOTEN  =      -122.30487400 eV

  energy without entropy =     -122.30487400  energy(sigma->0) =     -122.30487400


--------------------------------------------------------------------------------------------------------




--------------------------------------- Iteration      1(   7)  ---------------------------------------


    POTLOK:  cpu time      0.1099: real time      0.1101
    SETDIJ:  cpu time      0.0043: real time      0.0043
    TRIAL :  cpu time      3.2105: real time      3.2122
    CORREC:  cpu time      1.5558: real time      1.5563
    CHARGE:  cpu time      0.1126: real time      0.1126
    --------------------------------------------
      LOOP:  cpu time      5.0225: real time      5.0251

 eigenvalue-minimisations  :     0
 total energy-change (2. order) :-0.1407749E+02  (-0.1904621E+01)
 number of electron      72.0000000 magnetization 
 augmentation part        0.1726192 magnetization 

 Free energy of the ion-electron system (eV)
  ---------------------------------------------------
  alpha Z        PSCENC =        66.04564387
  Ewald energy   TEWEN  =     -1794.06305543
  -Hartree energ DENC   =     -1631.42687411
  -exchange      EXHF   =         0.00000000
  -V(xc)+E(xc)   XCENC  =       237.75262631
  PAW double counting   =     35086.66596386   -35070.63560528
  entropy T*S    EENTRO =        -0.00000000
  eigenvalues    EBANDS =      -560.44936226
  atomic energy  EATOM  =      3529.72829765
  ---------------------------------------------------
  free energy    TOTEN  =      -136.38236538 eV

  energy without entropy =     -136.38236538  energy(sigma->0) =     -136.38236538


--------------------------------------------------------------------------------------------------------




--------------------------------------- Iteration      1(   8)  ---------------------------------------


    POTLOK:  cpu time      0.1092: real time      0.1097
    SETDIJ:  cpu time      0.0044: real time      0.0044
    TRIAL :  cpu time      3.2004: real time      3.2022
    CORREC:  cpu time      1.5579: real time      1.5586
    CHARGE:  cpu time      0.1094: real time      0.1094
    --------------------------------------------
      LOOP:  cpu time      5.0109: real time      5.0141

 eigenvalue-minimisations  :     0
 total energy-change (2. order) :-0.1889556E+01  (-0.2838605E+00)
 number of electron      72.0000000 magnetization 
 augmentation part        0.1737052 magnetization 

 Free energy of the ion-electron system (eV)
  ---------------------------------------------------
  alpha Z        PSCENC =        66.04564387
  Ewald energy   TEWEN  =     -1794.06305543
  -Hartree energ DENC   =     -1597.19642869
  -exchange      EXHF   =         0.00000000
  -V(xc)+E(xc)   XCENC  =       235.68534852
  PAW double counting   =     29400.37608035   -29384.24457576
  entropy T*S    EENTRO =        -0.00000000
  eigenvalues    EBANDS =      -594.60323219
  atomic energy  EATOM  =      3529.72829765
  ---------------------------------------------------
  free energy    TOTEN  =      -138.27192167 eV

  energy without entropy =     -138.27192167  energy(sigma->0) =     -138.27192167


--------------------------------------------------------------------------------------------------------




--------------------------------------- Iteration      1(   9)  ---------------------------------------


    POTLOK:  cpu time      0.1100: real time      0.1100
    SETDIJ:  cpu time      0.0044: real time      0.0044
    TRIAL :  cpu time      3.2483: real time      3.2499
    CORREC:  cpu time      1.5546: real time      1.5552
    CHARGE:  cpu time      0.1114: real time      0.1121
    --------------------------------------------
      LOOP:  cpu time      5.0405: real time      5.0618

 eigenvalue-minimisations  :     0
 total energy-change (2. order) :-0.2831985E+00  (-0.3435849E-01)
 number of electron      72.0000000 magnetization 
 augmentation part        0.1775112 magnetization 

 Free energy of the ion-electron system (eV)
  ---------------------------------------------------
  alpha Z        PSCENC =        66.04564387
  Ewald energy   TEWEN  =     -1794.06305543
  -Hartree energ DENC   =     -1587.15996418
  -exchange      EXHF   =         0.00000000
  -V(xc)+E(xc)   XCENC  =       235.00069696
  PAW double counting   =     27731.59214011   -27715.46877467
  entropy T*S    EENTRO =        -0.00000000
  eigenvalues    EBANDS =      -604.23010446
  atomic energy  EATOM  =      3529.72829765
  ---------------------------------------------------
  free energy    TOTEN  =      -138.55512014 eV

  energy without entropy =     -138.55512014  energy(sigma->0) =     -138.55512014


--------------------------------------------------------------------------------------------------------




--------------------------------------- Iteration      1(  10)  ---------------------------------------


    POTLOK:  cpu time      0.1099: real time      0.1099
    SETDIJ:  cpu time      0.0044: real time      0.0044
    TRIAL :  cpu time      3.2112: real time      3.2132
    CORREC:  cpu time      1.5544: real time      1.5550
    CHARGE:  cpu time      0.1110: real time      0.1116
    --------------------------------------------
      LOOP:  cpu time      5.0207: real time      5.0241

 eigenvalue-minimisations  :     0
 total energy-change (2. order) :-0.3435436E-01  (-0.4898809E-02)
 number of electron      72.0000000 magnetization 
 augmentation part        0.1738738 magnetization 

 Free energy of the ion-electron system (eV)
  ---------------------------------------------------
  alpha Z        PSCENC =        66.04564387
  Ewald energy   TEWEN  =     -1794.06305543
  -Hartree energ DENC   =     -1589.19212465
  -exchange      EXHF   =         0.00000000
  -V(xc)+E(xc)   XCENC  =       235.05018639
  PAW double counting   =     27486.61698392   -27470.55180934
  entropy T*S    EENTRO =        -0.00000000
  eigenvalues    EBANDS =      -602.22359691
  atomic energy  EATOM  =      3529.72829765
  ---------------------------------------------------
  free energy    TOTEN  =      -138.58947450 eV

  energy without entropy =     -138.58947450  energy(sigma->0) =     -138.58947450


--------------------------------------------------------------------------------------------------------




--------------------------------------- Iteration      1(  11)  ---------------------------------------


    POTLOK:  cpu time      0.1097: real time      0.1097
    SETDIJ:  cpu time      0.0044: real time      0.0044
    TRIAL :  cpu time      3.2022: real time      3.2043
    CORREC:  cpu time      1.5530: real time      1.5536
    CHARGE:  cpu time      0.1086: real time      0.1093
    --------------------------------------------
      LOOP:  cpu time      4.9931: real time      5.0108

 eigenvalue-minimisations  :     0
 total energy-change (2. order) :-0.4891400E-02  (-0.7554457E-03)
 number of electron      72.0000000 magnetization 
 augmentation part        0.1742629 magnetization 

 Free energy of the ion-electron system (eV)
  ---------------------------------------------------
  alpha Z        PSCENC =        66.04564387
  Ewald energy   TEWEN  =     -1794.06305543
  -Hartree energ DENC   =     -1588.88762654
  -exchange      EXHF   =         0.00000000
  -V(xc)+E(xc)   XCENC  =       235.01091060
  PAW double counting   =     27705.38922444   -27689.30057983
  entropy T*S    EENTRO =        -0.00000000
  eigenvalues    EBANDS =      -602.51718067
  atomic energy  EATOM  =      3529.72829765
  ---------------------------------------------------
  free energy    TOTEN  =      -138.59436590 eV

  energy without entropy =     -138.59436590  energy(sigma->0) =     -138.59436590


--------------------------------------------------------------------------------------------------------




--------------------------------------- Iteration      1(  12)  ---------------------------------------


    POTLOK:  cpu time      0.1101: real time      0.1101
    SETDIJ:  cpu time      0.0044: real time      0.0044
    TRIAL :  cpu time      3.2290: real time      3.2305
    CORREC:  cpu time      1.5474: real time      1.5485
    CHARGE:  cpu time      0.1091: real time      0.1091
    --------------------------------------------
      LOOP:  cpu time      5.0122: real time      5.0337

 eigenvalue-minimisations  :     0
 total energy-change (2. order) :-0.7557674E-03  (-0.8857450E-04)
 number of electron      72.0000000 magnetization 
 augmentation part        0.1744487 magnetization 

 Free energy of the ion-electron system (eV)
  ---------------------------------------------------
  alpha Z        PSCENC =        66.04564387
  Ewald energy   TEWEN  =     -1794.06305543
  -Hartree energ DENC   =     -1589.24889837
  -exchange      EXHF   =         0.00000000
  -V(xc)+E(xc)   XCENC  =       235.02327227
  PAW double counting   =     27705.85021056   -27689.76631200
  entropy T*S    EENTRO =        -0.00000000
  eigenvalues    EBANDS =      -602.16428021
  atomic energy  EATOM  =      3529.72829765
  ---------------------------------------------------
  free energy    TOTEN  =      -138.59512167 eV

  energy without entropy =     -138.59512167  energy(sigma->0) =     -138.59512167


--------------------------------------------------------------------------------------------------------




--------------------------------------- Iteration      1(  13)  ---------------------------------------


    POTLOK:  cpu time      0.1099: real time      0.1099
    SETDIJ:  cpu time      0.0044: real time      0.0044
    TRIAL :  cpu time      3.2114: real time      3.2135
    CORREC:  cpu time      1.5543: real time      1.5553
    CHARGE:  cpu time      0.1102: real time      0.1102
    --------------------------------------------
      LOOP:  cpu time      5.0077: real time      5.0233

 eigenvalue-minimisations  :     0
 total energy-change (2. order) :-0.8991961E-04  (-0.1100123E-04)
 number of electron      72.0000000 magnetization 
 augmentation part        0.1744783 magnetization 

 Free energy of the ion-electron system (eV)
  ---------------------------------------------------
  alpha Z        PSCENC =        66.04564387
  Ewald energy   TEWEN  =     -1794.06305543
  -Hartree energ DENC   =     -1589.17118373
  -exchange      EXHF   =         0.00000000
  -V(xc)+E(xc)   XCENC  =       235.01718097
  PAW double counting   =     27694.45055085   -27678.36638099
  entropy T*S    EENTRO =        -0.00000000
  eigenvalues    EBANDS =      -602.23626478
  atomic energy  EATOM  =      3529.72829765
  ---------------------------------------------------
  free energy    TOTEN  =      -138.59521159 eV

  energy without entropy =     -138.59521159  energy(sigma->0) =     -138.59521159


--------------------------------------------------------------------------------------------------------




--------------------------------------- Iteration      1(  14)  ---------------------------------------


    POTLOK:  cpu time      0.1098: real time      0.1098
    SETDIJ:  cpu time      0.0044: real time      0.0044
    TRIAL :  cpu time      3.1969: real time      3.1984
    CORREC:  cpu time      1.5445: real time      1.5456
    CHARGE:  cpu time      0.1107: real time      0.1107
    --------------------------------------------
      LOOP:  cpu time      4.9796: real time      4.9991

 eigenvalue-minimisations  :     0
 total energy-change (2. order) :-0.1093313E-04  (-0.1457092E-05)
 number of electron      72.0000000 magnetization 
 augmentation part        0.1744333 magnetization 

 Free energy of the ion-electron system (eV)
  ---------------------------------------------------
  alpha Z        PSCENC =        66.04564387
  Ewald energy   TEWEN  =     -1794.06305543
  -Hartree energ DENC   =     -1589.16683788
  -exchange      EXHF   =         0.00000000
  -V(xc)+E(xc)   XCENC  =       235.01756734
  PAW double counting   =     27694.28541938   -27678.20148236
  entropy T*S    EENTRO =        -0.00000000
  eigenvalues    EBANDS =      -602.24077511
  atomic energy  EATOM  =      3529.72829765
  ---------------------------------------------------
  free energy    TOTEN  =      -138.59522252 eV

  energy without entropy =     -138.59522252  energy(sigma->0) =     -138.59522252


--------------------------------------------------------------------------------------------------------




--------------------------------------- Iteration      1(  15)  ---------------------------------------


    POTLOK:  cpu time      0.1097: real time      0.1098
    SETDIJ:  cpu time      0.0044: real time      0.0044
    TRIAL :  cpu time      3.2304: real time      3.2323
    CORREC:  cpu time      1.5490: real time      1.5500
    CHARGE:  cpu time      0.1118: real time      0.1119
    --------------------------------------------
      LOOP:  cpu time      5.0348: real time      5.0379

 eigenvalue-minimisations  :     0
 total energy-change (2. order) :-0.1410390E-05  (-0.1986065E-06)
 number of electron      72.0000000 magnetization 
 augmentation part        0.1744482 magnetization 

 Free energy of the ion-electron system (eV)
  ---------------------------------------------------
  alpha Z        PSCENC =        66.04564387
  Ewald energy   TEWEN  =     -1794.06305543
  -Hartree energ DENC   =     -1589.14672501
  -exchange      EXHF   =         0.00000000
  -V(xc)+E(xc)   XCENC  =       235.01655082
  PAW double counting   =     27699.13520480   -27683.05084562
  entropy T*S    EENTRO =        -0.00000000
  eigenvalues    EBANDS =      -602.26029501
  atomic energy  EATOM  =      3529.72829765
  ---------------------------------------------------
  free energy    TOTEN  =      -138.59522393 eV

  energy without entropy =     -138.59522393  energy(sigma->0) =     -138.59522393


--------------------------------------------------------------------------------------------------------




--------------------------------------- Iteration      1(  16)  ---------------------------------------


    POTLOK:  cpu time      0.1095: real time      0.1095
    SETDIJ:  cpu time      0.0044: real time      0.0044
    TRIAL :  cpu time      3.2203: real time      3.2223
    CORREC:  cpu time      1.5496: real time      1.5507
    CHARGE:  cpu time      0.1085: real time      0.1085
    --------------------------------------------
      LOOP:  cpu time      5.0047: real time      5.0250

 eigenvalue-minimisations  :     0
 total energy-change (2. order) :-0.1931730E-06  (-0.2139915E-07)
 number of electron      72.0000000 magnetization 
 augmentation part        0.1744482 magnetization 

 Free energy of the ion-electron system (eV)
  ---------------------------------------------------
  alpha Z        PSCENC =        66.04564387
  Ewald energy   TEWEN  =     -1794.06305543
  -Hartree energ DENC   =     -1589.15305523
  -exchange      EXHF   =         0.00000000
  -V(xc)+E(xc)   XCENC  =       235.01691225
  PAW double counting   =     27698.71835053   -27682.63416925
  entropy T*S    EENTRO =        -0.00000000
  eigenvalues    EBANDS =      -602.25414852
  atomic energy  EATOM  =      3529.72829765
  ---------------------------------------------------
  free energy    TOTEN  =      -138.59522412 eV

  energy without entropy =     -138.59522412  energy(sigma->0) =     -138.59522412


--------------------------------------------------------------------------------------------------------




--------------------------------------- Iteration      1(  17)  ---------------------------------------


    POTLOK:  cpu time      0.1242: real time      0.1242
    SETDIJ:  cpu time      0.0056: real time      0.0056
    TRIAL :  cpu time      3.2037: real time      3.2058
    CORREC:  cpu time      1.5462: real time      1.5472
    EDDIAG:  cpu time      1.5077: real time      1.5088
    CHARGE:  cpu time      0.1093: real time      0.1093
    --------------------------------------------
      LOOP:  cpu time      6.5098: real time      6.5313

 eigenvalue-minimisations  :     0
 total energy-change (2. order) :-0.1701119E-07  (-0.6770819E-08)
 number of electron      72.0000000 magnetization 
 augmentation part        0.1744479 magnetization 

 Free energy of the ion-electron system (eV)
  ---------------------------------------------------
  alpha Z        PSCENC =        66.04564387
  Ewald energy   TEWEN  =     -1794.06305543
  -Hartree energ DENC   =     -1589.15206347
  -exchange      EXHF   =         0.00000000
  -V(xc)+E(xc)   XCENC  =       235.01684730
  PAW double counting   =     27698.46073765   -27682.37654605
  entropy T*S    EENTRO =        -0.00000000
  eigenvalues    EBANDS =      -602.25508567
  atomic energy  EATOM  =      3529.72829765
  ---------------------------------------------------
  free energy    TOTEN  =      -138.59522414 eV

  energy without entropy =     -138.59522414  energy(sigma->0) =     -138.59522414


--------------------------------------------------------------------------------------------------------


  average scaling for gradient   1.1995


 average (electrostatic) potential at core
  the test charge radii are     0.5770  0.5955  0.5902  0.4325
  (the norm of the test charge is              1.0000)
       1 -83.9554       2 -83.9555       3 -83.9554       4 -83.9552       5-113.9990
       6-113.9993       7-113.9992       8-113.9988       9 -99.2058      10 -99.2058
      11 -99.2056      12 -99.2055      13 -42.0621      14 -42.0620      15 -42.0616
      16 -42.0615      17 -42.0306      18 -42.0305      19 -42.0308      20 -42.0306
      21 -41.1443      22 -41.1443      23 -41.1441      24 -41.1441



 E-fermi :  -0.6729     XC(G=0):  -7.7363     alpha+bet : -6.4442

 Fermi energy:        -0.6728534556

 k-point     1 :       0.0000    0.0000    0.0000
  band No.  band energies     occupation 
      1     -20.7634      2.00000
      2     -20.6700      2.00000
      3     -20.5882      2.00000
      4     -20.5150      2.00000
      5     -17.4551      2.00000
      6     -17.2945      2.00000
      7     -17.1722      2.00000
      8     -17.0936      2.00000
      9     -10.4312      2.00000
     10     -10.2710      2.00000
     11     -10.0634      2.00000
     12      -9.6402      2.00000
     13      -8.8720      2.00000
     14      -8.4503      2.00000
     15      -7.9316      2.00000
     16      -7.8058      2.00000
     17      -6.9787      2.00000
     18      -6.9569      2.00000
     19      -6.3006      2.00000
     20      -6.1766      2.00000
     21      -5.7705      2.00000
     22      -5.2275      2.00000
     23      -5.0481      2.00000
     24      -4.4866      2.00000
     25      -4.4080      2.00000
     26      -4.2966      2.00000
     27      -4.2629      2.00000
     28      -4.0720      2.00000
     29      -1.6486      2.00000
     30      -1.4231      2.00000
     31      -1.3902      2.00000
     32      -1.2560      2.00000
     33      -1.1611      2.00000
     34      -1.1310      2.00000
     35      -1.1243      2.00000
     36      -1.1192      2.00000
     37       3.9813      0.00000
     38       4.2441      0.00000
     39       4.4128      0.00000
     40       4.6295      0.00000
     41       5.5558      0.00000
     42       6.3417      0.00000
     43       6.4153      0.00000
     44       7.7693      0.00000
     45       7.7968      0.00000
     46       7.8472      0.00000
     47       8.0959      0.00000
     48       8.5919      0.00000
     49       9.3601      0.00000
     50       9.7498      0.00000
     51       9.9253      0.00000
     52      10.2806      0.00000
     53      10.5941      0.00000
     54      10.6349      0.00000
     55      10.8880      0.00000
     56      11.2568      0.00000
     57      11.2866      0.00000
     58      11.5147      0.00000
     59      11.8102      0.00000
     60      12.0974      0.00000
     61      12.4741      0.00000
     62      12.8043      0.00000
     63      12.9161      0.00000
     64      13.3904      0.00000
     65      13.4693      0.00000
     66      13.7356      0.00000
     67      14.2996      0.00000
     68      14.4003      0.00000
     69      14.4243      0.00000
     70      14.5117      0.00000
     71      14.7012      0.00000
     72      14.8862      0.00000
     73      15.2045      0.00000
     74      15.8056      0.00000
     75      15.8741      0.00000
     76      16.2009      0.00000
     77      16.5653      0.00000
     78      16.7061      0.00000
     79      17.0128      0.00000
     80      17.2210      0.00000
     81      17.2996      0.00000
     82      17.7231      0.00000
     83      18.2583      0.00000
     84      18.3119      0.00000
     85      18.8767      0.00000
     86      19.0092      0.00000
     87      19.1373      0.00000
     88      19.2377      0.00000
     89      19.5661      0.00000
     90      19.7052      0.00000
     91      20.0895      0.00000
     92      20.1007      0.00000
     93      20.2395      0.00000
     94      20.7699      0.00000
     95      20.8818      0.00000
     96      21.3383      0.00000
     97      21.4028      0.00000
     98      21.6524      0.00000
     99      22.1371      0.00000
    100      22.2748      0.00000
    101      22.4218      0.00000
    102      22.7686      0.00000
    103      22.7725      0.00000
    104      22.8569      0.00000
    105      23.2489      0.00000
    106      24.2217      0.00000
    107      24.5506      0.00000
    108      25.0325      0.00000
[...]
    108      24.4473      0.00000
    109      24.7185      0.00000
    110      25.1208      0.00000
    111      25.2127      0.00000
    112      25.5284      0.00000
    113      25.6891      0.00000
    114      25.9861      0.00000
    115      26.2259      0.00000
    116      26.4549      0.00000
    117      26.6799      0.00000
    118      26.7780      0.00000
    119      26.8477      0.00000
    120      27.1730      0.00000
    121      27.3811      0.00000
    122      27.7875      0.00000
    123      27.9923      0.00000
    124      28.3759      0.00000
    125      28.4250      0.00000
    126      28.8204      0.00000
    127      29.0330      0.00000
    128      29.2030      0.00000

 k-point    42 :       0.4286    0.3333    0.5000
  band No.  band energies     occupation 
      1     -20.6076      2.00000
      2     -20.5810      2.00000
      3     -20.5615      2.00000
      4     -20.5339      2.00000
      5     -17.2916      2.00000
      6     -17.2131      2.00000
      7     -17.1847      2.00000
      8     -17.0765      2.00000
      9     -10.3194      2.00000
     10     -10.2955      2.00000
     11      -9.7903      2.00000
     12      -9.7719      2.00000
     13      -8.5454      2.00000
     14      -8.4216      2.00000
     15      -8.1802      2.00000
     16      -8.0243      2.00000
     17      -7.2432      2.00000
     18      -7.2035      2.00000
     19      -6.2088      2.00000
     20      -6.1073      2.00000
     21      -5.4442      2.00000
     22      -5.3220      2.00000
     23      -5.1774      2.00000
     24      -5.1482      2.00000
     25      -4.9773      2.00000
     26      -4.8390      2.00000
     27      -4.7045      2.00000
     28      -4.4384      2.00000
     29      -2.0246      2.00000
     30      -1.8506      2.00000
     31      -1.6997      2.00000
     32      -1.5664      2.00000
     33      -1.4567      2.00000
     34      -1.3688      2.00000
     35      -0.7955      2.00000
     36      -0.7623      2.00000
     37       4.0035      0.00000
     38       4.0562      0.00000
     39       4.3869      0.00000
     40       4.4734      0.00000
     41       6.2566      0.00000
     42       6.7804      0.00000
     43       7.7683      0.00000
     44       7.8409      0.00000
     45       8.2338      0.00000
     46       8.5924      0.00000
     47       8.7487      0.00000
     48       8.8919      0.00000
     49       9.0840      0.00000
     50       9.1684      0.00000
     51       9.3710      0.00000
     52       9.6758      0.00000
     53      10.1415      0.00000
     54      10.4570      0.00000
     55      10.5462      0.00000
     56      10.7495      0.00000
     57      11.4652      0.00000
     58      11.4749      0.00000
     59      11.9156      0.00000
     60      12.0180      0.00000
     61      12.3695      0.00000
     62      12.5273      0.00000
     63      12.8734      0.00000
     64      12.8912      0.00000
     65      13.4975      0.00000
     66      13.5625      0.00000
     67      14.0085      0.00000
     68      14.1437      0.00000
     69      14.3105      0.00000
     70      14.4969      0.00000
     71      15.2161      0.00000
     72      15.4284      0.00000
     73      15.7621      0.00000
     74      15.8585      0.00000
     75      16.1964      0.00000
     76      16.4153      0.00000
     77      16.7073      0.00000
     78      16.7674      0.00000
     79      17.2555      0.00000
     80      17.7399      0.00000
     81      18.0623      0.00000
     82      18.3453      0.00000
     83      18.3885      0.00000
     84      18.6877      0.00000
     85      19.1688      0.00000
     86      19.5923      0.00000
     87      20.3362      0.00000
     88      20.4964      0.00000
     89      20.6780      0.00000
     90      20.7979      0.00000
     91      21.2590      0.00000
     92      21.3732      0.00000
     93      21.5446      0.00000
     94      21.7347      0.00000
     95      22.0754      0.00000
     96      22.1964      0.00000
     97      22.4691      0.00000
     98      22.6487      0.00000
     99      22.7706      0.00000
    100      23.0939      0.00000
    101      23.2234      0.00000
    102      23.4280      0.00000
    103      23.7801      0.00000
    104      23.8891      0.00000
    105      23.9996      0.00000
    106      24.4599      0.00000
    107      24.5299      0.00000
    108      24.7796      0.00000
    109      25.1215      0.00000
    110      25.2810      0.00000
    111      25.5443      0.00000
    112      25.7490      0.00000
    113      25.9089      0.00000
    114      25.9974      0.00000
    115      26.2578      0.00000
    116      26.7227      0.00000
    117      26.8211      0.00000
    118      27.0559      0.00000
    119      27.2345      0.00000
    120      27.3166      0.00000
    121      27.5149      0.00000
    122      27.6046      0.00000
    123      28.0581      0.00000
    124      28.2456      0.00000
    125      28.4335      0.00000
    126      28.7219      0.00000
    127      28.9366      0.00000
    128      29.0371      0.00000

 k-point    43 :      -0.4286    0.3333    0.5000
  band No.  band energies     occupation 
      1     -20.6076      2.00000
      2     -20.5810      2.00000
      3     -20.5615      2.00000
      4     -20.5339      2.00000
      5     -17.2916      2.00000
      6     -17.2132      2.00000
      7     -17.1847      2.00000
      8     -17.0765      2.00000
      9     -10.3194      2.00000
     10     -10.2955      2.00000
     11      -9.7903      2.00000
     12      -9.7718      2.00000
     13      -8.5454      2.00000
     14      -8.4216      2.00000
     15      -8.1802      2.00000
     16      -8.0243      2.00000
     17      -7.2432      2.00000
     18      -7.2035      2.00000
     19      -6.2088      2.00000
     20      -6.1073      2.00000
     21      -5.4441      2.00000
     22      -5.3222      2.00000
     23      -5.1773      2.00000
     24      -5.1482      2.00000
     25      -4.9773      2.00000
     26      -4.8390      2.00000
     27      -4.7045      2.00000
     28      -4.4385      2.00000
     29      -2.0246      2.00000
     30      -1.8506      2.00000
     31      -1.6997      2.00000
     32      -1.5664      2.00000
     33      -1.4567      2.00000
     34      -1.3688      2.00000
     35      -0.7955      2.00000
     36      -0.7623      2.00000
     37       4.0035      0.00000
     38       4.0562      0.00000
     39       4.3869      0.00000
     40       4.4734      0.00000
     41       6.2566      0.00000
     42       6.7804      0.00000
     43       7.7682      0.00000
     44       7.8409      0.00000
     45       8.2337      0.00000
     46       8.5924      0.00000
     47       8.7487      0.00000
     48       8.8919      0.00000
     49       9.0841      0.00000
     50       9.1685      0.00000
     51       9.3710      0.00000
     52       9.6757      0.00000
     53      10.1416      0.00000
     54      10.4570      0.00000
     55      10.5462      0.00000
     56      10.7495      0.00000
     57      11.4651      0.00000
     58      11.4749      0.00000
     59      11.9154      0.00000
     60      12.0180      0.00000
     61      12.3695      0.00000
     62      12.5274      0.00000
     63      12.8734      0.00000
     64      12.8913      0.00000
     65      13.4976      0.00000
     66      13.5625      0.00000
     67      14.0085      0.00000
     68      14.1436      0.00000
     69      14.3106      0.00000
     70      14.4968      0.00000
     71      15.2160      0.00000
     72      15.4285      0.00000
     73      15.7621      0.00000
     74      15.8586      0.00000
     75      16.1961      0.00000
     76      16.4153      0.00000
     77      16.7073      0.00000
     78      16.7674      0.00000
     79      17.2556      0.00000
     80      17.7400      0.00000
     81      18.0622      0.00000
     82      18.3452      0.00000
     83      18.3886      0.00000
     84      18.6877      0.00000
     85      19.1688      0.00000
     86      19.5922      0.00000
     87      20.3362      0.00000
     88      20.4965      0.00000
     89      20.6780      0.00000
     90      20.7979      0.00000
     91      21.2590      0.00000
     92      21.3733      0.00000
     93      21.5446      0.00000
     94      21.7346      0.00000
     95      22.0755      0.00000
     96      22.1964      0.00000
     97      22.4692      0.00000
     98      22.6487      0.00000
     99      22.7706      0.00000
    100      23.0939      0.00000
    101      23.2234      0.00000
    102      23.4280      0.00000
    103      23.7802      0.00000
    104      23.8892      0.00000
    105      23.9995      0.00000
    106      24.4599      0.00000
    107      24.5299      0.00000
    108      24.7795      0.00000
    109      25.1215      0.00000
    110      25.2809      0.00000
    111      25.5443      0.00000
    112      25.7491      0.00000
    113      25.9090      0.00000
    114      25.9975      0.00000
    115      26.2578      0.00000
    116      26.7227      0.00000
    117      26.8210      0.00000
    118      27.0558      0.00000
    119      27.2346      0.00000
    120      27.3166      0.00000
    121      27.5148      0.00000
    122      27.6046      0.00000
    123      28.0582      0.00000
    124      28.2457      0.00000
    125      28.4334      0.00000
    126      28.7216      0.00000
    127      28.9366      0.00000
    128      29.0369      0.00000


--------------------------------------------------------------------------------------------------------


 soft charge-density along one line, spin component           1
         0         1         2         3         4         5         6         7         8         9
 total charge-density along one line

 pseudopotential strength for first ion, spin component:           1
 12.578  21.165  -0.002  -0.008   0.005  -0.004  -0.014   0.009
 21.165  35.612  -0.004  -0.014   0.008  -0.007  -0.024   0.014
 -0.002  -0.004  -3.233   0.000  -0.000  -5.791   0.000  -0.000
 -0.008  -0.014   0.000  -3.232  -0.001   0.000  -5.789  -0.001
  0.005   0.008  -0.000  -0.001  -3.233  -0.000  -0.001  -5.791
 -0.004  -0.007  -5.791   0.000  -0.000 -10.353   0.001   0.000
 -0.014  -0.024   0.000  -5.789  -0.001   0.001 -10.349  -0.002
  0.009   0.014  -0.000  -0.001  -5.791   0.000  -0.002 -10.352
 total augmentation occupancy for first ion, spin component:           1
  6.947  -2.423  -0.926  -1.053   0.917   0.464   0.482  -0.434
 -2.423   0.941   0.502   0.550  -0.483  -0.246  -0.229   0.216
 -0.926   0.502   7.562  -1.032  -1.754  -2.697   0.436   0.719
 -1.053   0.550  -1.032   5.284  -0.831   0.436  -1.622   0.277
  0.917  -0.483  -1.754  -0.831   3.539   0.719   0.277  -1.012
  0.464  -0.246  -2.697   0.436   0.719   1.000  -0.174  -0.294
  0.482  -0.229   0.436  -1.622   0.277  -0.174   0.516  -0.093
 -0.434   0.216   0.719   0.277  -1.012  -0.294  -0.093   0.307


------------------------ aborting loop because EDIFF is reached ----------------------------------------


    FORLOC:  cpu time      0.0050: real time      0.0050
    FORNL :  cpu time      1.0861: real time      1.0868
    FORCOR:  cpu time      0.1100: real time      0.1100
    OFIELD:  cpu time      0.0034: real time      0.0036
 WARNING: Using user supplied parameters
     VDW_S8 = 1.682
     VDW_SR = 1.094
     because the xc functional is not supported. Required parameters not
     defined in the INCAR file will be replaced with PBE defaults ones.


 ---------------------------------------------------------------------------------------------

         DFTD3 V3.0 Rev 1        
 IVDW         = 11
 DF unknown   
 parameters
 VDW_S6       =    1.0000
 VDW_S8       =    1.6820
 VDW_SR       =    1.0940
 rs18     =    1.0000
 alpha6   =   14.0000
 alpha8   =   16.0000
 k1-k3    =   16.0000    1.3333   -4.0000
 VDW_RADIUS   =   50.2022 A
 VDW_CNRADIUS =   21.1671 A
 Edisp (eV)   -2.24322

 E6    (eV) :    -1.1705
 E8    (eV) :    -1.0727
 % E8        : 47.82
    FORVDW:  cpu time      0.3406: real time      0.3447

 VOLUME and BASIS-vectors are now :
 -----------------------------------------------------------------------------
  energy-cutoff  :     1000.00
  volume of cell :      224.07
      direct lattice vectors                 reciprocal lattice vectors
     3.604000000  0.000000000  0.000000000     0.277469478 -0.000000000  0.051426155
     0.000000000  9.041000000  0.000000000     0.000000000  0.110607234 -0.000000000
    -1.274560000  0.000000000  6.876880000     0.000000000  0.000000000  0.145414781

  length of vectors
     3.604000000  9.041000000  6.993996120     0.282194899  0.110607234  0.145414781


 FORCES acting on ions:
    Electron-Ion                     Ewald-Force                    Non-Local-Force
 -----------------------------------------------------------------------------------------------
   0.599E+02 -.640E+02 -.941E+02   -.629E+02 0.656E+02 0.991E+02   0.287E+01 -.145E+01 -.489E+01
   -.599E+02 0.640E+02 0.941E+02   0.629E+02 -.656E+02 -.991E+02   -.287E+01 0.145E+01 0.489E+01
   -.599E+02 -.640E+02 0.941E+02   0.629E+02 0.656E+02 -.990E+02   -.287E+01 -.145E+01 0.489E+01
   0.599E+02 0.640E+02 -.941E+02   -.629E+02 -.656E+02 0.990E+02   0.287E+01 0.145E+01 -.489E+01
   -.699E+02 0.158E+03 -.345E+02   0.897E+02 -.200E+03 0.339E+02   -.199E+02 0.422E+02 0.631E+00
   0.699E+02 -.158E+03 0.345E+02   -.897E+02 0.200E+03 -.339E+02   0.199E+02 -.422E+02 -.632E+00
   0.699E+02 0.158E+03 0.345E+02   -.897E+02 -.200E+03 -.339E+02   0.199E+02 0.422E+02 -.633E+00
   -.699E+02 -.158E+03 -.345E+02   0.897E+02 0.200E+03 0.339E+02   -.199E+02 -.422E+02 0.631E+00
   0.219E+01 -.102E+03 0.627E+02   -.248E+01 0.105E+03 -.664E+02   0.298E+00 -.299E+01 0.357E+01
   -.220E+01 0.102E+03 -.627E+02   0.249E+01 -.105E+03 0.664E+02   -.298E+00 0.299E+01 -.357E+01
   -.219E+01 -.102E+03 -.627E+02   0.248E+01 0.105E+03 0.664E+02   -.296E+00 -.299E+01 -.357E+01
   0.219E+01 0.102E+03 0.628E+02   -.248E+01 -.105E+03 -.664E+02   0.297E+00 0.299E+01 0.357E+01
   0.183E+02 -.466E+02 -.474E+00   -.212E+02 0.531E+02 0.170E+01   0.293E+01 -.658E+01 -.124E+01
   -.183E+02 0.466E+02 0.474E+00   0.212E+02 -.531E+02 -.170E+01   -.293E+01 0.658E+01 0.124E+01
   -.183E+02 -.466E+02 0.472E+00   0.212E+02 0.531E+02 -.170E+01   -.293E+01 -.658E+01 0.124E+01
   0.183E+02 0.466E+02 -.470E+00   -.212E+02 -.531E+02 0.170E+01   0.293E+01 0.658E+01 -.124E+01
   -.201E+02 -.451E+01 0.451E+02   0.233E+02 0.303E+01 -.513E+02   -.321E+01 0.151E+01 0.628E+01
   0.201E+02 0.452E+01 -.451E+02   -.233E+02 -.304E+01 0.513E+02   0.321E+01 -.151E+01 -.628E+01
   0.201E+02 -.452E+01 -.451E+02   -.233E+02 0.304E+01 0.514E+02   0.321E+01 0.151E+01 -.628E+01
   -.201E+02 0.451E+01 0.451E+02   0.233E+02 -.303E+01 -.513E+02   -.321E+01 -.151E+01 0.628E+01
   0.268E+02 -.160E+02 -.428E+02   -.295E+02 0.175E+02 0.476E+02   0.281E+01 -.161E+01 -.491E+01
   -.268E+02 0.160E+02 0.428E+02   0.295E+02 -.175E+02 -.476E+02   -.281E+01 0.161E+01 0.491E+01
   -.268E+02 -.160E+02 0.428E+02   0.295E+02 0.175E+02 -.476E+02   -.281E+01 -.161E+01 0.491E+01
   0.268E+02 0.160E+02 -.428E+02   -.295E+02 -.175E+02 0.476E+02   0.281E+01 0.161E+01 -.491E+01
 -----------------------------------------------------------------------------------------------
   -.212E-02 -.266E-03 0.358E-02   -.284E-13 -.355E-13 0.497E-13   0.211E-02 0.268E-03 -.357E-02


 POSITION                                       TOTAL-FORCE (eV/Angst)
 -----------------------------------------------------------------------------------
      0.86868      0.49796      1.76957        -0.123626      0.099607      0.173603
      1.46079      8.54304      5.10730         0.124559     -0.101983     -0.172930
      0.29604      5.01836      1.66885         0.124709      0.103125     -0.172668
      2.03338      4.02243      5.20808        -0.124075     -0.100659      0.173497
      1.39099      8.40103      1.70751         0.083365     -0.180564      0.024198
      0.93850      0.63994      5.16937        -0.084186      0.181923     -0.024109
     -0.22627      3.88051      1.73094        -0.084548     -0.183441     -0.024242
      2.55570      5.16033      5.14603         0.084022      0.182124      0.024095
      0.91200      1.41045      0.80489        -0.002286      0.145375     -0.137611
      1.41747      7.63054      6.07200         0.002292     -0.144901      0.136900
      0.25269      5.93089      2.63354         0.003969      0.146713      0.134993
      2.07671      3.10995      4.24339        -0.003550     -0.147017     -0.136275
      0.49812      2.33600      0.97933         0.032565     -0.057757     -0.034555
      1.83132      6.70498      5.89760        -0.032490      0.057756      0.034321
      0.66662      6.85646      2.45910        -0.033241     -0.059123      0.034799
      1.66278      2.18437      4.41784         0.033319      0.059128     -0.034976
      0.10070      1.19157      6.78577        -0.049904      0.044901      0.064367
      2.22877      7.84943      0.09111         0.049779     -0.044812     -0.064127
     -0.21054      5.71203      3.52951         0.049115      0.044484     -0.062945
      2.53995      3.32882      3.34740        -0.049536     -0.044685      0.063728
      0.33434      0.81742      2.68370         0.046885     -0.035882     -0.086024
      1.99515      8.22356      4.19318        -0.047012      0.035971      0.086012
      0.83044      5.33781      0.75474        -0.047004     -0.035897      0.086194
      1.49902      3.70300      6.12222         0.046878      0.035615     -0.086246
 -----------------------------------------------------------------------------------
    total drift:                               -0.000002      0.000002      0.000002


--------------------------------------------------------------------------------------------------------



  FREE ENERGIE OF THE ION-ELECTRON SYSTEM (eV)
  ---------------------------------------------------
  free  energy   TOTEN  =      -140.83844407 eV

  energy  without entropy=     -140.83844407  energy(sigma->0) =     -140.83844407



--------------------------------------------------------------------------------------------------------


    POTLOK:  cpu time      0.1215: real time      0.1215


--------------------------------------------------------------------------------------------------------


 stress matrix after NEB project (eV)
     -3.73849     -0.00001     -0.46711
     -0.00001     -2.69853      0.00003
     -0.46711      0.00003     -2.92449
  FORCES: max atom, RMS     0.236646    0.164089
  FORCE total and by dimension    0.803869    0.183441
  Stress total and by dimension    5.499767    3.738490
     LOOP+:  cpu time    352.7624: real time    353.2885
    4ORBIT:  cpu time      0.0000: real time      0.0000

 total amount of memory used by VASP MPI-rank0   153077. kBytes
=======================================================================

   base      :      30000. kBytes
   nonl-proj :      93323. kBytes
   fftplans  :       4974. kBytes
   grid      :       7572. kBytes
   one-center:         36. kBytes
   wavefun   :      17172. kBytes

  
  
 General timing and accounting informations for this job:
 ========================================================
  
                  Total CPU time used (sec):      378.912
                            User time (sec):      376.857
                          System time (sec):        2.055
                         Elapsed time (sec):      382.795
  
                   Maximum memory used (kb):      395048.
                   Average memory used (kb):          N/A
  
                          Minor page faults:        65634
                          Major page faults:         1195
                 Voluntary context switches:         6064
