 vasp.6.4.1 05Apr23 (build Jun  6 2023 14:36:51) complex                         
 executed on        HPECrayEX_GCC date 2024.08.20  14:18:08
 running  256 mpi-ranks, with    1 threads/rank, on    2 nodes
 distrk:  each k-point on  256 cores,    1 groups
 distr:  one band on NCORE=   2 cores,  128 groups


--------------------------------------------------------------------------------------------------------


 INCAR:
   ALGO = Conjugate
   NCORE = 2
   PREC = Accurate
   EDIFF = 1E-7
   ENCUT = 1000
   ISMEAR = 0
   SIGMA = 0.01
   ISIF = 0
   SYMPREC = 1E-7
   GGA = RP
   IVDW = 11
   LWAVE = .FALSE.
   LCHARGE = .FALSE.
   LWAVE = .FALSE.
   LCHARGE = .FALSE.

 POTCAR:    PAW_PBE C_h 06Feb2004                 
 POTCAR:    PAW_PBE O_h 06Feb2004                 
 POTCAR:    PAW_PBE N_h 06Feb2004                 
 POTCAR:    PAW_PBE H_h 06Feb2004                 
 POTCAR:    PAW_PBE C_h 06Feb2004                 
   VRHFIN =C: s2p2                                                                                  
   LEXCH  = PE                                                                                      
   EATOM  =   147.1560 eV,   10.8157 Ry                                                             
                                                                                                    
   TITEL  = PAW_PBE C_h 06Feb2004                                                                   
   LULTRA =        F    use ultrasoft PP ?                                                          
   IUNSCR =        1    unscreen: 0-lin 1-nonlin 2-no                                               
   RPACOR =    0.800    partial core radius                                                         
   POMASS =   12.011; ZVAL   =    4.000    mass and valenz                                          
   RCORE  =    1.100    outmost cutoff radius                                                       
   RWIGS  =    1.630; RWIGS  =    0.863    wigner-seitz radius (au A)                               
   ENMAX  =  700.000; ENMIN  =  500.000 eV                                                          
   ICORE  =        2    local potential                                                             
   LCOR   =        T    correct aug charges                                                         
   LPAW   =        T    paw PP                                                                      
   EAUG   =  946.768                                                                                
   DEXC   =    0.000                                                                                
   RMAX   =    1.128    core radius for proj-oper                                                   
   RAUG   =    1.300    factor for augmentation sphere                                              
   RDEP   =    1.162    radius for radial grids                                                     
   RDEPT  =    1.088    core radius for aug-charge                                                  
                                                                                                    
   Atomic configuration                                                                             
    4 entries                                                                                       
     n  l   j            E        occ.                                                              
     1  0  0.50      -273.3789   2.0000                                                             
     2  0  0.50       -13.7508   2.0000                                                             
     2  1  0.50        -5.2854   2.0000                                                             
     3  2  1.50        -5.4423   0.0000                                                             
   Description                                                                                      
     l       E           TYP  RCUT    TYP  RCUT                                                     
     0    -13.7508458     23  1.100                                                                 
     0     -8.2022199     23  1.100                                                                 
     1     -5.2854383     23  1.100                                                                 
     1      1.1560700     23  1.100                                                                 
     2     -5.4423304      7  1.100                                                                 
  local pseudopotential read in
  partial core-charges read in
  partial kinetic energy density read in
  atomic valenz-charges read in
  non local Contribution for L=           0  read in
    real space projection operators read in
  non local Contribution for L=           0  read in
    real space projection operators read in
  non local Contribution for L=           1  read in
    real space projection operators read in
  non local Contribution for L=           1  read in
    real space projection operators read in
    PAW grid and wavefunctions read in

   number of l-projection  operators is LMAX  =           4
   number of lm-projection operators is LMMAX =           8

 POTCAR:    PAW_PBE O_h 06Feb2004                 
   VRHFIN =O: s2p4                                                                                  
   LEXCH  = PE                                                                                      
   EATOM  =   432.3788 eV,   31.7789 Ry                                                             
                                                                                                    
   TITEL  = PAW_PBE O_h 06Feb2004                                                                   
   LULTRA =        F    use ultrasoft PP ?                                                          
   IUNSCR =        1    unscreen: 0-lin 1-nonlin 2-no                                               
   RPACOR =    0.800    partial core radius                                                         
   POMASS =   16.000; ZVAL   =    6.000    mass and valenz                                          
   RCORE  =    1.100    outmost cutoff radius                                                       
   RWIGS  =    1.400; RWIGS  =    0.741    wigner-seitz radius (au A)                               
   ENMAX  =  700.000; ENMIN  =  500.000 eV                                                          
   ICORE  =        2    local potential                                                             
   LCOR   =        T    correct aug charges                                                         
   LPAW   =        T    paw PP                                                                      
   EAUG   =  888.804                                                                                
   DEXC   =    0.000                                                                                
   RMAX   =    1.128    core radius for proj-oper                                                   
   RAUG   =    1.300    factor for augmentation sphere                                              
   RDEP   =    1.125    radius for radial grids                                                     
   RDEPT  =    1.088    core radius for aug-charge                                                  
                                                                                                    
   Atomic configuration                                                                             
    4 entries                                                                                       
     n  l   j            E        occ.                                                              
     1  0  0.50      -514.6923   2.0000                                                             
     2  0  0.50       -23.9615   2.0000                                                             
     2  1  0.50        -9.0305   4.0000                                                             
     3  2  1.50        -9.5241   0.0000                                                             
   Description                                                                                      
     l       E           TYP  RCUT    TYP  RCUT                                                     
     0    -23.9615319     23  1.100                                                                 
     0    -25.3221145     23  1.100                                                                 
     1     -9.0304911     23  1.100                                                                 
     1     -5.4802209     23  1.100                                                                 
     2     -9.5240782      7  1.100                                                                 
  local pseudopotential read in
  partial core-charges read in
  partial kinetic energy density read in
  atomic valenz-charges read in
  non local Contribution for L=           0  read in
    real space projection operators read in
  non local Contribution for L=           0  read in
    real space projection operators read in
  non local Contribution for L=           1  read in
    real space projection operators read in
  non local Contribution for L=           1  read in
    real space projection operators read in
    PAW grid and wavefunctions read in

   number of l-projection  operators is LMAX  =           4
   number of lm-projection operators is LMMAX =           8

 POTCAR:    PAW_PBE N_h 06Feb2004                 
   VRHFIN =N: s2p3                                                                                  
   LEXCH  = PE                                                                                      
   EATOM  =   264.5486 eV,   19.4438 Ry                                                             
                                                                                                    
   TITEL  = PAW_PBE N_h 06Feb2004                                                                   
   LULTRA =        F    use ultrasoft PP ?                                                          
   IUNSCR =        1    unscreen: 0-lin 1-nonlin 2-no                                               
   RPACOR =    0.800    partial core radius                                                         
   POMASS =   14.001; ZVAL   =    5.000    mass and valenz                                          
   RCORE  =    1.100    outmost cutoff radius                                                       
   RWIGS  =    1.480; RWIGS  =    0.783    wigner-seitz radius (au A)                               
   ENMAX  =  700.000; ENMIN  =  500.000 eV                                                          
   ICORE  =        2    local potential                                                             
   LCOR   =        T    correct aug charges                                                         
   LPAW   =        T    paw PP                                                                      
   EAUG   =  904.640                                                                                
   DEXC   =    0.000                                                                                
   RMAX   =    1.127    core radius for proj-oper                                                   
   RAUG   =    1.300    factor for augmentation sphere                                              
   RDEP   =    1.115    radius for radial grids                                                     
   RDEPT  =    1.106    core radius for aug-charge                                                  
                                                                                                    
   Atomic configuration                                                                             
    4 entries                                                                                       
     n  l   j            E        occ.                                                              
     1  0  0.50      -384.7179   2.0000                                                             
     2  0  0.50       -18.5828   2.0000                                                             
     2  1  0.50        -7.0898   3.0000                                                             
     3  2  1.50        -6.8029   0.0000                                                             
   Description                                                                                      
     l       E           TYP  RCUT    TYP  RCUT                                                     
     0    -18.5828117     23  1.100                                                                 
     0    -15.0750597     23  1.100                                                                 
     1     -7.0897851     23  1.100                                                                 
     1     -1.9663412     23  1.100                                                                 
     2     -6.8029130      7  1.100                                                                 
  local pseudopotential read in
  partial core-charges read in
  partial kinetic energy density read in
  kinetic energy density of atom read in
  atomic valenz-charges read in
  non local Contribution for L=           0  read in
    real space projection operators read in
  non local Contribution for L=           0  read in
    real space projection operators read in
  non local Contribution for L=           1  read in
    real space projection operators read in
  non local Contribution for L=           1  read in
    real space projection operators read in
    PAW grid and wavefunctions read in

   number of l-projection  operators is LMAX  =           4
   number of lm-projection operators is LMMAX =           8

 POTCAR:    PAW_PBE H_h 06Feb2004                 
   VRHFIN =H: ultrasoft test                                                                        
   LEXCH  = PE                                                                                      
   EATOM  =    12.4884 eV,    0.9179 Ry                                                             
                                                                                                    
   TITEL  = PAW_PBE H_h 06Feb2004                                                                   
   LULTRA =        F    use ultrasoft PP ?                                                          
   IUNSCR =        0    unscreen: 0-lin 1-nonlin 2-no                                               
   RPACOR =    0.000    partial core radius                                                         
   POMASS =    1.000; ZVAL   =    1.000    mass and valenz                                          
   RCORE  =    0.800    outmost cutoff radius                                                       
   RWIGS  =    0.700; RWIGS  =    0.370    wigner-seitz radius (au A)                               
   ENMAX  =  700.000; ENMIN  =  350.000 eV                                                          
   RCLOC  =    0.701    cutoff for local pot                                                        
   LCOR   =        T    correct aug charges                                                         
   LPAW   =        T    paw PP                                                                      
   EAUG   = 1000.000                                                                                
   RMAX   =    0.819    core radius for proj-oper                                                   
   RAUG   =    1.000    factor for augmentation sphere                                              
   RDEP   =    0.817    radius for radial grids                                                     
   RDEPT  =    0.817    core radius for aug-charge                                                  
                                                                                                    
   Atomic configuration                                                                             
    2 entries                                                                                       
     n  l   j            E        occ.                                                              
     1  0  0.50        -6.4927   1.0000                                                             
     2  1  0.50        -3.4015   0.0000                                                             
   Description                                                                                      
     l       E           TYP  RCUT    TYP  RCUT                                                     
     0     -6.4927493     23  0.800                                                                 
     0      6.8029130     23  0.800                                                                 
     1     -6.8029130     23  0.800                                                                 
  local pseudopotential read in
  atomic valenz-charges read in
  non local Contribution for L=           0  read in
    real space projection operators read in
  non local Contribution for L=           0  read in
    real space projection operators read in
  non local Contribution for L=           1  read in
    real space projection operators read in
    PAW grid and wavefunctions read in

   number of l-projection  operators is LMAX  =           3
   number of lm-projection operators is LMMAX =           5

 -----------------------------------------------------------------------------
|                                                                             |
|               ----> ADVICE to this user running VASP <----                  |
|                                                                             |
|     You have a (more or less) 'large supercell' and for larger cells it     |
|     might be more efficient to use real-space projection operators.         |
|     Therefore, try LREAL= Auto in the INCAR file.                           |
|     Mind: For very accurate calculation, you might also keep the            |
|     reciprocal projection scheme (i.e. LREAL=.FALSE.).                      |
|                                                                             |
 -----------------------------------------------------------------------------

 -----------------------------------------------------------------------------
|                                                                             |
|               ----> ADVICE to this user running VASP <----                  |
|                                                                             |
|     You enforced a specific xc type in the INCAR file but a different       |
|     type was found in the POTCAR file.                                      |
|     I HOPE YOU KNOW WHAT YOU ARE DOING!                                     |
|                                                                             |
 -----------------------------------------------------------------------------

  PAW_PBE C_h 06Feb2004                 :
 energy of atom  1       EATOM= -147.1560
 kinetic energy error for atom=    0.0031 (will be added to EATOM!!)
  PAW_PBE O_h 06Feb2004                 :
 energy of atom  2       EATOM= -432.3788
 kinetic energy error for atom=    0.0171 (will be added to EATOM!!)
  PAW_PBE N_h 06Feb2004                 :
 energy of atom  3       EATOM= -264.5486
 kinetic energy error for atom=    0.0081 (will be added to EATOM!!)
  PAW_PBE H_h 06Feb2004                 :
 energy of atom  4       EATOM=  -12.4884
 kinetic energy error for atom=    0.0006 (will be added to EATOM!!)


 POSCAR:  C  O  N  H
  positions in cartesian coordinates
  No initial velocities read in
 exchange correlation table for  LEXCH =        9
   RHO(1)=    0.500       N(1)  =     2000
   RHO(2)=  100.500       N(2)  =     4000

 VTST: version 4.1, (05/19/21)

 CHAIN: initializing optimizer
 
 OPT: Using VASP Dynamics algorithm
 CHAIN: Read ICHAIN            0

 POSCAR:  C  O  N  H
  positions in cartesian coordinates
  No initial velocities read in



--------------------------------------------------------------------------------------------------------


 ion  position               nearest neighbor table
   1  0.332  0.055  0.257-  21 1.11   5 1.25   9 1.33
   2  0.668  0.945  0.743-  22 1.11   6 1.25  10 1.33
   3  0.168  0.555  0.243-  23 1.11   7 1.25  11 1.33
   4  0.832  0.445  0.757-  24 1.11   8 1.25  12 1.33
   5  0.474  0.929  0.248-   1 1.25
   6  0.526  0.071  0.752-   2 1.25
   7  0.026  0.429  0.252-   3 1.25
   8  0.974  0.571  0.748-   4 1.25
   9  0.294  0.156  0.117-  13 1.03  17 1.03   1 1.33
  10  0.706  0.844  0.883-  14 1.03  18 1.03   2 1.33
  11  0.206  0.656  0.383-  15 1.03  19 1.03   3 1.33
  12  0.794  0.344  0.617-  16 1.03  20 1.03   4 1.33
  13  0.189  0.258  0.142-   9 1.03
  14  0.811  0.742  0.858-  10 1.03
  15  0.311  0.758  0.358-  11 1.03
  16  0.689  0.242  0.642-  12 1.03
  17  0.377  0.132  0.987-   9 1.03
  18  0.623  0.868  0.013-  10 1.03
  19  0.123  0.632  0.513-  11 1.03
  20  0.877  0.368  0.487-  12 1.03
  21  0.231  0.090  0.390-   1 1.11
  22  0.769  0.910  0.610-   2 1.11
  23  0.269  0.590  0.110-   3 1.11
  24  0.731  0.410  0.890-   4 1.11

  LATTYP: Found a simple monoclinic cell.
 ALAT       =     3.6040000000
 B/A-ratio  =     2.5086015538
 C/A-ratio  =     1.9406204551
 COS(beta)  =    -0.1822363036
  
  Lattice vectors:
  
 A1 = (   3.6040000000,   0.0000000000,   0.0000000000)
 A2 = (   0.0000000000,   9.0410000000,   0.0000000000)
 A3 = (  -1.2745600000,   0.0000000000,   6.8768800000)


Analysis of symmetry for initial positions (statically):
=====================================================================
 Subroutine PRICEL returns:
 Original cell was already a primitive cell.
 

 Routine SETGRP: Setting up the symmetry group for a 
 simple monoclinic supercell.


 Subroutine GETGRP returns: Found  1 space group operations
 (whereof  1 operations were pure point group operations)
 out of a pool of  4 trial point group operations.


The static configuration has the point symmetry C_1 .


Analysis of symmetry for dynamics (positions and initial velocities):
=====================================================================
 Subroutine PRICEL returns:
 Original cell was already a primitive cell.
 

 Routine SETGRP: Setting up the symmetry group for a 
 simple monoclinic supercell.


 Subroutine GETGRP returns: Found  1 space group operations
 (whereof  1 operations were pure point group operations)
 out of a pool of  4 trial point group operations.


The dynamic configuration has the point symmetry C_1 .


 Subroutine INISYM returns: Found  1 space group operations
 (whereof  1 operations are pure point group operations),
 and found     1 'primitive' translations


----------------------------------------------------------------------------------------

                                     Primitive cell                                     

  volume of cell :     224.0746

  direct lattice vectors                    reciprocal lattice vectors
     3.604000000  0.000000000  0.000000000     0.277469478 -0.000000000  0.051426155
     0.000000000  9.041000000  0.000000000     0.000000000  0.110607234 -0.000000000
    -1.274560000  0.000000000  6.876880000     0.000000000  0.000000000  0.145414781

  length of vectors
     3.604000000  9.041000000  6.993996120     0.282194899  0.110607234  0.145414781

  position of ions in fractional coordinates (direct lattice)
     0.332035180  0.055078096  0.257321301
     0.667972969  0.944921904  0.742676847
     0.167965676  0.555067450  0.242675853
     0.832033720  0.444910090  0.757331833
     0.473768378  0.929215195  0.248297155
     0.526246655  0.070782293  0.751702361
     0.026231264  0.429212025  0.251703950
     0.973768736  0.570769425  0.748309174
     0.294445496  0.156005827  0.117042932
     0.705565224  0.843993451  0.882958795
     0.205547460  0.655999348  0.382955471
     0.794445909  0.343982590  0.617051648
     0.188576548  0.258378242  0.142409120
     0.811427489  0.741619094  0.857598341
     0.311430078  0.758374237  0.357589341
     0.688563440  0.241607514  0.642419811
     0.376907556  0.131796327  0.986750688
     0.623100706  0.868203990  0.013249312
     0.123091887  0.631792104  0.513242412
     0.876903280  0.368191668  0.486762024
     0.230780242  0.090412467  0.390248948
     0.769233524  0.909585154  0.609751050
     0.269234465  0.590400611  0.109750112
     0.730775104  0.409578996  0.890260578

  ion indices of the primitive-cell ions
   primitive index   ion index
                 1           1
                 2           2
                 3           3
                 4           4
                 5           5
                 6           6
                 7           7
                 8           8
                 9           9
                10          10
                11          11
                12          12
                13          13
                14          14
                15          15
                16          16
                17          17
                18          18
                19          19
                20          20
                21          21
                22          22
                23          23
                24          24

----------------------------------------------------------------------------------------



 KPOINTS: auto                                    

Automatic generation of k-mesh.
 Grid dimensions read from file:
 generate k-points for:    7    3    4

 Generating k-lattice:

  Cartesian coordinates                     Fractional coordinates (reciprocal lattice)
     0.039638497 -0.000000000  0.007346594     0.142857143  0.000000000 -0.000000000
     0.000000000  0.036869078 -0.000000000     0.000000000  0.333333333  0.000000000
     0.000000000  0.000000000  0.036353695     0.000000000  0.000000000  0.250000000

  Length of vectors
     0.040313557  0.036869078  0.036353695

  Shift w.r.t. Gamma in fractional coordinates (k-lattice)
     0.000000000  0.000000000  0.000000000

 
 Subroutine IBZKPT returns following result:
 ===========================================
 
 Found     43 irreducible k-points:
 
 Following reciprocal coordinates:
            Coordinates               Weight
  0.000000  0.000000  0.000000      1.000000
  0.142857  0.000000  0.000000      2.000000
  0.285714  0.000000  0.000000      2.000000
  0.428571  0.000000  0.000000      2.000000
  0.000000  0.333333  0.000000      2.000000
  0.142857  0.333333  0.000000      2.000000
 -0.142857  0.333333  0.000000      2.000000
  0.285714  0.333333  0.000000      2.000000
 -0.285714  0.333333  0.000000      2.000000
  0.428571  0.333333  0.000000      2.000000
 -0.428571  0.333333  0.000000      2.000000
  0.000000  0.000000  0.250000      2.000000
  0.142857  0.000000  0.250000      2.000000
  0.285714  0.000000  0.250000      2.000000
  0.428571  0.000000  0.250000      2.000000
 -0.428571  0.000000  0.250000      2.000000
 -0.285714  0.000000  0.250000      2.000000
 -0.142857  0.000000  0.250000      2.000000
  0.000000  0.333333  0.250000      2.000000
  0.000000  0.333333 -0.250000      2.000000
  0.142857  0.333333  0.250000      2.000000
 -0.142857  0.333333 -0.250000      2.000000
  0.285714  0.333333  0.250000      2.000000
 -0.285714  0.333333 -0.250000      2.000000
  0.428571  0.333333  0.250000      2.000000
 -0.428571  0.333333 -0.250000      2.000000
 -0.428571  0.333333  0.250000      2.000000
  0.428571  0.333333 -0.250000      2.000000
 -0.285714  0.333333  0.250000      2.000000
  0.285714  0.333333 -0.250000      2.000000
 -0.142857  0.333333  0.250000      2.000000
  0.142857  0.333333 -0.250000      2.000000
  0.000000  0.000000  0.500000      1.000000
  0.142857  0.000000  0.500000      2.000000
  0.285714  0.000000  0.500000      2.000000
  0.428571  0.000000  0.500000      2.000000
  0.000000  0.333333  0.500000      2.000000
  0.142857  0.333333  0.500000      2.000000
 -0.142857  0.333333  0.500000      2.000000
  0.285714  0.333333  0.500000      2.000000
 -0.285714  0.333333  0.500000      2.000000
  0.428571  0.333333  0.500000      2.000000
 -0.428571  0.333333  0.500000      2.000000
 
 Following cartesian coordinates:
            Coordinates               Weight
  0.000000  0.000000  0.000000      1.000000
  0.039638  0.000000  0.007347      2.000000
  0.079277  0.000000  0.014693      2.000000
  0.118915  0.000000  0.022040      2.000000
  0.000000  0.036869  0.000000      2.000000
  0.039638  0.036869  0.007347      2.000000
 -0.039638  0.036869 -0.007347      2.000000
  0.079277  0.036869  0.014693      2.000000
 -0.079277  0.036869 -0.014693      2.000000
  0.118915  0.036869  0.022040      2.000000
 -0.118915  0.036869 -0.022040      2.000000
  0.000000  0.000000  0.036354      2.000000
  0.039638  0.000000  0.043700      2.000000
  0.079277  0.000000  0.051047      2.000000
  0.118915  0.000000  0.058393      2.000000
 -0.118915  0.000000  0.014314      2.000000
 -0.079277  0.000000  0.021661      2.000000
 -0.039638  0.000000  0.029007      2.000000
  0.000000  0.036869  0.036354      2.000000
  0.000000  0.036869 -0.036354      2.000000
  0.039638  0.036869  0.043700      2.000000
 -0.039638  0.036869 -0.043700      2.000000
  0.079277  0.036869  0.051047      2.000000
 -0.079277  0.036869 -0.051047      2.000000
  0.118915  0.036869  0.058393      2.000000
 -0.118915  0.036869 -0.058393      2.000000
 -0.118915  0.036869  0.014314      2.000000
  0.118915  0.036869 -0.014314      2.000000
 -0.079277  0.036869  0.021661      2.000000
  0.079277  0.036869 -0.021661      2.000000
 -0.039638  0.036869  0.029007      2.000000
  0.039638  0.036869 -0.029007      2.000000
  0.000000  0.000000  0.072707      1.000000
  0.039638  0.000000  0.080054      2.000000
  0.079277  0.000000  0.087401      2.000000
  0.118915  0.000000  0.094747      2.000000
  0.000000  0.036869  0.072707      2.000000
  0.039638  0.036869  0.080054      2.000000
 -0.039638  0.036869  0.065361      2.000000
  0.079277  0.036869  0.087401      2.000000
 -0.079277  0.036869  0.058014      2.000000
  0.118915  0.036869  0.094747      2.000000
 -0.118915  0.036869  0.050668      2.000000
 


--------------------------------------------------------------------------------------------------------




 Dimension of arrays:
   k-points           NKPTS =     43   k-points in BZ     NKDIM =     43   number of bands    NBANDS=    128
   number of dos      NEDOS =    301   number of ions     NIONS =     24
   non local maximal  LDIM  =      4   non local SUM 2l+1 LMDIM =      8
   total plane-waves  NPLWV = 276480
   max r-space proj   IRMAX =      1   max aug-charges    IRDMAX=   9197
   dimension x,y,z NGX =    40 NGY =   96 NGZ =   72
   dimension x,y,z NGXF=    80 NGYF=  192 NGZF=  144
   support grid    NGXF=    80 NGYF=  192 NGZF=  144
   ions per type =               4   4   4  12
   NGX,Y,Z   is equivalent  to a cutoff of  18.45, 17.65, 17.11 a.u.
   NGXF,Y,Z  is equivalent  to a cutoff of  36.90, 35.30, 34.23 a.u.

 SYSTEM =  unknown system                          
 POSCAR =   C  O  N  H                             

 Startparameter for this run:
   NWRITE =      2    write-flag & timer
   PREC   = accura    normal or accurate (medium, high low for compatibility)
   ISTART =      0    job   : 0-new  1-cont  2-samecut
   ICHARG =      2    charge: 1-file 2-atom 10-const
   ISPIN  =      1    spin polarized calculation?
   LNONCOLLINEAR =      F non collinear calculations
   LSORBIT =      F    spin-orbit coupling
   INIWAV =      1    electr: 0-lowe 1-rand  2-diag
   LASPH  =      F    aspherical Exc in radial PAW
 Electronic Relaxation 1
   ENCUT  = 1000.0 eV  73.50 Ry    8.57 a.u.   9.29 23.31 18.03*2*pi/ulx,y,z
   ENINI  = 1000.0     initial cutoff
   ENAUG  = 1000.0 eV  augmentation charge cutoff
   NELM   =     60;   NELMIN=  2; NELMDL= -5     # of ELM steps 
   EDIFF  = 0.1E-06   stopping-criterion for ELM
   LREAL  =      F    real-space projection
   NLSPLINE    = F    spline interpolate recip. space projectors
   LCOMPAT=      F    compatible to vasp.4.4
   GGA_COMPAT  = T    GGA compatible to vasp.4.4-vasp.4.6
   LMAXPAW     = -100 max onsite density
   LMAXMIX     =    2 max onsite mixed and CHGCAR
   VOSKOWN=      0    Vosko Wilk Nusair interpolation
   ROPT   =    0.00000   0.00000   0.00000   0.00000
 Ionic relaxation
   EDIFFG = 0.1E-05   stopping-criterion for IOM
   NSW    =      0    number of steps for IOM
   NBLOCK =      1;   KBLOCK =      1    inner block; outer block 
   IBRION =     -1    ionic relax: 0-MD 1-quasi-New 2-CG
   NFREE  =      0    steps in history (QN), initial steepest desc. (CG)
   ISIF   =      0    stress and relaxation
   IWAVPR =     10    prediction:  0-non 1-charg 2-wave 3-comb
   ISYM   =      2    0-nonsym 1-usesym 2-fastsym
   LCORR  =      T    Harris-Foulkes like correction to forces

   POTIM  = 0.5000    time-step for ionic-motion
   TEIN   =    0.0    initial temperature
   TEBEG  =    0.0;   TEEND  =   0.0 temperature during run
   SMASS  =  -3.00    Nose mass-parameter (am)
   estimated Nose-frequenzy (Omega)   =  0.10E-29 period in steps = 0.13E+47 mass=  -0.297E-27a.u.
   SCALEE = 1.0000    scale energy and forces
   NPACO  =    256;   APACO  = 10.0  distance and # of slots for P.C.
   PSTRESS=    0.0 pullay stress

  Mass of Ions in am
   POMASS =  12.01 16.00 14.00  1.00
  Ionic Valenz
   ZVAL   =   4.00  6.00  5.00  1.00
  Atomic Wigner-Seitz radii
   RWIGS  =  -1.00 -1.00 -1.00 -1.00
  virtual crystal weights 
   VCA    =   1.00  1.00  1.00  1.00
   NELECT =      72.0000    total number of electrons
   NUPDOWN=      -1.0000    fix difference up-down

 DOS related values:
   EMIN   =  10.00;   EMAX   =-10.00  energy-range for DOS
   EFERMI =   0.00;   METHOD = LEGACY      
   ISMEAR =     0;   SIGMA  =   0.01  broadening in eV -4-tet -1-fermi 0-gaus

 Electronic relaxation 2 (details)
   IALGO  =     58    algorithm
   LDIAG  =      T    sub-space diagonalisation (order eigenvalues)
   LSUBROT=      F    optimize rotation matrix (better conditioning)
   TURBO    =      0    0=normal 1=particle mesh
   IRESTART =      0    0=no restart 2=restart with 2 vectors
   NREBOOT  =      0    no. of reboots
   NMIN     =      0    reboot dimension
   EREF     =   0.00    reference energy to select bands
   IMIX   =      4    mixing-type and parameters
     AMIX     =   0.40;   BMIX     =  1.00
     AMIX_MAG =   1.60;   BMIX_MAG =  1.00
     AMIN     =   0.10
     WC   =   100.;   INIMIX=   1;  MIXPRE=   1;  MAXMIX= -45

 Intra band minimization:
   WEIMIN = 0.0000     energy-eigenvalue tresh-hold
   EBREAK =  0.20E-09  absolut break condition
   DEPER  =   0.30     relativ break condition  

   TIME   =   0.40     timestep for ELM

  volume/ion in A,a.u.               =       9.34        63.01
  Fermi-wavevector in a.u.,A,eV,Ry     =   1.121299  2.118948 17.106760  1.257311
  Thomas-Fermi vector in A             =   2.257952

 Write flags
   LWAVE        =      F    write WAVECAR
   LDOWNSAMPLE  =      F    k-point downsampling of WAVECAR
   LCHARG       =      T    write CHGCAR
   LVTOT        =      F    write LOCPOT, total local potential
   LVHAR        =      F    write LOCPOT, Hartree potential only
   LELF         =      F    write electronic localiz. function (ELF)
   LORBIT       =      0    0 simple, 1 ext, 2 COOP (PROOUT), +10 PAW based schemes


 Dipole corrections
   LMONO  =      F    monopole corrections only (constant potential shift)
   LDIPOL =      F    correct potential (dipole corrections)
   IDIPOL =      0    1-x, 2-y, 3-z, 4-all directions 
   EPSILON=  1.0000000 bulk dielectric constant

 Exchange correlation treatment:
   GGA     =    RP    GGA type
   LEXCH   =     9    internal setting for exchange type
   LIBXC   =     F    Libxc                    
   VOSKOWN =     0    Vosko Wilk Nusair interpolation
   LHFCALC =     F    Hartree Fock is set to
   LHFONE  =     F    Hartree Fock one center treatment
   AEXX    =    0.0000 exact exchange contribution

 Linear response parameters
   LEPSILON=     F    determine dielectric tensor
   LRPA    =     F    only Hartree local field effects (RPA)
   LNABLA  =     F    use nabla operator in PAW spheres
   LVEL    =     F    velocity operator in full k-point grid
   CSHIFT  =0.1000    complex shift for real part using Kramers Kronig
   OMEGAMAX=  -1.0    maximum frequency
   DEG_THRESHOLD= 0.2000000E-02 threshold for treating states as degnerate
   RTIME   =   -0.100 relaxation time in fs
  (WPLASMAI=    0.000 imaginary part of plasma frequency in eV, 0.658/RTIME)
   DFIELD  = 0.0000000 0.0000000 0.0000000 field for delta impulse in time

  Optional k-point grid parameters
   LKPOINTS_OPT  =     F    use optional k-point grid
   KPOINTS_OPT_MODE=     1    mode for optional k-point grid

 Orbital magnetization related:
   ORBITALMAG=     F  switch on orbital magnetization
   LCHIMAG   =     F  perturbation theory with respect to B field
   DQ        =  0.001000  dq finite difference perturbation B field
   LLRAUG    =     F  two centre corrections for induced B field
   LBONE     =     F  B-component reconstruction in AE one-centre
   LVGVCALC  =     T  calculate vGv susceptibility
   LVGVAPPL  =     F  apply vGv susceptibility instead of pGv for G=0

 Random number generation:
   RANDOM_GENERATOR = DEFAULT
   PCG_SEED         = not used


--------------------------------------------------------------------------------------------------------


 Static calculation
 charge density and potential will be updated during run
 non-spin polarized calculation
 Conjugate gradient for all bands (Freysoldt, et al. PRB 79, 241103 (2009))
 preconditioned conjugated gradient                                        
 perform sub-space diagonalisation
    before iterative eigenvector-optimisation
 modified Broyden-mixing scheme, WC =      100.0
 initial mixing is a Kerker type mixing with AMIX =  0.4000 and BMIX =      1.0000
 Hartree-type preconditioning will be used
 using additional bands           92
 reciprocal scheme for non local part
 use partial core corrections
 no Harris-corrections to forces 
 use gradient corrections 
 use of overlap-Matrix (Vanderbilt PP)
 Gauss-broadening in eV      SIGMA  =   0.01


--------------------------------------------------------------------------------------------------------


  energy-cutoff  :     1000.00
  volume of cell :      224.07
      direct lattice vectors                 reciprocal lattice vectors
     3.604000000  0.000000000  0.000000000     0.277469478 -0.000000000  0.051426155
     0.000000000  9.041000000  0.000000000     0.000000000  0.110607234 -0.000000000
    -1.274560000  0.000000000  6.876880000     0.000000000  0.000000000  0.145414781

  length of vectors
     3.604000000  9.041000000  6.993996120     0.282194899  0.110607234  0.145414781



 k-points in units of 2pi/SCALE and weight: auto                                    
   0.00000000  0.00000000  0.00000000       0.012
   0.03963850  0.00000000  0.00734659       0.024
   0.07927699  0.00000000  0.01469319       0.024
   0.11891549  0.00000000  0.02203978       0.024
   0.00000000  0.03686908  0.00000000       0.024
   0.03963850  0.03686908  0.00734659       0.024
  -0.03963850  0.03686908 -0.00734659       0.024
   0.07927699  0.03686908  0.01469319       0.024
  -0.07927699  0.03686908 -0.01469319       0.024
   0.11891549  0.03686908  0.02203978       0.024
  -0.11891549  0.03686908 -0.02203978       0.024
   0.00000000  0.00000000  0.03635370       0.024
   0.03963850  0.00000000  0.04370029       0.024
   0.07927699  0.00000000  0.05104688       0.024
   0.11891549  0.00000000  0.05839348       0.024
  -0.11891549  0.00000000  0.01431391       0.024
  -0.07927699  0.00000000  0.02166051       0.024
  -0.03963850  0.00000000  0.02900710       0.024
   0.00000000  0.03686908  0.03635370       0.024
   0.00000000  0.03686908 -0.03635370       0.024
   0.03963850  0.03686908  0.04370029       0.024
  -0.03963850  0.03686908 -0.04370029       0.024
   0.07927699  0.03686908  0.05104688       0.024
  -0.07927699  0.03686908 -0.05104688       0.024
   0.11891549  0.03686908  0.05839348       0.024
  -0.11891549  0.03686908 -0.05839348       0.024
  -0.11891549  0.03686908  0.01431391       0.024
   0.11891549  0.03686908 -0.01431391       0.024
  -0.07927699  0.03686908  0.02166051       0.024
   0.07927699  0.03686908 -0.02166051       0.024
  -0.03963850  0.03686908  0.02900710       0.024
   0.03963850  0.03686908 -0.02900710       0.024
   0.00000000  0.00000000  0.07270739       0.012
   0.03963850  0.00000000  0.08005398       0.024
   0.07927699  0.00000000  0.08740058       0.024
   0.11891549  0.00000000  0.09474717       0.024
   0.00000000  0.03686908  0.07270739       0.024
   0.03963850  0.03686908  0.08005398       0.024
  -0.03963850  0.03686908  0.06536080       0.024
   0.07927699  0.03686908  0.08740058       0.024
  -0.07927699  0.03686908  0.05801420       0.024
   0.11891549  0.03686908  0.09474717       0.024
  -0.11891549  0.03686908  0.05066761       0.024

 k-points in reciprocal lattice and weights: auto                                    
   0.00000000  0.00000000  0.00000000       0.012
   0.14285714  0.00000000  0.00000000       0.024
   0.28571429  0.00000000  0.00000000       0.024
   0.42857143  0.00000000  0.00000000       0.024
   0.00000000  0.33333333  0.00000000       0.024
   0.14285714  0.33333333  0.00000000       0.024
  -0.14285714  0.33333333  0.00000000       0.024
   0.28571429  0.33333333  0.00000000       0.024
  -0.28571429  0.33333333  0.00000000       0.024
   0.42857143  0.33333333  0.00000000       0.024
  -0.42857143  0.33333333  0.00000000       0.024
   0.00000000  0.00000000  0.25000000       0.024
   0.14285714  0.00000000  0.25000000       0.024
   0.28571429  0.00000000  0.25000000       0.024
   0.42857143  0.00000000  0.25000000       0.024
  -0.42857143  0.00000000  0.25000000       0.024
  -0.28571429  0.00000000  0.25000000       0.024
  -0.14285714  0.00000000  0.25000000       0.024
   0.00000000  0.33333333  0.25000000       0.024
   0.00000000  0.33333333 -0.25000000       0.024
   0.14285714  0.33333333  0.25000000       0.024
  -0.14285714  0.33333333 -0.25000000       0.024
   0.28571429  0.33333333  0.25000000       0.024
  -0.28571429  0.33333333 -0.25000000       0.024
   0.42857143  0.33333333  0.25000000       0.024
  -0.42857143  0.33333333 -0.25000000       0.024
  -0.42857143  0.33333333  0.25000000       0.024
   0.42857143  0.33333333 -0.25000000       0.024
  -0.28571429  0.33333333  0.25000000       0.024
   0.28571429  0.33333333 -0.25000000       0.024
  -0.14285714  0.33333333  0.25000000       0.024
   0.14285714  0.33333333 -0.25000000       0.024
   0.00000000  0.00000000  0.50000000       0.012
   0.14285714  0.00000000  0.50000000       0.024
   0.28571429  0.00000000  0.50000000       0.024
   0.42857143  0.00000000  0.50000000       0.024
   0.00000000  0.33333333  0.50000000       0.024
   0.14285714  0.33333333  0.50000000       0.024
  -0.14285714  0.33333333  0.50000000       0.024
   0.28571429  0.33333333  0.50000000       0.024
  -0.28571429  0.33333333  0.50000000       0.024
   0.42857143  0.33333333  0.50000000       0.024
  -0.42857143  0.33333333  0.50000000       0.024

 position of ions in fractional coordinates (direct lattice) 
   0.33203518  0.05507810  0.25732130
   0.66797297  0.94492190  0.74267685
   0.16796568  0.55506745  0.24267585
   0.83203372  0.44491009  0.75733183
   0.47376838  0.92921519  0.24829715
   0.52624666  0.07078229  0.75170236
   0.02623126  0.42921202  0.25170395
   0.97376874  0.57076943  0.74830917
   0.29444550  0.15600583  0.11704293
   0.70556522  0.84399345  0.88295880
   0.20554746  0.65599935  0.38295547
   0.79444591  0.34398259  0.61705165
   0.18857655  0.25837824  0.14240912
   0.81142749  0.74161909  0.85759834
   0.31143008  0.75837424  0.35758934
   0.68856344  0.24160751  0.64241981
   0.37690756  0.13179633  0.98675069
   0.62310071  0.86820399  0.01324931
   0.12309189  0.63179210  0.51324241
   0.87690328  0.36819167  0.48676202
   0.23078024  0.09041247  0.39024895
   0.76923352  0.90958515  0.60975105
   0.26923447  0.59040061  0.10975011
   0.73077510  0.40957900  0.89026058

 position of ions in cartesian coordinates  (Angst):
   0.86868335  0.49796107  1.76956771
   1.46078838  8.54303893  5.10729956
   0.29604336  5.01836482  1.66885272
   2.03338466  4.02243212  5.20808014
   1.39099161  8.40103458  1.70750974
   0.93850318  0.63994271  5.16936693
  -0.22627431  3.88050592  1.73093786
   2.55569758  5.16032638  5.14603239
   0.91200333  1.41044869  0.80489020
   1.41747311  7.63054479  6.07200168
   0.25269332  5.93089010  2.63353882
   2.07671371  3.10994660  4.24339014
   0.49812091  2.33599769  0.97933043
   1.83132413  6.70497823  5.89760088
   0.66662493  6.85646147  2.45909899
   1.66278004  2.18437354  4.41784395
   0.10070188  1.19157059  6.78576607
   2.22876790  7.84943228  0.09111393
  -0.21053509  5.71203241  3.52950647
   2.53995202  3.32882087  3.34740403
   0.33433629  0.81741912  2.68369519
   1.99515332  8.22355938  4.19318480
   0.83043791  5.33781192  0.75473835
   1.49902295  3.70300371  6.12221516



--------------------------------------------------------------------------------------------------------


 k-point   1 :   0.0000 0.0000 0.0000  plane waves:   16099
 k-point   2 :   0.1429 0.0000 0.0000  plane waves:   16088
 k-point   3 :   0.2857 0.0000 0.0000  plane waves:   16074
 k-point   4 :   0.4286 0.0000 0.0000  plane waves:   16083
 k-point   5 :   0.0000 0.3333 0.0000  plane waves:   16112
 k-point   6 :   0.1429 0.3333 0.0000  plane waves:   16092
 k-point   7 :  -0.1429 0.3333 0.0000  plane waves:   16092
 k-point   8 :   0.2857 0.3333 0.0000  plane waves:   16059
 k-point   9 :  -0.2857 0.3333 0.0000  plane waves:   16059
 k-point  10 :   0.4286 0.3333 0.0000  plane waves:   16083
 k-point  11 :  -0.4286 0.3333 0.0000  plane waves:   16083
 k-point  12 :   0.0000 0.0000 0.2500  plane waves:   16086
 k-point  13 :   0.1429 0.0000 0.2500  plane waves:   16093
 k-point  14 :   0.2857 0.0000 0.2500  plane waves:   16099
 k-point  15 :   0.4286 0.0000 0.2500  plane waves:   16110
 k-point  16 :  -0.4286 0.0000 0.2500  plane waves:   16101
 k-point  17 :  -0.2857 0.0000 0.2500  plane waves:   16100
 k-point  18 :  -0.1429 0.0000 0.2500  plane waves:   16098
 k-point  19 :   0.0000 0.3333 0.2500  plane waves:   16106
 k-point  20 :   0.0000 0.3333-0.2500  plane waves:   16106
 k-point  21 :   0.1429 0.3333 0.2500  plane waves:   16086
 k-point  22 :  -0.1429 0.3333-0.2500  plane waves:   16086
 k-point  23 :   0.2857 0.3333 0.2500  plane waves:   16081
 k-point  24 :  -0.2857 0.3333-0.2500  plane waves:   16081
 k-point  25 :   0.4286 0.3333 0.2500  plane waves:   16088
 k-point  26 :  -0.4286 0.3333-0.2500  plane waves:   16088
 k-point  27 :  -0.4286 0.3333 0.2500  plane waves:   16077
 k-point  28 :   0.4286 0.3333-0.2500  plane waves:   16077
 k-point  29 :  -0.2857 0.3333 0.2500  plane waves:   16075
 k-point  30 :   0.2857 0.3333-0.2500  plane waves:   16075
 k-point  31 :  -0.1429 0.3333 0.2500  plane waves:   16107
 k-point  32 :   0.1429 0.3333-0.2500  plane waves:   16107
 k-point  33 :   0.0000 0.0000 0.5000  plane waves:   16110
 k-point  34 :   0.1429 0.0000 0.5000  plane waves:   16095
 k-point  35 :   0.2857 0.0000 0.5000  plane waves:   16090
 k-point  36 :   0.4286 0.0000 0.5000  plane waves:   16056
 k-point  37 :   0.0000 0.3333 0.5000  plane waves:   16112
 k-point  38 :   0.1429 0.3333 0.5000  plane waves:   16105
 k-point  39 :  -0.1429 0.3333 0.5000  plane waves:   16105
 k-point  40 :   0.2857 0.3333 0.5000  plane waves:   16088
 k-point  41 :  -0.2857 0.3333 0.5000  plane waves:   16088
 k-point  42 :   0.4286 0.3333 0.5000  plane waves:   16096
 k-point  43 :  -0.4286 0.3333 0.5000  plane waves:   16096

 maximum and minimum number of plane-waves per node :      8089     8023

 maximum number of plane-waves:     16112
 maximum index in each direction: 
   IXMAX=    9   IYMAX=   23   IZMAX=   18
   IXMIN=   -9   IYMIN=  -23   IZMIN=  -18


 parallel 3D FFT for wavefunctions:
    minimum data exchange during FFTs selected (reduces bandwidth)
 parallel 3D FFT for charge:
    minimum data exchange during FFTs selected (reduces bandwidth)


 total amount of memory used by VASP MPI-rank0   153077. kBytes
=======================================================================

   base      :      30000. kBytes
   nonl-proj :      93323. kBytes
   fftplans  :       4974. kBytes
   grid      :       7572. kBytes
   one-center:         36. kBytes
   wavefun   :      17172. kBytes

     INWAV:  cpu time      0.0001: real time      0.0003
 Broyden mixing: mesh for mixing (old mesh)
   NGX = 19   NGY = 47   NGZ = 37
  (NGX  = 80   NGY  =192   NGZ  =144)
  gives a total of  33041 points

 initial charge density was supplied:
 charge density of overlapping atoms calculated
 number of electron      72.0000000 magnetization 
 keeping initial charge density in first step


--------------------------------------------------------------------------------------------------------


 Maximum index for augmentation-charges          471 (set IRDMAX)


--------------------------------------------------------------------------------------------------------


 First call to EWALD:  gamma=   0.292
 Maximum number of real-space cells 4x 2x 2
 Maximum number of reciprocal cells 2x 4x 3

    FEWALD:  cpu time      0.0019: real time      0.0019


--------------------------------------- Ionic step        1  -------------------------------------------




--------------------------------------- Iteration      1(   1)  ---------------------------------------


    POTLOK:  cpu time      0.0586: real time      0.0593
    SETDIJ:  cpu time      0.0089: real time      0.0091
    TRIAL :  cpu time     24.1759: real time     24.1891
    CORREC:  cpu time      0.0016: real time      0.0016
    --------------------------------------------
      LOOP:  cpu time     24.2603: real time     24.2745

 eigenvalue-minimisations  : 11008
 total energy-change (2. order) : 0.2490955E+03  (-0.6909821E+04)
 number of electron      72.0000000 magnetization 
 augmentation part       72.0000000 magnetization 

 Free energy of the ion-electron system (eV)
  ---------------------------------------------------
  alpha Z        PSCENC =        66.04564387
  Ewald energy   TEWEN  =     -1794.06305543
  -Hartree energ DENC   =     -1388.40566428
  -exchange      EXHF   =         0.00000000
  -V(xc)+E(xc)   XCENC  =       226.15217081
  PAW double counting   =      2687.71729668    -2664.30392075
  entropy T*S    EENTRO =        -0.00013433
  eigenvalues    EBANDS =      -410.72579003
  atomic energy  EATOM  =      3526.67892761
  ---------------------------------------------------
  free energy    TOTEN  =       249.09547415 eV

  energy without entropy =      249.09560848  energy(sigma->0) =      249.09554131


--------------------------------------------------------------------------------------------------------




--------------------------------------- Iteration      1(   2)  ---------------------------------------


    TRIAL :  cpu time     66.5530: real time     66.6002
    CORREC:  cpu time      0.0003: real time      0.0003
    --------------------------------------------
      LOOP:  cpu time     66.5663: real time     66.6313

 eigenvalue-minimisations  : 16512
 total energy-change (2. order) :-0.3933391E+03  (-0.3921623E+03)
 number of electron      72.0000000 magnetization 
 augmentation part       72.0000000 magnetization 

 Free energy of the ion-electron system (eV)
  ---------------------------------------------------
  alpha Z        PSCENC =        66.04564387
  Ewald energy   TEWEN  =     -1794.06305543
  -Hartree energ DENC   =     -1388.40566428
  -exchange      EXHF   =         0.00000000
  -V(xc)+E(xc)   XCENC  =       226.15217081
  PAW double counting   =      2687.71729668    -2664.30392075
  entropy T*S    EENTRO =        -0.00000000
  eigenvalues    EBANDS =      -804.06503003
  atomic energy  EATOM  =      3526.67892761
  ---------------------------------------------------
  free energy    TOTEN  =      -144.24363152 eV

  energy without entropy =     -144.24363152  energy(sigma->0) =     -144.24363152


--------------------------------------------------------------------------------------------------------




--------------------------------------- Iteration      1(   3)  ---------------------------------------


    TRIAL :  cpu time     26.5644: real time     26.5789
    CORREC:  cpu time      0.0003: real time      0.0003
    --------------------------------------------
      LOOP:  cpu time     26.5761: real time     26.6089

 eigenvalue-minimisations  : 11008
 total energy-change (2. order) :-0.7101348E+01  (-0.7101348E+01)
 number of electron      72.0000000 magnetization 
 augmentation part       72.0000000 magnetization 

 Free energy of the ion-electron system (eV)
  ---------------------------------------------------
  alpha Z        PSCENC =        66.04564387
  Ewald energy   TEWEN  =     -1794.06305543
  -Hartree energ DENC   =     -1388.40566428
  -exchange      EXHF   =         0.00000000
  -V(xc)+E(xc)   XCENC  =       226.15217081
  PAW double counting   =      2687.71729668    -2664.30392075
  entropy T*S    EENTRO =        -0.00000000
  eigenvalues    EBANDS =      -811.16637800
  atomic energy  EATOM  =      3526.67892761
  ---------------------------------------------------
  free energy    TOTEN  =      -151.34497950 eV

  energy without entropy =     -151.34497950  energy(sigma->0) =     -151.34497950


--------------------------------------------------------------------------------------------------------




--------------------------------------- Iteration      1(   4)  ---------------------------------------


    TRIAL :  cpu time    140.2160: real time    140.2894
    CORREC:  cpu time      0.0003: real time      0.0003
    --------------------------------------------
      LOOP:  cpu time    140.2282: real time    140.3191

 eigenvalue-minimisations  : 22016
 total energy-change (2. order) :-0.1910339E-01  (-0.1910339E-01)
 number of electron      72.0000000 magnetization 
 augmentation part       72.0000000 magnetization 

 Free energy of the ion-electron system (eV)
  ---------------------------------------------------
  alpha Z        PSCENC =        66.04564387
  Ewald energy   TEWEN  =     -1794.06305543
  -Hartree energ DENC   =     -1388.40566428
  -exchange      EXHF   =         0.00000000
  -V(xc)+E(xc)   XCENC  =       226.15217081
  PAW double counting   =      2687.71729668    -2664.30392075
  entropy T*S    EENTRO =        -0.00000000
  eigenvalues    EBANDS =      -811.18548140
  atomic energy  EATOM  =      3526.67892761
  ---------------------------------------------------
  free energy    TOTEN  =      -151.36408289 eV

  energy without entropy =     -151.36408289  energy(sigma->0) =     -151.36408289


--------------------------------------------------------------------------------------------------------




--------------------------------------- Iteration      1(   5)  ---------------------------------------


    TRIAL :  cpu time     26.3014: real time     26.3153
    CORREC:  cpu time      0.0003: real time      0.0003
    CHARGE:  cpu time      0.1248: real time      0.1254
    --------------------------------------------
      LOOP:  cpu time     26.4380: real time     26.4719

 eigenvalue-minimisations  : 11008
 total energy-change (2. order) :-0.1075732E-06  (-0.1075735E-06)
 number of electron      72.0000000 magnetization 
 augmentation part        0.2979123 magnetization 

 Free energy of the ion-electron system (eV)
  ---------------------------------------------------
  alpha Z        PSCENC =        66.04564387
  Ewald energy   TEWEN  =     -1794.06305543
  -Hartree energ DENC   =     -1388.40566428
  -exchange      EXHF   =         0.00000000
  -V(xc)+E(xc)   XCENC  =       226.15217081
  PAW double counting   =      2687.71729668    -2664.30392075
  entropy T*S    EENTRO =        -0.00000000
  eigenvalues    EBANDS =      -811.18548150
  atomic energy  EATOM  =      3526.67892761
  ---------------------------------------------------
  free energy    TOTEN  =      -151.36408300 eV

  energy without entropy =     -151.36408300  energy(sigma->0) =     -151.36408300


--------------------------------------------------------------------------------------------------------




--------------------------------------- Iteration      1(   6)  ---------------------------------------


    POTLOK:  cpu time      0.0256: real time      0.0256
    SETDIJ:  cpu time      0.0019: real time      0.0019
    TRIAL :  cpu time      5.6455: real time      5.6499
    CORREC:  cpu time      1.4982: real time      1.4990
    CHARGE:  cpu time      0.1073: real time      0.1073
    --------------------------------------------
      LOOP:  cpu time      7.2934: real time      7.3129

 eigenvalue-minimisations  :     0
 total energy-change (2. order) : 0.2374908E+02  (-0.1131095E+02)
 number of electron      72.0000000 magnetization 
 augmentation part        0.1301610 magnetization 

 Free energy of the ion-electron system (eV)
  ---------------------------------------------------
  alpha Z        PSCENC =        66.04564387
  Ewald energy   TEWEN  =     -1794.06305543
  -Hartree energ DENC   =     -1795.49873417
  -exchange      EXHF   =         0.00000000
  -V(xc)+E(xc)   XCENC  =       250.84085783
  PAW double counting   =     29425.07020366   -29405.14284076
  entropy T*S    EENTRO =        -0.00000000
  eigenvalues    EBANDS =      -401.54600671
  atomic energy  EATOM  =      3526.67892761
  ---------------------------------------------------
  free energy    TOTEN  =      -127.61500410 eV

  energy without entropy =     -127.61500410  energy(sigma->0) =     -127.61500410


--------------------------------------------------------------------------------------------------------




--------------------------------------- Iteration      1(   7)  ---------------------------------------


    POTLOK:  cpu time      0.0243: real time      0.0243
    SETDIJ:  cpu time      0.0019: real time      0.0019
    TRIAL :  cpu time      3.2078: real time      3.2097
    CORREC:  cpu time      1.4625: real time      1.4630
    CHARGE:  cpu time      0.1119: real time      0.1119
    --------------------------------------------
      LOOP:  cpu time      4.8220: real time      4.8405

 eigenvalue-minimisations  :     0
 total energy-change (2. order) :-0.1134137E+02  (-0.1416885E+01)
 number of electron      72.0000000 magnetization 
 augmentation part        0.1216712 magnetization 

 Free energy of the ion-electron system (eV)
  ---------------------------------------------------
  alpha Z        PSCENC =        66.04564387
  Ewald energy   TEWEN  =     -1794.06305543
  -Hartree energ DENC   =     -1625.52815772
  -exchange      EXHF   =         0.00000000
  -V(xc)+E(xc)   XCENC  =       241.31128122
  PAW double counting   =     46766.19856725   -46744.32257626
  entropy T*S    EENTRO =        -0.00000000
  eigenvalues    EBANDS =      -575.27700053
  atomic energy  EATOM  =      3526.67892761
  ---------------------------------------------------
  free energy    TOTEN  =      -138.95637000 eV

  energy without entropy =     -138.95637000  energy(sigma->0) =     -138.95637000


--------------------------------------------------------------------------------------------------------




--------------------------------------- Iteration      1(   8)  ---------------------------------------


    POTLOK:  cpu time      0.0243: real time      0.0243
    SETDIJ:  cpu time      0.0020: real time      0.0020
    TRIAL :  cpu time      3.2119: real time      3.2139
    CORREC:  cpu time      1.4655: real time      1.4667
    CHARGE:  cpu time      0.1120: real time      0.1121
    --------------------------------------------
      LOOP:  cpu time      4.8296: real time      4.8503

 eigenvalue-minimisations  :     0
 total energy-change (2. order) :-0.1413059E+01  (-0.2268403E+00)
 number of electron      72.0000000 magnetization 
 augmentation part        0.1233153 magnetization 

 Free energy of the ion-electron system (eV)
  ---------------------------------------------------
  alpha Z        PSCENC =        66.04564387
  Ewald energy   TEWEN  =     -1794.06305543
  -Hartree energ DENC   =     -1597.44104520
  -exchange      EXHF   =         0.00000000
  -V(xc)+E(xc)   XCENC  =       239.61251119
  PAW double counting   =     39580.01219344   -39558.13383836
  entropy T*S    EENTRO =        -0.00000000
  eigenvalues    EBANDS =      -603.08076634
  atomic energy  EATOM  =      3526.67892761
  ---------------------------------------------------
  free energy    TOTEN  =      -140.36942922 eV

  energy without entropy =     -140.36942922  energy(sigma->0) =     -140.36942922


--------------------------------------------------------------------------------------------------------




--------------------------------------- Iteration      1(   9)  ---------------------------------------


    POTLOK:  cpu time      0.0241: real time      0.0241
    SETDIJ:  cpu time      0.0020: real time      0.0020
    TRIAL :  cpu time      3.2322: real time      3.2338
    CORREC:  cpu time      1.4603: real time      1.4617
    CHARGE:  cpu time      0.1106: real time      0.1106
    --------------------------------------------
      LOOP:  cpu time      4.8589: real time      4.8624

 eigenvalue-minimisations  :     0
 total energy-change (2. order) :-0.2266261E+00  (-0.2763020E-01)
 number of electron      72.0000000 magnetization 
 augmentation part        0.1253413 magnetization 

 Free energy of the ion-electron system (eV)
  ---------------------------------------------------
  alpha Z        PSCENC =        66.04564387
  Ewald energy   TEWEN  =     -1794.06305543
  -Hartree energ DENC   =     -1588.32201083
  -exchange      EXHF   =         0.00000000
  -V(xc)+E(xc)   XCENC  =       238.99442890
  PAW double counting   =     37391.58668815   -37369.70033892
  entropy T*S    EENTRO =        -0.00000000
  eigenvalues    EBANDS =      -611.81633867
  atomic energy  EATOM  =      3526.67892761
  ---------------------------------------------------
  free energy    TOTEN  =      -140.59605532 eV

  energy without entropy =     -140.59605532  energy(sigma->0) =     -140.59605532


--------------------------------------------------------------------------------------------------------




--------------------------------------- Iteration      1(  10)  ---------------------------------------


    POTLOK:  cpu time      0.0240: real time      0.0240
    SETDIJ:  cpu time      0.0020: real time      0.0020
    TRIAL :  cpu time      3.2248: real time      3.2265
    CORREC:  cpu time      1.4599: real time      1.4610
    CHARGE:  cpu time      0.1109: real time      0.1109
    --------------------------------------------
      LOOP:  cpu time      4.8522: real time      4.8551

 eigenvalue-minimisations  :     0
 total energy-change (2. order) :-0.2762880E-01  (-0.3556212E-02)
 number of electron      72.0000000 magnetization 
 augmentation part        0.1224743 magnetization 

 Free energy of the ion-electron system (eV)
  ---------------------------------------------------
  alpha Z        PSCENC =        66.04564387
  Ewald energy   TEWEN  =     -1794.06305543
  -Hartree energ DENC   =     -1589.26335700
  -exchange      EXHF   =         0.00000000
  -V(xc)+E(xc)   XCENC  =       238.99731028
  PAW double counting   =     37210.01029955   -37188.14839216
  entropy T*S    EENTRO =        -0.00000000
  eigenvalues    EBANDS =      -610.88106085
  atomic energy  EATOM  =      3526.67892761
  ---------------------------------------------------
  free energy    TOTEN  =      -140.62368412 eV

  energy without entropy =     -140.62368412  energy(sigma->0) =     -140.62368412


--------------------------------------------------------------------------------------------------------




--------------------------------------- Iteration      1(  11)  ---------------------------------------


    POTLOK:  cpu time      0.0241: real time      0.0241
    SETDIJ:  cpu time      0.0019: real time      0.0019
    TRIAL :  cpu time      3.2000: real time      3.2025
    CORREC:  cpu time      1.4503: real time      1.4509
    CHARGE:  cpu time      0.1091: real time      0.1098
    --------------------------------------------
      LOOP:  cpu time      4.7977: real time      4.8192

 eigenvalue-minimisations  :     0
 total energy-change (2. order) :-0.3542740E-02  (-0.5746751E-03)
 number of electron      72.0000000 magnetization 
 augmentation part        0.1230654 magnetization 

 Free energy of the ion-electron system (eV)
  ---------------------------------------------------
  alpha Z        PSCENC =        66.04564387
  Ewald energy   TEWEN  =     -1794.06305543
  -Hartree energ DENC   =     -1588.87606901
  -exchange      EXHF   =         0.00000000
  -V(xc)+E(xc)   XCENC  =       238.96388709
  PAW double counting   =     37506.67338428   -37484.79567725
  entropy T*S    EENTRO =        -0.00000000
  eigenvalues    EBANDS =      -611.25426803
  atomic energy  EATOM  =      3526.67892761
  ---------------------------------------------------
  free energy    TOTEN  =      -140.62722686 eV

  energy without entropy =     -140.62722686  energy(sigma->0) =     -140.62722686


--------------------------------------------------------------------------------------------------------




--------------------------------------- Iteration      1(  12)  ---------------------------------------


    POTLOK:  cpu time      0.0237: real time      0.0237
    SETDIJ:  cpu time      0.0020: real time      0.0020
    TRIAL :  cpu time      3.2017: real time      3.2042
    CORREC:  cpu time      1.4719: real time      1.4725
    CHARGE:  cpu time      0.1096: real time      0.1096
    --------------------------------------------
      LOOP:  cpu time      4.8238: real time      4.8422

 eigenvalue-minimisations  :     0
 total energy-change (2. order) :-0.5773440E-03  (-0.6992252E-04)
 number of electron      72.0000000 magnetization 
 augmentation part        0.1231634 magnetization 

 Free energy of the ion-electron system (eV)
  ---------------------------------------------------
  alpha Z        PSCENC =        66.04564387
  Ewald energy   TEWEN  =     -1794.06305543
  -Hartree energ DENC   =     -1589.18834152
  -exchange      EXHF   =         0.00000000
  -V(xc)+E(xc)   XCENC  =       238.97513326
  PAW double counting   =     37498.18976868   -37476.31668084
  entropy T*S    EENTRO =        -0.00000000
  eigenvalues    EBANDS =      -610.94919984
  atomic energy  EATOM  =      3526.67892761
  ---------------------------------------------------
  free energy    TOTEN  =      -140.62780420 eV

  energy without entropy =     -140.62780420  energy(sigma->0) =     -140.62780420


--------------------------------------------------------------------------------------------------------




--------------------------------------- Iteration      1(  13)  ---------------------------------------


    POTLOK:  cpu time      0.0231: real time      0.0239
    SETDIJ:  cpu time      0.0020: real time      0.0020
    TRIAL :  cpu time      3.1987: real time      3.2010
    CORREC:  cpu time      1.4665: real time      1.4671
    CHARGE:  cpu time      0.1089: real time      0.1089
    --------------------------------------------
      LOOP:  cpu time      4.8113: real time      4.8327

 eigenvalue-minimisations  :     0
 total energy-change (2. order) :-0.7124118E-04  (-0.9609254E-05)
 number of electron      72.0000000 magnetization 
 augmentation part        0.1232158 magnetization 

 Free energy of the ion-electron system (eV)
  ---------------------------------------------------
  alpha Z        PSCENC =        66.04564387
  Ewald energy   TEWEN  =     -1794.06305543
  -Hartree energ DENC   =     -1589.10382674
  -exchange      EXHF   =         0.00000000
  -V(xc)+E(xc)   XCENC  =       238.96906543
  PAW double counting   =     37483.99037665   -37462.11697673
  entropy T*S    EENTRO =        -0.00000000
  eigenvalues    EBANDS =      -611.02803010
  atomic energy  EATOM  =      3526.67892761
  ---------------------------------------------------
  free energy    TOTEN  =      -140.62787544 eV

  energy without entropy =     -140.62787544  energy(sigma->0) =     -140.62787544


--------------------------------------------------------------------------------------------------------




--------------------------------------- Iteration      1(  14)  ---------------------------------------


    POTLOK:  cpu time      0.0240: real time      0.0240
    SETDIJ:  cpu time      0.0020: real time      0.0020
    TRIAL :  cpu time      3.1971: real time      3.1998
    CORREC:  cpu time      1.4635: real time      1.4641
    CHARGE:  cpu time      0.1086: real time      0.1086
    --------------------------------------------
      LOOP:  cpu time      4.8085: real time      4.8282

 eigenvalue-minimisations  :     0
 total energy-change (2. order) :-0.9665819E-05  (-0.1957644E-05)
 number of electron      72.0000000 magnetization 
 augmentation part        0.1231531 magnetization 

 Free energy of the ion-electron system (eV)
  ---------------------------------------------------
  alpha Z        PSCENC =        66.04564387
  Ewald energy   TEWEN  =     -1794.06305543
  -Hartree energ DENC   =     -1589.12921325
  -exchange      EXHF   =         0.00000000
  -V(xc)+E(xc)   XCENC  =       238.97080536
  PAW double counting   =     37480.96419651   -37459.09125834
  entropy T*S    EENTRO =        -0.00000000
  eigenvalues    EBANDS =      -611.00393144
  atomic energy  EATOM  =      3526.67892761
  ---------------------------------------------------
  free energy    TOTEN  =      -140.62788511 eV

  energy without entropy =     -140.62788511  energy(sigma->0) =     -140.62788511


--------------------------------------------------------------------------------------------------------




--------------------------------------- Iteration      1(  15)  ---------------------------------------


    POTLOK:  cpu time      0.0240: real time      0.0240
    SETDIJ:  cpu time      0.0020: real time      0.0020
    TRIAL :  cpu time      3.1979: real time      3.2004
    CORREC:  cpu time      1.4588: real time      1.4598
    CHARGE:  cpu time      0.1103: real time      0.1103
    --------------------------------------------
      LOOP:  cpu time      4.8230: real time      4.8267

 eigenvalue-minimisations  :     0
 total energy-change (2. order) :-0.1801498E-05  (-0.2814790E-06)
 number of electron      72.0000000 magnetization 
 augmentation part        0.1231692 magnetization 

 Free energy of the ion-electron system (eV)
  ---------------------------------------------------
  alpha Z        PSCENC =        66.04564387
  Ewald energy   TEWEN  =     -1794.06305543
  -Hartree energ DENC   =     -1589.10503406
  -exchange      EXHF   =         0.00000000
  -V(xc)+E(xc)   XCENC  =       238.96970013
  PAW double counting   =     37487.34270043   -37465.46925389
  entropy T*S    EENTRO =        -0.00000000
  eigenvalues    EBANDS =      -611.02751557
  atomic energy  EATOM  =      3526.67892761
  ---------------------------------------------------
  free energy    TOTEN  =      -140.62788691 eV

  energy without entropy =     -140.62788691  energy(sigma->0) =     -140.62788691


--------------------------------------------------------------------------------------------------------




--------------------------------------- Iteration      1(  16)  ---------------------------------------


    POTLOK:  cpu time      0.0239: real time      0.0239
    SETDIJ:  cpu time      0.0020: real time      0.0020
    TRIAL :  cpu time      3.2016: real time      3.2040
    CORREC:  cpu time      1.4537: real time      1.4547
    CHARGE:  cpu time      0.1110: real time      0.1110
    --------------------------------------------
      LOOP:  cpu time      4.8078: real time      4.8251

 eigenvalue-minimisations  :     0
 total energy-change (2. order) :-0.2835732E-06  (-0.3184267E-07)
 number of electron      72.0000000 magnetization 
 augmentation part        0.1231729 magnetization 

 Free energy of the ion-electron system (eV)
  ---------------------------------------------------
  alpha Z        PSCENC =        66.04564387
  Ewald energy   TEWEN  =     -1794.06305543
  -Hartree energ DENC   =     -1589.11148521
  -exchange      EXHF   =         0.00000000
  -V(xc)+E(xc)   XCENC  =       238.97010481
  PAW double counting   =     37486.76779727   -37464.89449331
  entropy T*S    EENTRO =        -0.00000000
  eigenvalues    EBANDS =      -611.02132680
  atomic energy  EATOM  =      3526.67892761
  ---------------------------------------------------
  free energy    TOTEN  =      -140.62788720 eV

  energy without entropy =     -140.62788720  energy(sigma->0) =     -140.62788720


--------------------------------------------------------------------------------------------------------




--------------------------------------- Iteration      1(  17)  ---------------------------------------


    POTLOK:  cpu time      0.0240: real time      0.0240
    SETDIJ:  cpu time      0.0020: real time      0.0020
    TRIAL :  cpu time      3.2090: real time      3.2110
    CORREC:  cpu time      1.4507: real time      1.4513
    EDDIAG:  cpu time      1.5097: real time      1.5112
    CHARGE:  cpu time      0.1103: real time      0.1103
    --------------------------------------------
      LOOP:  cpu time      6.3170: real time      6.3400

 eigenvalue-minimisations  :     0
 total energy-change (2. order) :-0.2794695E-07  (-0.8562841E-08)
 number of electron      72.0000000 magnetization 
 augmentation part        0.1231736 magnetization 

 Free energy of the ion-electron system (eV)
  ---------------------------------------------------
  alpha Z        PSCENC =        66.04564387
  Ewald energy   TEWEN  =     -1794.06305543
  -Hartree energ DENC   =     -1589.11152059
  -exchange      EXHF   =         0.00000000
  -V(xc)+E(xc)   XCENC  =       238.97010416
  PAW double counting   =     37486.16356135   -37464.29027547
  entropy T*S    EENTRO =        -0.00000000
  eigenvalues    EBANDS =      -611.02127272
  atomic energy  EATOM  =      3526.67892761
  ---------------------------------------------------
  free energy    TOTEN  =      -140.62788722 eV

  energy without entropy =     -140.62788722  energy(sigma->0) =     -140.62788722


--------------------------------------------------------------------------------------------------------


  average scaling for gradient   1.2009


 average (electrostatic) potential at core
  the test charge radii are     0.5770  0.5955  0.5902  0.4325
  (the norm of the test charge is              1.0000)
       1 -83.6549       2 -83.6550       3 -83.6548       4 -83.6546       5-114.0444
       6-114.0447       7-114.0446       8-114.0442       9 -99.1001      10 -99.1000
      11 -99.0998      12 -99.0998      13 -41.7785      14 -41.7785      15 -41.7779
      16 -41.7778      17 -41.7374      18 -41.7372      19 -41.7376      20 -41.7375
      21 -40.4893      22 -40.4893      23 -40.4891      24 -40.4891



 E-fermi :  -0.6256     XC(G=0):  -7.5844     alpha+bet : -6.4442

 Fermi energy:        -0.6255855792

 k-point     1 :       0.0000    0.0000    0.0000
  band No.  band energies     occupation 
      1     -21.0191      2.00000
      2     -20.9272      2.00000
      3     -20.8494      2.00000
      4     -20.7767      2.00000
      5     -17.7007      2.00000
      6     -17.5421      2.00000
      7     -17.4240      2.00000
      8     -17.3419      2.00000
      9     -10.5720      2.00000
     10     -10.4332      2.00000
     11     -10.2234      2.00000
     12      -9.8069      2.00000
     13      -8.9521      2.00000
     14      -8.5495      2.00000
     15      -8.0328      2.00000
     16      -7.8944      2.00000
     17      -7.0579      2.00000
     18      -7.0541      2.00000
     19      -6.3849      2.00000
     20      -6.2226      2.00000
     21      -5.8669      2.00000
     22      -5.2899      2.00000
     23      -5.0968      2.00000
     24      -4.5965      2.00000
     25      -4.5201      2.00000
     26      -4.4101      2.00000
     27      -4.3786      2.00000
     28      -4.1489      2.00000
     29      -1.6768      2.00000
     30      -1.4570      2.00000
     31      -1.4427      2.00000
     32      -1.3397      2.00000
     33      -1.2033      2.00000
     34      -1.2019      2.00000
     35      -1.1840      2.00000
     36      -1.1399      2.00000
     37       4.0079      0.00000
     38       4.2455      0.00000
     39       4.4049      0.00000
     40       4.6056      0.00000
     41       5.7535      0.00000
     42       6.5293      0.00000
     43       6.6067      0.00000
     44       8.0176      0.00000
     45       8.0264      0.00000
     46       8.0337      0.00000
     47       8.2055      0.00000
     48       8.8272      0.00000
     49       9.5821      0.00000
     50       9.9817      0.00000
     51      10.0731      0.00000
     52      10.3468      0.00000
     53      10.6817      0.00000
     54      10.7452      0.00000
     55      11.0054      0.00000
     56      11.3455      0.00000
     57      11.3752      0.00000
     58      11.5881      0.00000
     59      11.9269      0.00000
     60      12.2648      0.00000
     61      12.5831      0.00000
     62      12.9649      0.00000
     63      12.9981      0.00000
     64      13.5747      0.00000
     65      13.6293      0.00000
     66      13.8996      0.00000
     67      14.4147      0.00000
     68      14.5712      0.00000
     69      14.6423      0.00000
     70      14.7281      0.00000
     71      14.8695      0.00000
     72      15.0361      0.00000
     73      15.4249      0.00000
     74      15.9465      0.00000
     75      16.0354      0.00000
     76      16.2985      0.00000
     77      16.7782      0.00000
     78      16.9570      0.00000
     79      17.1836      0.00000
     80      17.3586      0.00000
     81      17.5877      0.00000
     82      18.0048      0.00000
     83      18.5366      0.00000
     84      18.5521      0.00000
     85      19.0704      0.00000
     86      19.2291      0.00000
     87      19.3566      0.00000
     88      19.4352      0.00000
     89      19.8279      0.00000
     90      19.9241      0.00000
     91      20.2838      0.00000
     92      20.3065      0.00000
     93      20.5190      0.00000
     94      20.9796      0.00000
     95      21.0694      0.00000
     96      21.6241      0.00000
     97      21.6618      0.00000
     98      21.9608      0.00000
     99      22.3701      0.00000
    100      22.5174      0.00000
    101      22.6556      0.00000
    102      22.9861      0.00000
    103      23.0106      0.00000
    104      23.0320      0.00000
    105      23.4376      0.00000
    106      24.4250      0.00000
    107      24.8187      0.00000
    108      25.2636      0.00000
    109      25.2649      0.00000
    110      25.2736      0.00000
[...]
    101      23.2947      0.00000
    102      23.5532      0.00000
    103      23.7195      0.00000
    104      23.9243      0.00000
    105      24.1909      0.00000
    106      24.2846      0.00000
    107      24.4799      0.00000
    108      24.6685      0.00000
    109      24.9360      0.00000
    110      25.3269      0.00000
    111      25.4297      0.00000
    112      25.7209      0.00000
    113      25.8699      0.00000
    114      26.2155      0.00000
    115      26.4364      0.00000
    116      26.6507      0.00000
    117      26.8834      0.00000
    118      26.9907      0.00000
    119      27.0556      0.00000
    120      27.3597      0.00000
    121      27.5606      0.00000
    122      28.0071      0.00000
    123      28.2104      0.00000
    124      28.5751      0.00000
    125      28.6309      0.00000
    126      29.0222      0.00000
    127      29.2268      0.00000
    128      29.4136      0.00000

 k-point    42 :       0.4286    0.3333    0.5000
  band No.  band energies     occupation 
      1     -20.8697      2.00000
      2     -20.8428      2.00000
      3     -20.8235      2.00000
      4     -20.7956      2.00000
      5     -17.5433      2.00000
      6     -17.4647      2.00000
      7     -17.4358      2.00000
      8     -17.3287      2.00000
      9     -10.4778      2.00000
     10     -10.4484      2.00000
     11      -9.9580      2.00000
     12      -9.9335      2.00000
     13      -8.6372      2.00000
     14      -8.5194      2.00000
     15      -8.2767      2.00000
     16      -8.1258      2.00000
     17      -7.3150      2.00000
     18      -7.2800      2.00000
     19      -6.2906      2.00000
     20      -6.1937      2.00000
     21      -5.5068      2.00000
     22      -5.3908      2.00000
     23      -5.2546      2.00000
     24      -5.2121      2.00000
     25      -5.0452      2.00000
     26      -4.9162      2.00000
     27      -4.7914      2.00000
     28      -4.5147      2.00000
     29      -2.0678      2.00000
     30      -1.8715      2.00000
     31      -1.7570      2.00000
     32      -1.6238      2.00000
     33      -1.4956      2.00000
     34      -1.4382      2.00000
     35      -0.8216      2.00000
     36      -0.7858      2.00000
     37       4.0167      0.00000
     38       4.0704      0.00000
     39       4.3824      0.00000
     40       4.4724      0.00000
     41       6.4200      0.00000
     42       6.9465      0.00000
     43       7.9073      0.00000
     44       7.9909      0.00000
     45       8.3375      0.00000
     46       8.7490      0.00000
     47       8.9150      0.00000
     48       9.0744      0.00000
     49       9.2599      0.00000
     50       9.3073      0.00000
     51       9.5190      0.00000
     52       9.8630      0.00000
     53      10.2951      0.00000
     54      10.6026      0.00000
     55      10.7245      0.00000
     56      10.9757      0.00000
     57      11.6199      0.00000
     58      11.6543      0.00000
     59      12.0881      0.00000
     60      12.1516      0.00000
     61      12.4969      0.00000
     62      12.7193      0.00000
     63      13.0552      0.00000
     64      13.1138      0.00000
     65      13.6929      0.00000
     66      13.7233      0.00000
     67      14.1586      0.00000
     68      14.2727      0.00000
     69      14.4830      0.00000
     70      14.7168      0.00000
     71      15.3879      0.00000
     72      15.5412      0.00000
     73      15.9358      0.00000
     74      16.0223      0.00000
     75      16.3780      0.00000
     76      16.5696      0.00000
     77      16.8822      0.00000
     78      17.0111      0.00000
     79      17.4589      0.00000
     80      17.9608      0.00000
     81      18.2863      0.00000
     82      18.5960      0.00000
     83      18.6340      0.00000
     84      18.9163      0.00000
     85      19.4005      0.00000
     86      19.8065      0.00000
     87      20.5238      0.00000
     88      20.6745      0.00000
     89      20.8894      0.00000
     90      21.0020      0.00000
     91      21.4563      0.00000
     92      21.5761      0.00000
     93      21.7257      0.00000
     94      21.8926      0.00000
     95      22.2805      0.00000
     96      22.3825      0.00000
     97      22.6484      0.00000
     98      22.8215      0.00000
     99      22.9919      0.00000
    100      23.3118      0.00000
    101      23.4616      0.00000
    102      23.6400      0.00000
    103      23.9881      0.00000
    104      24.0817      0.00000
    105      24.2106      0.00000
    106      24.6582      0.00000
    107      24.7512      0.00000
    108      24.9729      0.00000
    109      25.3518      0.00000
    110      25.4773      0.00000
    111      25.7537      0.00000
    112      25.9609      0.00000
    113      26.0876      0.00000
    114      26.2178      0.00000
    115      26.4582      0.00000
    116      26.8943      0.00000
    117      27.0279      0.00000
    118      27.2511      0.00000
    119      27.3982      0.00000
    120      27.5103      0.00000
    121      27.7079      0.00000
    122      27.8036      0.00000
    123      28.2752      0.00000
    124      28.4393      0.00000
    125      28.6242      0.00000
    126      28.9154      0.00000
    127      29.1312      0.00000
    128      29.2389      0.00000

 k-point    43 :      -0.4286    0.3333    0.5000
  band No.  band energies     occupation 
      1     -20.8697      2.00000
      2     -20.8428      2.00000
      3     -20.8235      2.00000
      4     -20.7956      2.00000
      5     -17.5433      2.00000
      6     -17.4648      2.00000
      7     -17.4357      2.00000
      8     -17.3287      2.00000
      9     -10.4778      2.00000
     10     -10.4484      2.00000
     11      -9.9581      2.00000
     12      -9.9335      2.00000
     13      -8.6372      2.00000
     14      -8.5194      2.00000
     15      -8.2767      2.00000
     16      -8.1258      2.00000
     17      -7.3150      2.00000
     18      -7.2800      2.00000
     19      -6.2906      2.00000
     20      -6.1937      2.00000
     21      -5.5067      2.00000
     22      -5.3910      2.00000
     23      -5.2545      2.00000
     24      -5.2121      2.00000
     25      -5.0452      2.00000
     26      -4.9163      2.00000
     27      -4.7913      2.00000
     28      -4.5147      2.00000
     29      -2.0678      2.00000
     30      -1.8715      2.00000
     31      -1.7570      2.00000
     32      -1.6238      2.00000
     33      -1.4956      2.00000
     34      -1.4382      2.00000
     35      -0.8216      2.00000
     36      -0.7858      2.00000
     37       4.0167      0.00000
     38       4.0704      0.00000
     39       4.3824      0.00000
     40       4.4724      0.00000
     41       6.4200      0.00000
     42       6.9465      0.00000
     43       7.9073      0.00000
     44       7.9910      0.00000
     45       8.3373      0.00000
     46       8.7490      0.00000
     47       8.9150      0.00000
     48       9.0743      0.00000
     49       9.2600      0.00000
     50       9.3074      0.00000
     51       9.5190      0.00000
     52       9.8629      0.00000
     53      10.2951      0.00000
     54      10.6027      0.00000
     55      10.7245      0.00000
     56      10.9758      0.00000
     57      11.6199      0.00000
     58      11.6543      0.00000
     59      12.0880      0.00000
     60      12.1515      0.00000
     61      12.4969      0.00000
     62      12.7194      0.00000
     63      13.0552      0.00000
     64      13.1139      0.00000
     65      13.6929      0.00000
     66      13.7232      0.00000
     67      14.1586      0.00000
     68      14.2726      0.00000
     69      14.4830      0.00000
     70      14.7167      0.00000
     71      15.3878      0.00000
     72      15.5413      0.00000
     73      15.9358      0.00000
     74      16.0224      0.00000
     75      16.3777      0.00000
     76      16.5696      0.00000
     77      16.8822      0.00000
     78      17.0112      0.00000
     79      17.4589      0.00000
     80      17.9609      0.00000
     81      18.2862      0.00000
     82      18.5960      0.00000
     83      18.6340      0.00000
     84      18.9162      0.00000
     85      19.4005      0.00000
     86      19.8064      0.00000
     87      20.5237      0.00000
     88      20.6745      0.00000
     89      20.8894      0.00000
     90      21.0019      0.00000
     91      21.4563      0.00000
     92      21.5761      0.00000
     93      21.7256      0.00000
     94      21.8925      0.00000
     95      22.2806      0.00000
     96      22.3825      0.00000
     97      22.6485      0.00000
     98      22.8214      0.00000
     99      22.9918      0.00000
    100      23.3119      0.00000
    101      23.4616      0.00000
    102      23.6400      0.00000
    103      23.9881      0.00000
    104      24.0817      0.00000
    105      24.2106      0.00000
    106      24.6582      0.00000
    107      24.7512      0.00000
    108      24.9728      0.00000
    109      25.3518      0.00000
    110      25.4772      0.00000
    111      25.7537      0.00000
    112      25.9610      0.00000
    113      26.0877      0.00000
    114      26.2179      0.00000
    115      26.4582      0.00000
    116      26.8942      0.00000
    117      27.0279      0.00000
    118      27.2510      0.00000
    119      27.3982      0.00000
    120      27.5104      0.00000
    121      27.7078      0.00000
    122      27.8036      0.00000
    123      28.2752      0.00000
    124      28.4394      0.00000
    125      28.6242      0.00000
    126      28.9151      0.00000
    127      29.1316      0.00000
    128      29.2391      0.00000


--------------------------------------------------------------------------------------------------------


 soft charge-density along one line, spin component           1
         0         1         2         3         4         5         6         7         8         9
 total charge-density along one line

 pseudopotential strength for first ion, spin component:           1
 12.643  21.274  -0.003  -0.009   0.005  -0.005  -0.015   0.009
 21.274  35.798  -0.004  -0.014   0.009  -0.008  -0.025   0.015
 -0.003  -0.004  -3.051   0.000  -0.000  -5.466   0.000  -0.001
 -0.009  -0.014   0.000  -3.050  -0.001   0.000  -5.464  -0.002
  0.005   0.009  -0.000  -0.001  -3.051  -0.001  -0.002  -5.466
 -0.005  -0.008  -5.466   0.000  -0.001  -9.771   0.001  -0.001
 -0.015  -0.025   0.000  -5.464  -0.002   0.001  -9.766  -0.003
  0.009   0.015  -0.001  -0.002  -5.466  -0.001  -0.003  -9.770
 total augmentation occupancy for first ion, spin component:           1
  9.090  -3.404  -0.964  -1.134   0.977   0.487   0.538  -0.474
 -3.404   1.347   0.522   0.606  -0.522  -0.260  -0.268   0.242
 -0.964   0.522   9.064  -1.152  -1.995  -3.397   0.503   0.843
 -1.134   0.606  -1.152   6.644  -1.024   0.503  -2.236   0.370
  0.977  -0.522  -1.995  -1.024   4.534   0.843   0.370  -1.445
  0.487  -0.260  -3.397   0.503   0.843   1.304  -0.211  -0.355
  0.538  -0.268   0.503  -2.236   0.370  -0.211   0.766  -0.134
 -0.474   0.242   0.843   0.370  -1.445  -0.355  -0.134   0.474


------------------------ aborting loop because EDIFF is reached ----------------------------------------


    FORLOC:  cpu time      0.0050: real time      0.0050
    FORNL :  cpu time      1.0103: real time      1.0108
    FORCOR:  cpu time      0.0236: real time      0.0237
    OFIELD:  cpu time      0.0003: real time      0.0003

 ---------------------------------------------------------------------------------------------

         DFTD3 V3.0 Rev 1        
 IVDW         = 11
 DF rpbe      
 parameters
 VDW_S6       =    1.0000
 VDW_S8       =    0.5140
 VDW_SR       =    0.8720
 rs18     =    1.0000
 alpha6   =   14.0000
 alpha8   =   16.0000
 k1-k3    =   16.0000    1.3333   -4.0000
 VDW_RADIUS   =   50.2022 A
 VDW_CNRADIUS =   21.1671 A
 Edisp (eV)   -2.18840

 E6    (eV) :    -1.8606
 E8    (eV) :    -0.3278
 % E8        : 14.98
    FORVDW:  cpu time      0.2769: real time      0.2769

 VOLUME and BASIS-vectors are now :
 -----------------------------------------------------------------------------
  energy-cutoff  :     1000.00
  volume of cell :      224.07
      direct lattice vectors                 reciprocal lattice vectors
     3.604000000  0.000000000  0.000000000     0.277469478 -0.000000000  0.051426155
     0.000000000  9.041000000  0.000000000     0.000000000  0.110607234 -0.000000000
    -1.274560000  0.000000000  6.876880000     0.000000000  0.000000000  0.145414781

  length of vectors
     3.604000000  9.041000000  6.993996120     0.282194899  0.110607234  0.145414781


 FORCES acting on ions:
    Electron-Ion                     Ewald-Force                    Non-Local-Force
 -----------------------------------------------------------------------------------------------
   0.602E+02 -.644E+02 -.943E+02   -.629E+02 0.656E+02 0.991E+02   0.266E+01 -.113E+01 -.472E+01
   -.602E+02 0.644E+02 0.943E+02   0.629E+02 -.656E+02 -.991E+02   -.266E+01 0.113E+01 0.472E+01
   -.602E+02 -.644E+02 0.943E+02   0.629E+02 0.656E+02 -.990E+02   -.266E+01 -.113E+01 0.472E+01
   0.602E+02 0.644E+02 -.943E+02   -.629E+02 -.656E+02 0.990E+02   0.266E+01 0.113E+01 -.472E+01
   -.698E+02 0.158E+03 -.345E+02   0.897E+02 -.200E+03 0.339E+02   -.200E+02 0.423E+02 0.632E+00
   0.698E+02 -.158E+03 0.345E+02   -.897E+02 0.200E+03 -.339E+02   0.200E+02 -.423E+02 -.633E+00
   0.698E+02 0.158E+03 0.345E+02   -.897E+02 -.200E+03 -.339E+02   0.200E+02 0.423E+02 -.635E+00
   -.698E+02 -.158E+03 -.345E+02   0.897E+02 0.200E+03 0.339E+02   -.200E+02 -.423E+02 0.633E+00
   0.219E+01 -.102E+03 0.627E+02   -.248E+01 0.105E+03 -.664E+02   0.301E+00 -.289E+01 0.355E+01
   -.219E+01 0.102E+03 -.627E+02   0.249E+01 -.105E+03 0.664E+02   -.302E+00 0.289E+01 -.355E+01
   -.219E+01 -.102E+03 -.627E+02   0.248E+01 0.105E+03 0.664E+02   -.299E+00 -.289E+01 -.355E+01
   0.219E+01 0.102E+03 0.627E+02   -.248E+01 -.105E+03 -.664E+02   0.300E+00 0.289E+01 0.355E+01
   0.184E+02 -.467E+02 -.486E+00   -.212E+02 0.531E+02 0.170E+01   0.290E+01 -.652E+01 -.124E+01
   -.184E+02 0.467E+02 0.485E+00   0.212E+02 -.531E+02 -.170E+01   -.290E+01 0.652E+01 0.124E+01
   -.184E+02 -.467E+02 0.484E+00   0.212E+02 0.531E+02 -.170E+01   -.290E+01 -.651E+01 0.124E+01
   0.184E+02 0.467E+02 -.482E+00   -.212E+02 -.531E+02 0.170E+01   0.290E+01 0.651E+01 -.124E+01
   -.201E+02 -.451E+01 0.452E+02   0.233E+02 0.303E+01 -.513E+02   -.319E+01 0.151E+01 0.622E+01
   0.201E+02 0.451E+01 -.452E+02   -.233E+02 -.304E+01 0.513E+02   0.319E+01 -.151E+01 -.622E+01
   0.201E+02 -.451E+01 -.452E+02   -.233E+02 0.304E+01 0.514E+02   0.319E+01 0.151E+01 -.622E+01
   -.201E+02 0.451E+01 0.452E+02   0.233E+02 -.303E+01 -.513E+02   -.319E+01 -.151E+01 0.622E+01
   0.268E+02 -.160E+02 -.429E+02   -.295E+02 0.175E+02 0.476E+02   0.274E+01 -.156E+01 -.479E+01
   -.268E+02 0.160E+02 0.429E+02   0.295E+02 -.175E+02 -.476E+02   -.274E+01 0.156E+01 0.479E+01
   -.268E+02 -.160E+02 0.429E+02   0.295E+02 0.175E+02 -.476E+02   -.274E+01 -.156E+01 0.479E+01
   0.268E+02 0.160E+02 -.429E+02   -.295E+02 -.175E+02 0.476E+02   0.274E+01 0.156E+01 -.479E+01
 -----------------------------------------------------------------------------------------------
   -.223E-02 -.269E-03 0.365E-02   -.284E-13 -.355E-13 0.497E-13   0.224E-02 0.270E-03 -.365E-02


 POSITION                                       TOTAL-FORCE (eV/Angst)
 -----------------------------------------------------------------------------------
      0.86868      0.49796      1.76957        -0.037185     -0.056869      0.150789
      1.46079      8.54304      5.10730         0.038143      0.054423     -0.150105
      0.29604      5.01836      1.66885         0.038312     -0.053219     -0.149844
      2.03338      4.02243      5.20808        -0.037657      0.055757      0.150695
      1.39099      8.40103      1.70751         0.074203     -0.138004      0.031953
      0.93850      0.63994      5.16937        -0.075036      0.139422     -0.031868
     -0.22627      3.88051      1.73094        -0.075421     -0.140967     -0.031998
      2.55570      5.16033      5.14603         0.074881      0.139601      0.031854
      0.91200      1.41045      0.80489         0.003474      0.222743     -0.200185
      1.41747      7.63054      6.07200        -0.003464     -0.222252      0.199443
      0.25269      5.93089      2.63354        -0.001763      0.224088      0.197498
      2.07671      3.10995      4.24339         0.002189     -0.224409     -0.198827
      0.49812      2.33600      0.97933         0.039192     -0.064923     -0.043867
      1.83132      6.70498      5.89760        -0.039127      0.064948      0.043635
      0.66662      6.85646      2.45910        -0.039885     -0.066334      0.044117
      1.66278      2.18437      4.41784         0.039949      0.066301     -0.044284
      0.10070      1.19157      6.78577        -0.044866      0.007641      0.095294
      2.22877      7.84943      0.09111         0.044736     -0.007547     -0.095046
     -0.21054      5.71203      3.52951         0.044074      0.007229     -0.093858
      2.53995      3.32882      3.34740        -0.044499     -0.007431      0.094650
      0.33434      0.81742      2.68370         0.002172      0.013040      0.014753
      1.99515      8.22356      4.19318        -0.002297     -0.012955     -0.014755
      0.83044      5.33781      0.75474        -0.002292      0.013025     -0.014579
      1.49902      3.70300      6.12222         0.002167     -0.013307      0.014537
 -----------------------------------------------------------------------------------
    total drift:                                0.000003      0.000002      0.000001


--------------------------------------------------------------------------------------------------------



  FREE ENERGIE OF THE ION-ELECTRON SYSTEM (eV)
  ---------------------------------------------------
  free  energy   TOTEN  =      -142.81628398 eV

  energy  without entropy=     -142.81628398  energy(sigma->0) =     -142.81628398



--------------------------------------------------------------------------------------------------------


    POTLOK:  cpu time      0.1011: real time      0.1015


--------------------------------------------------------------------------------------------------------


 stress matrix after NEB project (eV)
     -3.29502      0.00000     -0.56571
      0.00000     -2.45868      0.00001
     -0.56571      0.00001     -2.71945
  FORCES: max atom, RMS     0.299827    0.164250
  FORCE total and by dimension    0.804657    0.224409
  Stress total and by dimension    4.993769    3.295019
     LOOP+:  cpu time    350.6660: real time    351.1178
    4ORBIT:  cpu time      0.0000: real time      0.0000

 total amount of memory used by VASP MPI-rank0   153077. kBytes
=======================================================================

   base      :      30000. kBytes
   nonl-proj :      93323. kBytes
   fftplans  :       4974. kBytes
   grid      :       7572. kBytes
   one-center:         36. kBytes
   wavefun   :      17172. kBytes

  
  
 General timing and accounting informations for this job:
 ========================================================
  
                  Total CPU time used (sec):      376.916
                            User time (sec):      374.969
                          System time (sec):        1.947
                         Elapsed time (sec):      380.712
  
                   Maximum memory used (kb):      394288.
                   Average memory used (kb):          N/A
  
                          Minor page faults:        62148
                          Major page faults:         1159
                 Voluntary context switches:         6042
