 vasp.6.4.1 05Apr23 (build Jun  6 2023 14:36:51) complex                         
 executed on        HPECrayEX_GCC date 2024.08.20  16:55:34
 running  128 mpi-ranks, with    1 threads/rank, on    1 nodes
 distrk:  each k-point on  128 cores,    1 groups
 distr:  one band on NCORE=  32 cores,    4 groups


--------------------------------------------------------------------------------------------------------


 INCAR:
   ALGO = Conjugate
   NPAR = 4
   ISMEAR = 0
   SIGMA = 0.01
   PREC = Accurate
   EDIFF = 1E-7
   ENCUT = 1000
   ISIF = 0
   GGA = OR
   LUSE_VDW = .TRUE.
   AGGAC = 0.0000
   LASPH = .TRUE.
   LWAVE = .FALSE.
   LCHARGE = .FALSE.

 POTCAR:    PAW_PBE C_h 06Feb2004                 
 POTCAR:    PAW_PBE O_h 06Feb2004                 
 POTCAR:    PAW_PBE N_h 06Feb2004                 
 POTCAR:    PAW_PBE H_h 06Feb2004                 
 -----------------------------------------------------------------------------
|                                                                             |
|               ----> ADVICE to this user running VASP <----                  |
|                                                                             |
|     You have switched on vdW-DFT.                                           |
|     This routine was written and supplied by Jiri Klimes. We recommend      |
|     that you carefully read and cite the following publications:            |
|       J. Klimes, D.R. Bowler, A. Michelides                                 |
|          J. Phys.: Cond Matt. 22 022201 (2010)                              |
|       J. Klimes, D.R. Bowler, A. Michelides                                 |
|          Phys. Rev. B. 83, 195131 (2011)                                    |
|     and references therein.                                                 |
|                                                                             |
 -----------------------------------------------------------------------------

 POTCAR:    PAW_PBE C_h 06Feb2004                 
   VRHFIN =C: s2p2                                                                                  
   LEXCH  = PE                                                                                      
   EATOM  =   147.1560 eV,   10.8157 Ry                                                             
                                                                                                    
   TITEL  = PAW_PBE C_h 06Feb2004                                                                   
   LULTRA =        F    use ultrasoft PP ?                                                          
   IUNSCR =        1    unscreen: 0-lin 1-nonlin 2-no                                               
   RPACOR =    0.800    partial core radius                                                         
   POMASS =   12.011; ZVAL   =    4.000    mass and valenz                                          
   RCORE  =    1.100    outmost cutoff radius                                                       
   RWIGS  =    1.630; RWIGS  =    0.863    wigner-seitz radius (au A)                               
   ENMAX  =  700.000; ENMIN  =  500.000 eV                                                          
   ICORE  =        2    local potential                                                             
   LCOR   =        T    correct aug charges                                                         
   LPAW   =        T    paw PP                                                                      
   EAUG   =  946.768                                                                                
   DEXC   =    0.000                                                                                
   RMAX   =    1.128    core radius for proj-oper                                                   
   RAUG   =    1.300    factor for augmentation sphere                                              
   RDEP   =    1.162    radius for radial grids                                                     
   RDEPT  =    1.088    core radius for aug-charge                                                  
                                                                                                    
   Atomic configuration                                                                             
    4 entries                                                                                       
     n  l   j            E        occ.                                                              
     1  0  0.50      -273.3789   2.0000                                                             
     2  0  0.50       -13.7508   2.0000                                                             
     2  1  0.50        -5.2854   2.0000                                                             
     3  2  1.50        -5.4423   0.0000                                                             
   Description                                                                                      
     l       E           TYP  RCUT    TYP  RCUT                                                     
     0    -13.7508458     23  1.100                                                                 
     0     -8.2022199     23  1.100                                                                 
     1     -5.2854383     23  1.100                                                                 
     1      1.1560700     23  1.100                                                                 
     2     -5.4423304      7  1.100                                                                 
  local pseudopotential read in
  partial core-charges read in
  partial kinetic energy density read in
  atomic valenz-charges read in
  non local Contribution for L=           0  read in
    real space projection operators read in
  non local Contribution for L=           0  read in
    real space projection operators read in
  non local Contribution for L=           1  read in
    real space projection operators read in
  non local Contribution for L=           1  read in
    real space projection operators read in
    PAW grid and wavefunctions read in

   number of l-projection  operators is LMAX  =           4
   number of lm-projection operators is LMMAX =           8

 POTCAR:    PAW_PBE O_h 06Feb2004                 
   VRHFIN =O: s2p4                                                                                  
   LEXCH  = PE                                                                                      
   EATOM  =   432.3788 eV,   31.7789 Ry                                                             
                                                                                                    
   TITEL  = PAW_PBE O_h 06Feb2004                                                                   
   LULTRA =        F    use ultrasoft PP ?                                                          
   IUNSCR =        1    unscreen: 0-lin 1-nonlin 2-no                                               
   RPACOR =    0.800    partial core radius                                                         
   POMASS =   16.000; ZVAL   =    6.000    mass and valenz                                          
   RCORE  =    1.100    outmost cutoff radius                                                       
   RWIGS  =    1.400; RWIGS  =    0.741    wigner-seitz radius (au A)                               
   ENMAX  =  700.000; ENMIN  =  500.000 eV                                                          
   ICORE  =        2    local potential                                                             
   LCOR   =        T    correct aug charges                                                         
   LPAW   =        T    paw PP                                                                      
   EAUG   =  888.804                                                                                
   DEXC   =    0.000                                                                                
   RMAX   =    1.128    core radius for proj-oper                                                   
   RAUG   =    1.300    factor for augmentation sphere                                              
   RDEP   =    1.125    radius for radial grids                                                     
   RDEPT  =    1.088    core radius for aug-charge                                                  
                                                                                                    
   Atomic configuration                                                                             
    4 entries                                                                                       
     n  l   j            E        occ.                                                              
     1  0  0.50      -514.6923   2.0000                                                             
     2  0  0.50       -23.9615   2.0000                                                             
     2  1  0.50        -9.0305   4.0000                                                             
     3  2  1.50        -9.5241   0.0000                                                             
   Description                                                                                      
     l       E           TYP  RCUT    TYP  RCUT                                                     
     0    -23.9615319     23  1.100                                                                 
     0    -25.3221145     23  1.100                                                                 
     1     -9.0304911     23  1.100                                                                 
     1     -5.4802209     23  1.100                                                                 
     2     -9.5240782      7  1.100                                                                 
  local pseudopotential read in
  partial core-charges read in
  partial kinetic energy density read in
  atomic valenz-charges read in
  non local Contribution for L=           0  read in
    real space projection operators read in
  non local Contribution for L=           0  read in
    real space projection operators read in
  non local Contribution for L=           1  read in
    real space projection operators read in
  non local Contribution for L=           1  read in
    real space projection operators read in
    PAW grid and wavefunctions read in

   number of l-projection  operators is LMAX  =           4
   number of lm-projection operators is LMMAX =           8

 POTCAR:    PAW_PBE N_h 06Feb2004                 
   VRHFIN =N: s2p3                                                                                  
   LEXCH  = PE                                                                                      
   EATOM  =   264.5486 eV,   19.4438 Ry                                                             
                                                                                                    
   TITEL  = PAW_PBE N_h 06Feb2004                                                                   
   LULTRA =        F    use ultrasoft PP ?                                                          
   IUNSCR =        1    unscreen: 0-lin 1-nonlin 2-no                                               
   RPACOR =    0.800    partial core radius                                                         
   POMASS =   14.001; ZVAL   =    5.000    mass and valenz                                          
   RCORE  =    1.100    outmost cutoff radius                                                       
   RWIGS  =    1.480; RWIGS  =    0.783    wigner-seitz radius (au A)                               
   ENMAX  =  700.000; ENMIN  =  500.000 eV                                                          
   ICORE  =        2    local potential                                                             
   LCOR   =        T    correct aug charges                                                         
   LPAW   =        T    paw PP                                                                      
   EAUG   =  904.640                                                                                
   DEXC   =    0.000                                                                                
   RMAX   =    1.127    core radius for proj-oper                                                   
   RAUG   =    1.300    factor for augmentation sphere                                              
   RDEP   =    1.115    radius for radial grids                                                     
   RDEPT  =    1.106    core radius for aug-charge                                                  
                                                                                                    
   Atomic configuration                                                                             
    4 entries                                                                                       
     n  l   j            E        occ.                                                              
     1  0  0.50      -384.7179   2.0000                                                             
     2  0  0.50       -18.5828   2.0000                                                             
     2  1  0.50        -7.0898   3.0000                                                             
     3  2  1.50        -6.8029   0.0000                                                             
   Description                                                                                      
     l       E           TYP  RCUT    TYP  RCUT                                                     
     0    -18.5828117     23  1.100                                                                 
     0    -15.0750597     23  1.100                                                                 
     1     -7.0897851     23  1.100                                                                 
     1     -1.9663412     23  1.100                                                                 
     2     -6.8029130      7  1.100                                                                 
  local pseudopotential read in
  partial core-charges read in
  partial kinetic energy density read in
  kinetic energy density of atom read in
  atomic valenz-charges read in
  non local Contribution for L=           0  read in
    real space projection operators read in
  non local Contribution for L=           0  read in
    real space projection operators read in
  non local Contribution for L=           1  read in
    real space projection operators read in
  non local Contribution for L=           1  read in
    real space projection operators read in
    PAW grid and wavefunctions read in

   number of l-projection  operators is LMAX  =           4
   number of lm-projection operators is LMMAX =           8

 POTCAR:    PAW_PBE H_h 06Feb2004                 
   VRHFIN =H: ultrasoft test                                                                        
   LEXCH  = PE                                                                                      
   EATOM  =    12.4884 eV,    0.9179 Ry                                                             
                                                                                                    
   TITEL  = PAW_PBE H_h 06Feb2004                                                                   
   LULTRA =        F    use ultrasoft PP ?                                                          
   IUNSCR =        0    unscreen: 0-lin 1-nonlin 2-no                                               
   RPACOR =    0.000    partial core radius                                                         
   POMASS =    1.000; ZVAL   =    1.000    mass and valenz                                          
   RCORE  =    0.800    outmost cutoff radius                                                       
   RWIGS  =    0.700; RWIGS  =    0.370    wigner-seitz radius (au A)                               
   ENMAX  =  700.000; ENMIN  =  350.000 eV                                                          
   RCLOC  =    0.701    cutoff for local pot                                                        
   LCOR   =        T    correct aug charges                                                         
   LPAW   =        T    paw PP                                                                      
   EAUG   = 1000.000                                                                                
   RMAX   =    0.819    core radius for proj-oper                                                   
   RAUG   =    1.000    factor for augmentation sphere                                              
   RDEP   =    0.817    radius for radial grids                                                     
   RDEPT  =    0.817    core radius for aug-charge                                                  
                                                                                                    
   Atomic configuration                                                                             
    2 entries                                                                                       
     n  l   j            E        occ.                                                              
     1  0  0.50        -6.4927   1.0000                                                             
     2  1  0.50        -3.4015   0.0000                                                             
   Description                                                                                      
     l       E           TYP  RCUT    TYP  RCUT                                                     
     0     -6.4927493     23  0.800                                                                 
     0      6.8029130     23  0.800                                                                 
     1     -6.8029130     23  0.800                                                                 
  local pseudopotential read in
  atomic valenz-charges read in
  non local Contribution for L=           0  read in
    real space projection operators read in
  non local Contribution for L=           0  read in
    real space projection operators read in
  non local Contribution for L=           1  read in
    real space projection operators read in
    PAW grid and wavefunctions read in

   number of l-projection  operators is LMAX  =           3
   number of lm-projection operators is LMMAX =           5

 -----------------------------------------------------------------------------
|                                                                             |
|               ----> ADVICE to this user running VASP <----                  |
|                                                                             |
|     You have a (more or less) 'large supercell' and for larger cells it     |
|     might be more efficient to use real-space projection operators.         |
|     Therefore, try LREAL= Auto in the INCAR file.                           |
|     Mind: For very accurate calculation, you might also keep the            |
|     reciprocal projection scheme (i.e. LREAL=.FALSE.).                      |
|                                                                             |
 -----------------------------------------------------------------------------

 -----------------------------------------------------------------------------
|                                                                             |
|               ----> ADVICE to this user running VASP <----                  |
|                                                                             |
|     You enforced a specific xc type in the INCAR file but a different       |
|     type was found in the POTCAR file.                                      |
|     I HOPE YOU KNOW WHAT YOU ARE DOING!                                     |
|                                                                             |
 -----------------------------------------------------------------------------

  PAW_PBE C_h 06Feb2004                 :
 energy of atom  1       EATOM= -147.1560
 kinetic energy error for atom=    0.0031 (will be added to EATOM!!)
  PAW_PBE O_h 06Feb2004                 :
 energy of atom  2       EATOM= -432.3788
 kinetic energy error for atom=    0.0171 (will be added to EATOM!!)
  PAW_PBE N_h 06Feb2004                 :
 energy of atom  3       EATOM= -264.5486
 kinetic energy error for atom=    0.0081 (will be added to EATOM!!)
  PAW_PBE H_h 06Feb2004                 :
 energy of atom  4       EATOM=  -12.4884
 kinetic energy error for atom=    0.0006 (will be added to EATOM!!)


 POSCAR:  C  O  N  H
  positions in cartesian coordinates
  No initial velocities read in
 exchange correlation table for  LEXCH =       41
   RHO(1)=    0.500       N(1)  =     2000
   RHO(2)=  100.500       N(2)  =     4000

 VTST: version 4.1, (05/19/21)

 CHAIN: initializing optimizer
 
 OPT: Using VASP Dynamics algorithm
 CHAIN: Read ICHAIN            0

 POSCAR:  C  O  N  H
  positions in cartesian coordinates
  No initial velocities read in



--------------------------------------------------------------------------------------------------------


 ion  position               nearest neighbor table
   1  0.332  0.055  0.257-  21 1.11   5 1.25   9 1.33
   2  0.668  0.945  0.743-  22 1.11   6 1.25  10 1.33
   3  0.168  0.555  0.243-  23 1.11   7 1.25  11 1.33
   4  0.832  0.445  0.757-  24 1.11   8 1.25  12 1.33
   5  0.474  0.929  0.248-   1 1.25
   6  0.526  0.071  0.752-   2 1.25
   7  0.026  0.429  0.252-   3 1.25
   8  0.974  0.571  0.748-   4 1.25
   9  0.294  0.156  0.117-  13 1.03  17 1.03   1 1.33
  10  0.706  0.844  0.883-  14 1.03  18 1.03   2 1.33
  11  0.206  0.656  0.383-  15 1.03  19 1.03   3 1.33
  12  0.794  0.344  0.617-  16 1.03  20 1.03   4 1.33
  13  0.189  0.258  0.142-   9 1.03
  14  0.811  0.742  0.858-  10 1.03
  15  0.311  0.758  0.358-  11 1.03
  16  0.689  0.242  0.642-  12 1.03
  17  0.377  0.132  0.987-   9 1.03
  18  0.623  0.868  0.013-  10 1.03
  19  0.123  0.632  0.513-  11 1.03
  20  0.877  0.368  0.487-  12 1.03
  21  0.231  0.090  0.390-   1 1.11
  22  0.769  0.910  0.610-   2 1.11
  23  0.269  0.590  0.110-   3 1.11
  24  0.731  0.410  0.890-   4 1.11

  LATTYP: Found a simple monoclinic cell.
 ALAT       =     3.6040000000
 B/A-ratio  =     2.5086015538
 C/A-ratio  =     1.9406204551
 COS(beta)  =    -0.1822363036
  
  Lattice vectors:
  
 A1 = (   3.6040000000,   0.0000000000,   0.0000000000)
 A2 = (   0.0000000000,   9.0410000000,   0.0000000000)
 A3 = (  -1.2745600000,   0.0000000000,   6.8768800000)


Analysis of symmetry for initial positions (statically):
=====================================================================
 Subroutine PRICEL returns:
 Original cell was already a primitive cell.
 

 Routine SETGRP: Setting up the symmetry group for a 
 simple monoclinic supercell.


 Subroutine GETGRP returns: Found  1 space group operations
 (whereof  1 operations were pure point group operations)
 out of a pool of  4 trial point group operations.


The static configuration has the point symmetry C_1 .


Analysis of symmetry for dynamics (positions and initial velocities):
=====================================================================
 Subroutine PRICEL returns:
 Original cell was already a primitive cell.
 

 Routine SETGRP: Setting up the symmetry group for a 
 simple monoclinic supercell.


 Subroutine GETGRP returns: Found  1 space group operations
 (whereof  1 operations were pure point group operations)
 out of a pool of  4 trial point group operations.


The dynamic configuration has the point symmetry C_1 .


 Subroutine INISYM returns: Found  1 space group operations
 (whereof  1 operations are pure point group operations),
 and found     1 'primitive' translations


----------------------------------------------------------------------------------------

                                     Primitive cell                                     

  volume of cell :     224.0746

  direct lattice vectors                    reciprocal lattice vectors
     3.604000000  0.000000000  0.000000000     0.277469478 -0.000000000  0.051426155
     0.000000000  9.041000000  0.000000000     0.000000000  0.110607234 -0.000000000
    -1.274560000  0.000000000  6.876880000     0.000000000  0.000000000  0.145414781

  length of vectors
     3.604000000  9.041000000  6.993996120     0.282194899  0.110607234  0.145414781

  position of ions in fractional coordinates (direct lattice)
     0.332035180  0.055078096  0.257321301
     0.667972969  0.944921904  0.742676847
     0.167965676  0.555067450  0.242675853
     0.832033720  0.444910090  0.757331833
     0.473768378  0.929215195  0.248297155
     0.526246655  0.070782293  0.751702361
     0.026231264  0.429212025  0.251703950
     0.973768736  0.570769425  0.748309174
     0.294445496  0.156005827  0.117042932
     0.705565224  0.843993451  0.882958795
     0.205547460  0.655999348  0.382955471
     0.794445909  0.343982590  0.617051648
     0.188576548  0.258378242  0.142409120
     0.811427489  0.741619094  0.857598341
     0.311430078  0.758374237  0.357589341
     0.688563440  0.241607514  0.642419811
     0.376907556  0.131796327  0.986750688
     0.623100706  0.868203990  0.013249312
     0.123091887  0.631792104  0.513242412
     0.876903280  0.368191668  0.486762024
     0.230780242  0.090412467  0.390248948
     0.769233524  0.909585154  0.609751050
     0.269234465  0.590400611  0.109750112
     0.730775104  0.409578996  0.890260578

  ion indices of the primitive-cell ions
   primitive index   ion index
                 1           1
                 2           2
                 3           3
                 4           4
                 5           5
                 6           6
                 7           7
                 8           8
                 9           9
                10          10
                11          11
                12          12
                13          13
                14          14
                15          15
                16          16
                17          17
                18          18
                19          19
                20          20
                21          21
                22          22
                23          23
                24          24

----------------------------------------------------------------------------------------



 KPOINTS: auto                                    

Automatic generation of k-mesh.
 Grid dimensions read from file:
 generate k-points for:    7    3    4

 Generating k-lattice:

  Cartesian coordinates                     Fractional coordinates (reciprocal lattice)
     0.039638497 -0.000000000  0.007346594     0.142857143  0.000000000 -0.000000000
     0.000000000  0.036869078 -0.000000000     0.000000000  0.333333333  0.000000000
     0.000000000  0.000000000  0.036353695     0.000000000  0.000000000  0.250000000

  Length of vectors
     0.040313557  0.036869078  0.036353695

  Shift w.r.t. Gamma in fractional coordinates (k-lattice)
     0.000000000  0.000000000  0.000000000

 
 Subroutine IBZKPT returns following result:
 ===========================================
 
 Found     43 irreducible k-points:
 
 Following reciprocal coordinates:
            Coordinates               Weight
  0.000000  0.000000  0.000000      1.000000
  0.142857  0.000000  0.000000      2.000000
  0.285714  0.000000  0.000000      2.000000
  0.428571  0.000000  0.000000      2.000000
  0.000000  0.333333  0.000000      2.000000
  0.142857  0.333333  0.000000      2.000000
 -0.142857  0.333333  0.000000      2.000000
  0.285714  0.333333  0.000000      2.000000
 -0.285714  0.333333  0.000000      2.000000
  0.428571  0.333333  0.000000      2.000000
 -0.428571  0.333333  0.000000      2.000000
  0.000000  0.000000  0.250000      2.000000
  0.142857  0.000000  0.250000      2.000000
  0.285714  0.000000  0.250000      2.000000
  0.428571  0.000000  0.250000      2.000000
 -0.428571  0.000000  0.250000      2.000000
 -0.285714  0.000000  0.250000      2.000000
 -0.142857  0.000000  0.250000      2.000000
  0.000000  0.333333  0.250000      2.000000
  0.000000  0.333333 -0.250000      2.000000
  0.142857  0.333333  0.250000      2.000000
 -0.142857  0.333333 -0.250000      2.000000
  0.285714  0.333333  0.250000      2.000000
 -0.285714  0.333333 -0.250000      2.000000
  0.428571  0.333333  0.250000      2.000000
 -0.428571  0.333333 -0.250000      2.000000
 -0.428571  0.333333  0.250000      2.000000
  0.428571  0.333333 -0.250000      2.000000
 -0.285714  0.333333  0.250000      2.000000
  0.285714  0.333333 -0.250000      2.000000
 -0.142857  0.333333  0.250000      2.000000
  0.142857  0.333333 -0.250000      2.000000
  0.000000  0.000000  0.500000      1.000000
  0.142857  0.000000  0.500000      2.000000
  0.285714  0.000000  0.500000      2.000000
  0.428571  0.000000  0.500000      2.000000
  0.000000  0.333333  0.500000      2.000000
  0.142857  0.333333  0.500000      2.000000
 -0.142857  0.333333  0.500000      2.000000
  0.285714  0.333333  0.500000      2.000000
 -0.285714  0.333333  0.500000      2.000000
  0.428571  0.333333  0.500000      2.000000
 -0.428571  0.333333  0.500000      2.000000
 
 Following cartesian coordinates:
            Coordinates               Weight
  0.000000  0.000000  0.000000      1.000000
  0.039638  0.000000  0.007347      2.000000
  0.079277  0.000000  0.014693      2.000000
  0.118915  0.000000  0.022040      2.000000
  0.000000  0.036869  0.000000      2.000000
  0.039638  0.036869  0.007347      2.000000
 -0.039638  0.036869 -0.007347      2.000000
  0.079277  0.036869  0.014693      2.000000
 -0.079277  0.036869 -0.014693      2.000000
  0.118915  0.036869  0.022040      2.000000
 -0.118915  0.036869 -0.022040      2.000000
  0.000000  0.000000  0.036354      2.000000
  0.039638  0.000000  0.043700      2.000000
  0.079277  0.000000  0.051047      2.000000
  0.118915  0.000000  0.058393      2.000000
 -0.118915  0.000000  0.014314      2.000000
 -0.079277  0.000000  0.021661      2.000000
 -0.039638  0.000000  0.029007      2.000000
  0.000000  0.036869  0.036354      2.000000
  0.000000  0.036869 -0.036354      2.000000
  0.039638  0.036869  0.043700      2.000000
 -0.039638  0.036869 -0.043700      2.000000
  0.079277  0.036869  0.051047      2.000000
 -0.079277  0.036869 -0.051047      2.000000
  0.118915  0.036869  0.058393      2.000000
 -0.118915  0.036869 -0.058393      2.000000
 -0.118915  0.036869  0.014314      2.000000
  0.118915  0.036869 -0.014314      2.000000
 -0.079277  0.036869  0.021661      2.000000
  0.079277  0.036869 -0.021661      2.000000
 -0.039638  0.036869  0.029007      2.000000
  0.039638  0.036869 -0.029007      2.000000
  0.000000  0.000000  0.072707      1.000000
  0.039638  0.000000  0.080054      2.000000
  0.079277  0.000000  0.087401      2.000000
  0.118915  0.000000  0.094747      2.000000
  0.000000  0.036869  0.072707      2.000000
  0.039638  0.036869  0.080054      2.000000
 -0.039638  0.036869  0.065361      2.000000
  0.079277  0.036869  0.087401      2.000000
 -0.079277  0.036869  0.058014      2.000000
  0.118915  0.036869  0.094747      2.000000
 -0.118915  0.036869  0.050668      2.000000
 


--------------------------------------------------------------------------------------------------------




 Dimension of arrays:
   k-points           NKPTS =     43   k-points in BZ     NKDIM =     43   number of bands    NBANDS=     52
   number of dos      NEDOS =    301   number of ions     NIONS =     24
   non local maximal  LDIM  =      4   non local SUM 2l+1 LMDIM =      8
   total plane-waves  NPLWV = 276480
   max r-space proj   IRMAX =      1   max aug-charges    IRDMAX=   9197
   dimension x,y,z NGX =    40 NGY =   96 NGZ =   72
   dimension x,y,z NGXF=    80 NGYF=  192 NGZF=  144
   support grid    NGXF=    80 NGYF=  192 NGZF=  144
   ions per type =               4   4   4  12
   NGX,Y,Z   is equivalent  to a cutoff of  18.45, 17.65, 17.11 a.u.
   NGXF,Y,Z  is equivalent  to a cutoff of  36.90, 35.30, 34.23 a.u.

 SYSTEM =  unknown system                          
 POSCAR =   C  O  N  H                             

 Startparameter for this run:
   NWRITE =      2    write-flag & timer
   PREC   = accura    normal or accurate (medium, high low for compatibility)
   ISTART =      0    job   : 0-new  1-cont  2-samecut
   ICHARG =      2    charge: 1-file 2-atom 10-const
   ISPIN  =      1    spin polarized calculation?
   LNONCOLLINEAR =      F non collinear calculations
   LSORBIT =      F    spin-orbit coupling
   INIWAV =      1    electr: 0-lowe 1-rand  2-diag
   LASPH  =      T    aspherical Exc in radial PAW
 Electronic Relaxation 1
   ENCUT  = 1000.0 eV  73.50 Ry    8.57 a.u.   9.29 23.31 18.03*2*pi/ulx,y,z
   ENINI  = 1000.0     initial cutoff
   ENAUG  = 1000.0 eV  augmentation charge cutoff
   NELM   =     60;   NELMIN=  2; NELMDL= -5     # of ELM steps 
   EDIFF  = 0.1E-06   stopping-criterion for ELM
   LREAL  =      F    real-space projection
   NLSPLINE    = F    spline interpolate recip. space projectors
   LCOMPAT=      F    compatible to vasp.4.4
   GGA_COMPAT  = T    GGA compatible to vasp.4.4-vasp.4.6
   LMAXPAW     = -100 max onsite density
   LMAXMIX     =    2 max onsite mixed and CHGCAR
   VOSKOWN=      0    Vosko Wilk Nusair interpolation
   ROPT   =    0.00000   0.00000   0.00000   0.00000
 Ionic relaxation
   EDIFFG = 0.1E-05   stopping-criterion for IOM
   NSW    =      0    number of steps for IOM
   NBLOCK =      1;   KBLOCK =      1    inner block; outer block 
   IBRION =     -1    ionic relax: 0-MD 1-quasi-New 2-CG
   NFREE  =      0    steps in history (QN), initial steepest desc. (CG)
   ISIF   =      0    stress and relaxation
   IWAVPR =     10    prediction:  0-non 1-charg 2-wave 3-comb
   ISYM   =      2    0-nonsym 1-usesym 2-fastsym
   LCORR  =      T    Harris-Foulkes like correction to forces

   POTIM  = 0.5000    time-step for ionic-motion
   TEIN   =    0.0    initial temperature
   TEBEG  =    0.0;   TEEND  =   0.0 temperature during run
   SMASS  =  -3.00    Nose mass-parameter (am)
   estimated Nose-frequenzy (Omega)   =  0.10E-29 period in steps = 0.13E+47 mass=  -0.297E-27a.u.
   SCALEE = 1.0000    scale energy and forces
   NPACO  =    256;   APACO  = 10.0  distance and # of slots for P.C.
   PSTRESS=    0.0 pullay stress

  Mass of Ions in am
   POMASS =  12.01 16.00 14.00  1.00
  Ionic Valenz
   ZVAL   =   4.00  6.00  5.00  1.00
  Atomic Wigner-Seitz radii
   RWIGS  =  -1.00 -1.00 -1.00 -1.00
  virtual crystal weights 
   VCA    =   1.00  1.00  1.00  1.00
   NELECT =      72.0000    total number of electrons
   NUPDOWN=      -1.0000    fix difference up-down

 DOS related values:
   EMIN   =  10.00;   EMAX   =-10.00  energy-range for DOS
   EFERMI =   0.00;   METHOD = LEGACY      
   ISMEAR =     0;   SIGMA  =   0.01  broadening in eV -4-tet -1-fermi 0-gaus

 Electronic relaxation 2 (details)
   IALGO  =     58    algorithm
   LDIAG  =      T    sub-space diagonalisation (order eigenvalues)
   LSUBROT=      F    optimize rotation matrix (better conditioning)
   TURBO    =      0    0=normal 1=particle mesh
   IRESTART =      0    0=no restart 2=restart with 2 vectors
   NREBOOT  =      0    no. of reboots
   NMIN     =      0    reboot dimension
   EREF     =   0.00    reference energy to select bands
   IMIX   =      4    mixing-type and parameters
     AMIX     =   0.40;   BMIX     =  1.00
     AMIX_MAG =   1.60;   BMIX_MAG =  1.00
     AMIN     =   0.10
     WC   =   100.;   INIMIX=   1;  MIXPRE=   1;  MAXMIX= -45

 Intra band minimization:
   WEIMIN = 0.0000     energy-eigenvalue tresh-hold
   EBREAK =  0.48E-09  absolut break condition
   DEPER  =   0.30     relativ break condition  

   TIME   =   0.40     timestep for ELM

  volume/ion in A,a.u.               =       9.34        63.01
  Fermi-wavevector in a.u.,A,eV,Ry     =   1.121299  2.118948 17.106760  1.257311
  Thomas-Fermi vector in A             =   2.257952

 Write flags
   LWAVE        =      F    write WAVECAR
   LDOWNSAMPLE  =      F    k-point downsampling of WAVECAR
   LCHARG       =      T    write CHGCAR
   LVTOT        =      F    write LOCPOT, total local potential
   LVHAR        =      F    write LOCPOT, Hartree potential only
   LELF         =      F    write electronic localiz. function (ELF)
   LORBIT       =      0    0 simple, 1 ext, 2 COOP (PROOUT), +10 PAW based schemes


 Dipole corrections
   LMONO  =      F    monopole corrections only (constant potential shift)
   LDIPOL =      F    correct potential (dipole corrections)
   IDIPOL =      0    1-x, 2-y, 3-z, 4-all directions 
   EPSILON=  1.0000000 bulk dielectric constant

 Exchange correlation treatment:
   GGA     =    OR    GGA type
   LEXCH   =    41    internal setting for exchange type
   LIBXC   =     F    Libxc                    
   VOSKOWN =     0    Vosko Wilk Nusair interpolation
   LHFCALC =     F    Hartree Fock is set to
   LHFONE  =     F    Hartree Fock one center treatment
   AEXX    =    0.0000 exact exchange contribution

 vdW DFT:
   LUSE_VDW   =     T    switch on vdW DFT
   IVDW_NL    =     1    kernel type
   LSPIN_VDW  =     F    use spin-polarized vdW DFT
   Zab_VDW    =-.8491    correlation parameter
   PARAM1     =0.1234
   PARAM2     =1.0000
   PARAM3     =0.0000
   -- rVV10 --
   BPARAM     = 6.3000
   CPARAM     = 0.0093

 Linear response parameters
   LEPSILON=     F    determine dielectric tensor
   LRPA    =     F    only Hartree local field effects (RPA)
   LNABLA  =     F    use nabla operator in PAW spheres
   LVEL    =     F    velocity operator in full k-point grid
   CSHIFT  =0.1000    complex shift for real part using Kramers Kronig
   OMEGAMAX=  -1.0    maximum frequency
   DEG_THRESHOLD= 0.2000000E-02 threshold for treating states as degnerate
   RTIME   =   -0.100 relaxation time in fs
  (WPLASMAI=    0.000 imaginary part of plasma frequency in eV, 0.658/RTIME)
   DFIELD  = 0.0000000 0.0000000 0.0000000 field for delta impulse in time

  Optional k-point grid parameters
   LKPOINTS_OPT  =     F    use optional k-point grid
   KPOINTS_OPT_MODE=     1    mode for optional k-point grid

 Orbital magnetization related:
   ORBITALMAG=     F  switch on orbital magnetization
   LCHIMAG   =     F  perturbation theory with respect to B field
   DQ        =  0.001000  dq finite difference perturbation B field
   LLRAUG    =     F  two centre corrections for induced B field
   LBONE     =     F  B-component reconstruction in AE one-centre
   LVGVCALC  =     T  calculate vGv susceptibility
   LVGVAPPL  =     F  apply vGv susceptibility instead of pGv for G=0

 Random number generation:
   RANDOM_GENERATOR = DEFAULT
   PCG_SEED         = not used


--------------------------------------------------------------------------------------------------------


 Static calculation
 charge density and potential will be updated during run
 non-spin polarized calculation
 Conjugate gradient for all bands (Freysoldt, et al. PRB 79, 241103 (2009))
 preconditioned conjugated gradient                                        
 perform sub-space diagonalisation
    before iterative eigenvector-optimisation
 modified Broyden-mixing scheme, WC =      100.0
 initial mixing is a Kerker type mixing with AMIX =  0.4000 and BMIX =      1.0000
 Hartree-type preconditioning will be used
 using additional bands           16
 reciprocal scheme for non local part
 use partial core corrections
 no Harris-corrections to forces 
 use gradient corrections 
 use of overlap-Matrix (Vanderbilt PP)
 Gauss-broadening in eV      SIGMA  =   0.01


--------------------------------------------------------------------------------------------------------


  energy-cutoff  :     1000.00
  volume of cell :      224.07
      direct lattice vectors                 reciprocal lattice vectors
     3.604000000  0.000000000  0.000000000     0.277469478 -0.000000000  0.051426155
     0.000000000  9.041000000  0.000000000     0.000000000  0.110607234 -0.000000000
    -1.274560000  0.000000000  6.876880000     0.000000000  0.000000000  0.145414781

  length of vectors
     3.604000000  9.041000000  6.993996120     0.282194899  0.110607234  0.145414781



 k-points in units of 2pi/SCALE and weight: auto                                    
   0.00000000  0.00000000  0.00000000       0.012
   0.03963850  0.00000000  0.00734659       0.024
   0.07927699  0.00000000  0.01469319       0.024
   0.11891549  0.00000000  0.02203978       0.024
   0.00000000  0.03686908  0.00000000       0.024
   0.03963850  0.03686908  0.00734659       0.024
  -0.03963850  0.03686908 -0.00734659       0.024
   0.07927699  0.03686908  0.01469319       0.024
  -0.07927699  0.03686908 -0.01469319       0.024
   0.11891549  0.03686908  0.02203978       0.024
  -0.11891549  0.03686908 -0.02203978       0.024
   0.00000000  0.00000000  0.03635370       0.024
   0.03963850  0.00000000  0.04370029       0.024
   0.07927699  0.00000000  0.05104688       0.024
   0.11891549  0.00000000  0.05839348       0.024
  -0.11891549  0.00000000  0.01431391       0.024
  -0.07927699  0.00000000  0.02166051       0.024
  -0.03963850  0.00000000  0.02900710       0.024
   0.00000000  0.03686908  0.03635370       0.024
   0.00000000  0.03686908 -0.03635370       0.024
   0.03963850  0.03686908  0.04370029       0.024
  -0.03963850  0.03686908 -0.04370029       0.024
   0.07927699  0.03686908  0.05104688       0.024
  -0.07927699  0.03686908 -0.05104688       0.024
   0.11891549  0.03686908  0.05839348       0.024
  -0.11891549  0.03686908 -0.05839348       0.024
  -0.11891549  0.03686908  0.01431391       0.024
   0.11891549  0.03686908 -0.01431391       0.024
  -0.07927699  0.03686908  0.02166051       0.024
   0.07927699  0.03686908 -0.02166051       0.024
  -0.03963850  0.03686908  0.02900710       0.024
   0.03963850  0.03686908 -0.02900710       0.024
   0.00000000  0.00000000  0.07270739       0.012
   0.03963850  0.00000000  0.08005398       0.024
   0.07927699  0.00000000  0.08740058       0.024
   0.11891549  0.00000000  0.09474717       0.024
   0.00000000  0.03686908  0.07270739       0.024
   0.03963850  0.03686908  0.08005398       0.024
  -0.03963850  0.03686908  0.06536080       0.024
   0.07927699  0.03686908  0.08740058       0.024
  -0.07927699  0.03686908  0.05801420       0.024
   0.11891549  0.03686908  0.09474717       0.024
  -0.11891549  0.03686908  0.05066761       0.024

 k-points in reciprocal lattice and weights: auto                                    
   0.00000000  0.00000000  0.00000000       0.012
   0.14285714  0.00000000  0.00000000       0.024
   0.28571429  0.00000000  0.00000000       0.024
   0.42857143  0.00000000  0.00000000       0.024
   0.00000000  0.33333333  0.00000000       0.024
   0.14285714  0.33333333  0.00000000       0.024
  -0.14285714  0.33333333  0.00000000       0.024
   0.28571429  0.33333333  0.00000000       0.024
  -0.28571429  0.33333333  0.00000000       0.024
   0.42857143  0.33333333  0.00000000       0.024
  -0.42857143  0.33333333  0.00000000       0.024
   0.00000000  0.00000000  0.25000000       0.024
   0.14285714  0.00000000  0.25000000       0.024
   0.28571429  0.00000000  0.25000000       0.024
   0.42857143  0.00000000  0.25000000       0.024
  -0.42857143  0.00000000  0.25000000       0.024
  -0.28571429  0.00000000  0.25000000       0.024
  -0.14285714  0.00000000  0.25000000       0.024
   0.00000000  0.33333333  0.25000000       0.024
   0.00000000  0.33333333 -0.25000000       0.024
   0.14285714  0.33333333  0.25000000       0.024
  -0.14285714  0.33333333 -0.25000000       0.024
   0.28571429  0.33333333  0.25000000       0.024
  -0.28571429  0.33333333 -0.25000000       0.024
   0.42857143  0.33333333  0.25000000       0.024
  -0.42857143  0.33333333 -0.25000000       0.024
  -0.42857143  0.33333333  0.25000000       0.024
   0.42857143  0.33333333 -0.25000000       0.024
  -0.28571429  0.33333333  0.25000000       0.024
   0.28571429  0.33333333 -0.25000000       0.024
  -0.14285714  0.33333333  0.25000000       0.024
   0.14285714  0.33333333 -0.25000000       0.024
   0.00000000  0.00000000  0.50000000       0.012
   0.14285714  0.00000000  0.50000000       0.024
   0.28571429  0.00000000  0.50000000       0.024
   0.42857143  0.00000000  0.50000000       0.024
   0.00000000  0.33333333  0.50000000       0.024
   0.14285714  0.33333333  0.50000000       0.024
  -0.14285714  0.33333333  0.50000000       0.024
   0.28571429  0.33333333  0.50000000       0.024
  -0.28571429  0.33333333  0.50000000       0.024
   0.42857143  0.33333333  0.50000000       0.024
  -0.42857143  0.33333333  0.50000000       0.024

 position of ions in fractional coordinates (direct lattice) 
   0.33203518  0.05507810  0.25732130
   0.66797297  0.94492190  0.74267685
   0.16796568  0.55506745  0.24267585
   0.83203372  0.44491009  0.75733183
   0.47376838  0.92921519  0.24829715
   0.52624666  0.07078229  0.75170236
   0.02623126  0.42921202  0.25170395
   0.97376874  0.57076943  0.74830917
   0.29444550  0.15600583  0.11704293
   0.70556522  0.84399345  0.88295880
   0.20554746  0.65599935  0.38295547
   0.79444591  0.34398259  0.61705165
   0.18857655  0.25837824  0.14240912
   0.81142749  0.74161909  0.85759834
   0.31143008  0.75837424  0.35758934
   0.68856344  0.24160751  0.64241981
   0.37690756  0.13179633  0.98675069
   0.62310071  0.86820399  0.01324931
   0.12309189  0.63179210  0.51324241
   0.87690328  0.36819167  0.48676202
   0.23078024  0.09041247  0.39024895
   0.76923352  0.90958515  0.60975105
   0.26923447  0.59040061  0.10975011
   0.73077510  0.40957900  0.89026058

 position of ions in cartesian coordinates  (Angst):
   0.86868335  0.49796107  1.76956771
   1.46078838  8.54303893  5.10729956
   0.29604336  5.01836482  1.66885272
   2.03338466  4.02243212  5.20808014
   1.39099161  8.40103458  1.70750974
   0.93850318  0.63994271  5.16936693
  -0.22627431  3.88050592  1.73093786
   2.55569758  5.16032638  5.14603239
   0.91200333  1.41044869  0.80489020
   1.41747311  7.63054479  6.07200168
   0.25269332  5.93089010  2.63353882
   2.07671371  3.10994660  4.24339014
   0.49812091  2.33599769  0.97933043
   1.83132413  6.70497823  5.89760088
   0.66662493  6.85646147  2.45909899
   1.66278004  2.18437354  4.41784395
   0.10070188  1.19157059  6.78576607
   2.22876790  7.84943228  0.09111393
  -0.21053509  5.71203241  3.52950647
   2.53995202  3.32882087  3.34740403
   0.33433629  0.81741912  2.68369519
   1.99515332  8.22355938  4.19318480
   0.83043791  5.33781192  0.75473835
   1.49902295  3.70300371  6.12221516



--------------------------------------------------------------------------------------------------------


 k-point   1 :   0.0000 0.0000 0.0000  plane waves:   16099
 k-point   2 :   0.1429 0.0000 0.0000  plane waves:   16088
 k-point   3 :   0.2857 0.0000 0.0000  plane waves:   16074
 k-point   4 :   0.4286 0.0000 0.0000  plane waves:   16083
 k-point   5 :   0.0000 0.3333 0.0000  plane waves:   16112
 k-point   6 :   0.1429 0.3333 0.0000  plane waves:   16092
 k-point   7 :  -0.1429 0.3333 0.0000  plane waves:   16092
 k-point   8 :   0.2857 0.3333 0.0000  plane waves:   16059
 k-point   9 :  -0.2857 0.3333 0.0000  plane waves:   16059
 k-point  10 :   0.4286 0.3333 0.0000  plane waves:   16083
 k-point  11 :  -0.4286 0.3333 0.0000  plane waves:   16083
 k-point  12 :   0.0000 0.0000 0.2500  plane waves:   16086
 k-point  13 :   0.1429 0.0000 0.2500  plane waves:   16093
 k-point  14 :   0.2857 0.0000 0.2500  plane waves:   16099
 k-point  15 :   0.4286 0.0000 0.2500  plane waves:   16110
 k-point  16 :  -0.4286 0.0000 0.2500  plane waves:   16101
 k-point  17 :  -0.2857 0.0000 0.2500  plane waves:   16100
 k-point  18 :  -0.1429 0.0000 0.2500  plane waves:   16098
 k-point  19 :   0.0000 0.3333 0.2500  plane waves:   16106
 k-point  20 :   0.0000 0.3333-0.2500  plane waves:   16106
 k-point  21 :   0.1429 0.3333 0.2500  plane waves:   16086
 k-point  22 :  -0.1429 0.3333-0.2500  plane waves:   16086
 k-point  23 :   0.2857 0.3333 0.2500  plane waves:   16081
 k-point  24 :  -0.2857 0.3333-0.2500  plane waves:   16081
 k-point  25 :   0.4286 0.3333 0.2500  plane waves:   16088
 k-point  26 :  -0.4286 0.3333-0.2500  plane waves:   16088
 k-point  27 :  -0.4286 0.3333 0.2500  plane waves:   16077
 k-point  28 :   0.4286 0.3333-0.2500  plane waves:   16077
 k-point  29 :  -0.2857 0.3333 0.2500  plane waves:   16075
 k-point  30 :   0.2857 0.3333-0.2500  plane waves:   16075
 k-point  31 :  -0.1429 0.3333 0.2500  plane waves:   16107
 k-point  32 :   0.1429 0.3333-0.2500  plane waves:   16107
 k-point  33 :   0.0000 0.0000 0.5000  plane waves:   16110
 k-point  34 :   0.1429 0.0000 0.5000  plane waves:   16095
 k-point  35 :   0.2857 0.0000 0.5000  plane waves:   16090
 k-point  36 :   0.4286 0.0000 0.5000  plane waves:   16056
 k-point  37 :   0.0000 0.3333 0.5000  plane waves:   16112
 k-point  38 :   0.1429 0.3333 0.5000  plane waves:   16105
 k-point  39 :  -0.1429 0.3333 0.5000  plane waves:   16105
 k-point  40 :   0.2857 0.3333 0.5000  plane waves:   16088
 k-point  41 :  -0.2857 0.3333 0.5000  plane waves:   16088
 k-point  42 :   0.4286 0.3333 0.5000  plane waves:   16096
 k-point  43 :  -0.4286 0.3333 0.5000  plane waves:   16096

 maximum and minimum number of plane-waves per node :       521      484

 maximum number of plane-waves:     16112
 maximum index in each direction: 
   IXMAX=    9   IYMAX=   23   IZMAX=   18
   IXMIN=   -9   IYMIN=  -23   IZMIN=  -18


 parallel 3D FFT for wavefunctions:
    minimum data exchange during FFTs selected (reduces bandwidth)
 parallel 3D FFT for charge:
    minimum data exchange during FFTs selected (reduces bandwidth)


 total amount of memory used by VASP MPI-rank0    53516. kBytes
=======================================================================

   base      :      30000. kBytes
   nonl-proj :       5787. kBytes
   fftplans  :       1313. kBytes
   grid      :       2568. kBytes
   one-center:          3. kBytes
   wavefun   :      13845. kBytes

     INWAV:  cpu time      0.0001: real time      0.0003
 Broyden mixing: mesh for mixing (old mesh)
   NGX = 19   NGY = 47   NGZ = 37
  (NGX  = 80   NGY  =192   NGZ  =144)
  gives a total of  33041 points

 initial charge density was supplied:
 charge density of overlapping atoms calculated
 number of electron      72.0000000 magnetization 
 keeping initial charge density in first step


--------------------------------------------------------------------------------------------------------


 Maximum index for augmentation-charges          471 (set IRDMAX)


--------------------------------------------------------------------------------------------------------


 First call to EWALD:  gamma=   0.292
 Maximum number of real-space cells 4x 2x 2
 Maximum number of reciprocal cells 2x 4x 3

    FEWALD:  cpu time      0.0017: real time      0.0017


--------------------------------------- Ionic step        1  -------------------------------------------




--------------------------------------- Iteration      1(   1)  ---------------------------------------


vdW kernel read from vdw_kernel.bindat
  0.0000  0.2424  0.5071  0.7962  1.1119  1.4567  1.8333  2.2446  2.6937  3.1842
  3.7199  4.3049  4.9438  5.6415  6.4036  7.2358  8.1446  9.1372 10.2212 11.4050
 12.6979 14.1099 15.6519 17.3360 19.1751 21.1837 23.3773 25.7729 28.3892 31.2465
 34.3669 37.7748 41.4965 45.5611 50.0000

    POTLOK:  cpu time      1.4209: real time      1.4237
    SETDIJ:  cpu time      0.0734: real time      0.0737
    TRIAL :  cpu time      2.0561: real time      2.0651
    CORREC:  cpu time      0.0035: real time      0.0035
    --------------------------------------------
      LOOP:  cpu time      3.5565: real time      3.5907

 eigenvalue-minimisations  :  4472
 total energy-change (2. order) : 0.6668096E+03  (-0.5461887E+04)
 number of electron      72.0000000 magnetization 
 augmentation part       72.0000000 magnetization 

 Free energy of the ion-electron system (eV)
  ---------------------------------------------------
  alpha Z        PSCENC =        66.04564387
  Ewald energy   TEWEN  =     -1794.06305543
  -Hartree energ DENC   =     -1388.40566428
  -exchange      EXHF   =         0.00000000
  -V(xc)+E(xc)   XCENC  =       223.64456429
  PAW double counting   =      2691.60275396    -2666.68780212
  entropy T*S    EENTRO =        -0.00023269
  eigenvalues    EBANDS =       -22.12288718
  atomic energy  EATOM  =      3556.79623584
  ---------------------------------------------------
  free energy    TOTEN  =       666.80955628 eV

  energy without entropy =      666.80978896  energy(sigma->0) =      666.80967262


--------------------------------------------------------------------------------------------------------




--------------------------------------- Iteration      1(   2)  ---------------------------------------


    TRIAL :  cpu time      2.4430: real time      2.4440
    CORREC:  cpu time      0.0003: real time      0.0003
    --------------------------------------------
      LOOP:  cpu time      2.4570: real time      2.4738

 eigenvalue-minimisations  :  5968
 total energy-change (2. order) :-0.6881772E+03  (-0.6585896E+03)
 number of electron      72.0000000 magnetization 
 augmentation part       72.0000000 magnetization 

 Free energy of the ion-electron system (eV)
  ---------------------------------------------------
  alpha Z        PSCENC =        66.04564387
  Ewald energy   TEWEN  =     -1794.06305543
  -Hartree energ DENC   =     -1388.40566428
  -exchange      EXHF   =         0.00000000
  -V(xc)+E(xc)   XCENC  =       223.64456429
  PAW double counting   =      2691.60275396    -2666.68780212
  entropy T*S    EENTRO =        -0.00000000
  eigenvalues    EBANDS =      -710.30032253
  atomic energy  EATOM  =      3556.79623584
  ---------------------------------------------------
  free energy    TOTEN  =       -21.36764639 eV

  energy without entropy =      -21.36764639  energy(sigma->0) =      -21.36764639


--------------------------------------------------------------------------------------------------------




--------------------------------------- Iteration      1(   3)  ---------------------------------------


    TRIAL :  cpu time      2.2457: real time      2.2464
    CORREC:  cpu time      0.0004: real time      0.0004
    --------------------------------------------
      LOOP:  cpu time      2.2614: real time      2.2751

 eigenvalue-minimisations  :  5392
 total energy-change (2. order) :-0.1119477E+03  (-0.1105909E+03)
 number of electron      72.0000000 magnetization 
 augmentation part       72.0000000 magnetization 

 Free energy of the ion-electron system (eV)
  ---------------------------------------------------
  alpha Z        PSCENC =        66.04564387
  Ewald energy   TEWEN  =     -1794.06305543
  -Hartree energ DENC   =     -1388.40566428
  -exchange      EXHF   =         0.00000000
  -V(xc)+E(xc)   XCENC  =       223.64456429
  PAW double counting   =      2691.60275396    -2666.68780212
  entropy T*S    EENTRO =        -0.00000000
  eigenvalues    EBANDS =      -822.24806174
  atomic energy  EATOM  =      3556.79623584
  ---------------------------------------------------
  free energy    TOTEN  =      -133.31538560 eV

  energy without entropy =     -133.31538560  energy(sigma->0) =     -133.31538560


--------------------------------------------------------------------------------------------------------




--------------------------------------- Iteration      1(   4)  ---------------------------------------


    TRIAL :  cpu time      2.3972: real time      2.3986
    CORREC:  cpu time      0.0004: real time      0.0004
    --------------------------------------------
      LOOP:  cpu time      2.4266: real time      2.4282

 eigenvalue-minimisations  :  5864
 total energy-change (2. order) :-0.3892056E+01  (-0.3875004E+01)
 number of electron      72.0000000 magnetization 
 augmentation part       72.0000000 magnetization 

 Free energy of the ion-electron system (eV)
  ---------------------------------------------------
  alpha Z        PSCENC =        66.04564387
  Ewald energy   TEWEN  =     -1794.06305543
  -Hartree energ DENC   =     -1388.40566428
  -exchange      EXHF   =         0.00000000
  -V(xc)+E(xc)   XCENC  =       223.64456429
  PAW double counting   =      2691.60275396    -2666.68780212
  entropy T*S    EENTRO =        -0.00000000
  eigenvalues    EBANDS =      -826.14011756
  atomic energy  EATOM  =      3556.79623584
  ---------------------------------------------------
  free energy    TOTEN  =      -137.20744143 eV

  energy without entropy =     -137.20744143  energy(sigma->0) =     -137.20744143


--------------------------------------------------------------------------------------------------------




--------------------------------------- Iteration      1(   5)  ---------------------------------------


    TRIAL :  cpu time      2.4448: real time      2.4460
    CORREC:  cpu time      0.0003: real time      0.0003
    CHARGE:  cpu time      0.0908: real time      0.0915
    --------------------------------------------
      LOOP:  cpu time      2.5470: real time      2.5652

 eigenvalue-minimisations  :  5848
 total energy-change (2. order) :-0.1160018E+00  (-0.1159182E+00)
 number of electron      72.0000000 magnetization 
 augmentation part        0.3484767 magnetization 

 Free energy of the ion-electron system (eV)
  ---------------------------------------------------
  alpha Z        PSCENC =        66.04564387
  Ewald energy   TEWEN  =     -1794.06305543
  -Hartree energ DENC   =     -1388.40566428
  -exchange      EXHF   =         0.00000000
  -V(xc)+E(xc)   XCENC  =       223.64456429
  PAW double counting   =      2691.60275396    -2666.68780212
  entropy T*S    EENTRO =        -0.00000000
  eigenvalues    EBANDS =      -826.25611932
  atomic energy  EATOM  =      3556.79623584
  ---------------------------------------------------
  free energy    TOTEN  =      -137.32344318 eV

  energy without entropy =     -137.32344318  energy(sigma->0) =     -137.32344318


--------------------------------------------------------------------------------------------------------




--------------------------------------- Iteration      1(   6)  ---------------------------------------


    POTLOK:  cpu time      0.8312: real time      0.8318
    SETDIJ:  cpu time      0.0663: real time      0.0663
    TRIAL :  cpu time      1.2022: real time      1.2036
    CORREC:  cpu time      1.5064: real time      1.5078
    CHARGE:  cpu time      0.0801: real time      0.0801
    --------------------------------------------
      LOOP:  cpu time      3.6975: real time      3.7171

 eigenvalue-minimisations  :     0
 total energy-change (2. order) : 0.2655115E+02  (-0.1272983E+02)
 number of electron      72.0000000 magnetization 
 augmentation part        0.1981626 magnetization 

 Free energy of the ion-electron system (eV)
  ---------------------------------------------------
  alpha Z        PSCENC =        66.04564387
  Ewald energy   TEWEN  =     -1794.06305543
  -Hartree energ DENC   =     -1807.27178257
  -exchange      EXHF   =         0.00000000
  -V(xc)+E(xc)   XCENC  =       250.13674452
  PAW double counting   =     23517.89132823   -23497.81506362
  entropy T*S    EENTRO =        -0.00000000
  eigenvalues    EBANDS =      -402.49234293
  atomic energy  EATOM  =      3556.79623584
  ---------------------------------------------------
  free energy    TOTEN  =      -110.77229210 eV

  energy without entropy =     -110.77229210  energy(sigma->0) =     -110.77229210


--------------------------------------------------------------------------------------------------------




--------------------------------------- Iteration      1(   7)  ---------------------------------------


    POTLOK:  cpu time      0.8316: real time      0.8318
    SETDIJ:  cpu time      0.0662: real time      0.0662
    TRIAL :  cpu time      1.1718: real time      1.1722
    CORREC:  cpu time      1.4988: real time      1.4993
    CHARGE:  cpu time      0.0778: real time      0.0784
    --------------------------------------------
      LOOP:  cpu time      3.6584: real time      3.6771

 eigenvalue-minimisations  :     0
 total energy-change (2. order) :-0.1276009E+02  (-0.1286784E+01)
 number of electron      72.0000000 magnetization 
 augmentation part        0.1443966 magnetization 

 Free energy of the ion-electron system (eV)
  ---------------------------------------------------
  alpha Z        PSCENC =        66.04564387
  Ewald energy   TEWEN  =     -1794.06305543
  -Hartree energ DENC   =     -1605.65625216
  -exchange      EXHF   =         0.00000000
  -V(xc)+E(xc)   XCENC  =       238.12312143
  PAW double counting   =     32096.95080189   -32074.45884002
  entropy T*S    EENTRO =        -0.00000000
  eigenvalues    EBANDS =      -607.27003280
  atomic energy  EATOM  =      3556.79623584
  ---------------------------------------------------
  free energy    TOTEN  =      -123.53237737 eV

  energy without entropy =     -123.53237737  energy(sigma->0) =     -123.53237737


--------------------------------------------------------------------------------------------------------




--------------------------------------- Iteration      1(   8)  ---------------------------------------


    POTLOK:  cpu time      0.8524: real time      0.8524
    SETDIJ:  cpu time      0.0663: real time      0.0663
    TRIAL :  cpu time      1.1696: real time      1.1703
    CORREC:  cpu time      1.4951: real time      1.4956
    CHARGE:  cpu time      0.0786: real time      0.0786
    --------------------------------------------
      LOOP:  cpu time      3.6732: real time      3.6928

 eigenvalue-minimisations  :     0
 total energy-change (2. order) :-0.1289446E+01  (-0.4781685E+00)
 number of electron      72.0000000 magnetization 
 augmentation part        0.1444996 magnetization 

 Free energy of the ion-electron system (eV)
  ---------------------------------------------------
  alpha Z        PSCENC =        66.04564387
  Ewald energy   TEWEN  =     -1794.06305543
  -Hartree energ DENC   =     -1598.77571802
  -exchange      EXHF   =         0.00000000
  -V(xc)+E(xc)   XCENC  =       237.71579891
  PAW double counting   =     32181.90765002   -32159.13250936
  entropy T*S    EENTRO =        -0.00000000
  eigenvalues    EBANDS =      -615.31586905
  atomic energy  EATOM  =      3556.79623584
  ---------------------------------------------------
  free energy    TOTEN  =      -124.82182321 eV

  energy without entropy =     -124.82182321  energy(sigma->0) =     -124.82182321


--------------------------------------------------------------------------------------------------------




--------------------------------------- Iteration      1(   9)  ---------------------------------------


    POTLOK:  cpu time      0.8289: real time      0.8293
    SETDIJ:  cpu time      0.0671: real time      0.0671
    TRIAL :  cpu time      1.1685: real time      1.1689
    CORREC:  cpu time      1.4963: real time      1.4970
    CHARGE:  cpu time      0.0778: real time      0.0778
    --------------------------------------------
      LOOP:  cpu time      3.6510: real time      3.6699

 eigenvalue-minimisations  :     0
 total energy-change (2. order) :-0.4742813E+00  (-0.1516638E+00)
 number of electron      72.0000000 magnetization 
 augmentation part        0.1569177 magnetization 

 Free energy of the ion-electron system (eV)
  ---------------------------------------------------
  alpha Z        PSCENC =        66.04564387
  Ewald energy   TEWEN  =     -1794.06305543
  -Hartree energ DENC   =     -1590.08314184
  -exchange      EXHF   =         0.00000000
  -V(xc)+E(xc)   XCENC  =       237.25027352
  PAW double counting   =     32230.22434454   -32207.37315751
  entropy T*S    EENTRO =        -0.00000000
  eigenvalues    EBANDS =      -624.09324749
  atomic energy  EATOM  =      3556.79623584
  ---------------------------------------------------
  free energy    TOTEN  =      -125.29610449 eV

  energy without entropy =     -125.29610449  energy(sigma->0) =     -125.29610449


--------------------------------------------------------------------------------------------------------




--------------------------------------- Iteration      1(  10)  ---------------------------------------


    POTLOK:  cpu time      0.9138: real time      0.9141
    SETDIJ:  cpu time      0.0703: real time      0.0703
    TRIAL :  cpu time      1.2063: real time      1.2067
    CORREC:  cpu time      1.5486: real time      1.5494
    CHARGE:  cpu time      0.0778: real time      0.0778
    --------------------------------------------
      LOOP:  cpu time      3.8344: real time      3.8477

 eigenvalue-minimisations  :     0
 total energy-change (2. order) :-0.1510815E+00  (-0.3533741E-01)
 number of electron      72.0000000 magnetization 
 augmentation part        0.1573884 magnetization 

 Free energy of the ion-electron system (eV)
  ---------------------------------------------------
  alpha Z        PSCENC =        66.04564387
  Ewald energy   TEWEN  =     -1794.06305543
  -Hartree energ DENC   =     -1586.96694646
  -exchange      EXHF   =         0.00000000
  -V(xc)+E(xc)   XCENC  =       237.05022147
  PAW double counting   =     31385.95633540   -31363.16722974
  entropy T*S    EENTRO =        -0.00000000
  eigenvalues    EBANDS =      -627.09839098
  atomic energy  EATOM  =      3556.79623584
  ---------------------------------------------------
  free energy    TOTEN  =      -125.44718603 eV

  energy without entropy =     -125.44718603  energy(sigma->0) =     -125.44718603


--------------------------------------------------------------------------------------------------------




--------------------------------------- Iteration      1(  11)  ---------------------------------------


    POTLOK:  cpu time      0.8304: real time      0.8307
    SETDIJ:  cpu time      0.0663: real time      0.0663
    TRIAL :  cpu time      1.1661: real time      1.1665
    CORREC:  cpu time      1.4953: real time      1.4958
    CHARGE:  cpu time      0.0778: real time      0.0778
    --------------------------------------------
      LOOP:  cpu time      3.6597: real time      3.6666

 eigenvalue-minimisations  :     0
 total energy-change (2. order) :-0.3529338E-01  (-0.6991230E-02)
 number of electron      72.0000000 magnetization 
 augmentation part        0.1571446 magnetization 

 Free energy of the ion-electron system (eV)
  ---------------------------------------------------
  alpha Z        PSCENC =        66.04564387
  Ewald energy   TEWEN  =     -1794.06305543
  -Hartree energ DENC   =     -1585.84380780
  -exchange      EXHF   =         0.00000000
  -V(xc)+E(xc)   XCENC  =       236.95973304
  PAW double counting   =     31013.32746850   -30990.55288767
  entropy T*S    EENTRO =        -0.00000000
  eigenvalues    EBANDS =      -628.15180976
  atomic energy  EATOM  =      3556.79623584
  ---------------------------------------------------
  free energy    TOTEN  =      -125.48247941 eV

  energy without entropy =     -125.48247941  energy(sigma->0) =     -125.48247941


--------------------------------------------------------------------------------------------------------




--------------------------------------- Iteration      1(  12)  ---------------------------------------


    POTLOK:  cpu time      0.8303: real time      0.8307
    SETDIJ:  cpu time      0.0663: real time      0.0663
    TRIAL :  cpu time      1.1672: real time      1.1676
    CORREC:  cpu time      1.4978: real time      1.4986
    CHARGE:  cpu time      0.0786: real time      0.0786
    --------------------------------------------
      LOOP:  cpu time      3.6527: real time      3.6715

 eigenvalue-minimisations  :     0
 total energy-change (2. order) :-0.6986982E-02  (-0.1458183E-02)
 number of electron      72.0000000 magnetization 
 augmentation part        0.1567288 magnetization 

 Free energy of the ion-electron system (eV)
  ---------------------------------------------------
  alpha Z        PSCENC =        66.04564387
  Ewald energy   TEWEN  =     -1794.06305543
  -Hartree energ DENC   =     -1585.88427589
  -exchange      EXHF   =         0.00000000
  -V(xc)+E(xc)   XCENC  =       236.94847042
  PAW double counting   =     31044.25723391   -31021.48579147
  entropy T*S    EENTRO =        -0.00000000
  eigenvalues    EBANDS =      -628.10392765
  atomic energy  EATOM  =      3556.79623584
  ---------------------------------------------------
  free energy    TOTEN  =      -125.48946640 eV

  energy without entropy =     -125.48946640  energy(sigma->0) =     -125.48946640


--------------------------------------------------------------------------------------------------------




--------------------------------------- Iteration      1(  13)  ---------------------------------------


    POTLOK:  cpu time      0.8305: real time      0.8307
    SETDIJ:  cpu time      0.0663: real time      0.0663
    TRIAL :  cpu time      1.1691: real time      1.1695
    CORREC:  cpu time      1.4945: real time      1.4952
    CHARGE:  cpu time      0.0779: real time      0.0779
    --------------------------------------------
      LOOP:  cpu time      3.6502: real time      3.6688

 eigenvalue-minimisations  :     0
 total energy-change (2. order) :-0.1456691E-02  (-0.3192012E-03)
 number of electron      72.0000000 magnetization 
 augmentation part        0.1565638 magnetization 

 Free energy of the ion-electron system (eV)
  ---------------------------------------------------
  alpha Z        PSCENC =        66.04564387
  Ewald energy   TEWEN  =     -1794.06305543
  -Hartree energ DENC   =     -1585.83864032
  -exchange      EXHF   =         0.00000000
  -V(xc)+E(xc)   XCENC  =       236.94334901
  PAW double counting   =     31098.29701755   -31075.52384591
  entropy T*S    EENTRO =        -0.00000000
  eigenvalues    EBANDS =      -628.14762769
  atomic energy  EATOM  =      3556.79623584
  ---------------------------------------------------
  free energy    TOTEN  =      -125.49092309 eV

  energy without entropy =     -125.49092309  energy(sigma->0) =     -125.49092309


--------------------------------------------------------------------------------------------------------




--------------------------------------- Iteration      1(  14)  ---------------------------------------


    POTLOK:  cpu time      0.8306: real time      0.8309
    SETDIJ:  cpu time      0.0663: real time      0.0663
    TRIAL :  cpu time      1.1692: real time      1.1695
    CORREC:  cpu time      1.5137: real time      1.5141
    CHARGE:  cpu time      0.0835: real time      0.0835
    --------------------------------------------
      LOOP:  cpu time      3.6763: real time      3.6930

 eigenvalue-minimisations  :     0
 total energy-change (2. order) :-0.3188059E-03  (-0.7680610E-04)
 number of electron      72.0000000 magnetization 
 augmentation part        0.1567327 magnetization 

 Free energy of the ion-electron system (eV)
  ---------------------------------------------------
  alpha Z        PSCENC =        66.04564387
  Ewald energy   TEWEN  =     -1794.06305543
  -Hartree energ DENC   =     -1585.89238731
  -exchange      EXHF   =         0.00000000
  -V(xc)+E(xc)   XCENC  =       236.94585169
  PAW double counting   =     31093.00197675   -31070.22840170
  entropy T*S    EENTRO =        -0.00000000
  eigenvalues    EBANDS =      -628.09710559
  atomic energy  EATOM  =      3556.79623584
  ---------------------------------------------------
  free energy    TOTEN  =      -125.49124189 eV

  energy without entropy =     -125.49124189  energy(sigma->0) =     -125.49124189


--------------------------------------------------------------------------------------------------------




--------------------------------------- Iteration      1(  15)  ---------------------------------------


    POTLOK:  cpu time      0.8307: real time      0.8312
    SETDIJ:  cpu time      0.0663: real time      0.0663
    TRIAL :  cpu time      1.1686: real time      1.1694
    CORREC:  cpu time      1.5079: real time      1.5083
    CHARGE:  cpu time      0.0786: real time      0.0786
    --------------------------------------------
      LOOP:  cpu time      3.6775: real time      3.6827

 eigenvalue-minimisations  :     0
 total energy-change (2. order) :-0.7705559E-04  (-0.2089142E-04)
 number of electron      72.0000000 magnetization 
 augmentation part        0.1566895 magnetization 

 Free energy of the ion-electron system (eV)
  ---------------------------------------------------
  alpha Z        PSCENC =        66.04564387
  Ewald energy   TEWEN  =     -1794.06305543
  -Hartree energ DENC   =     -1586.00417000
  -exchange      EXHF   =         0.00000000
  -V(xc)+E(xc)   XCENC  =       236.95174182
  PAW double counting   =     31077.27169723   -31054.49984820
  entropy T*S    EENTRO =        -0.00000000
  eigenvalues    EBANDS =      -627.98956408
  atomic energy  EATOM  =      3556.79623584
  ---------------------------------------------------
  free energy    TOTEN  =      -125.49131895 eV

  energy without entropy =     -125.49131895  energy(sigma->0) =     -125.49131895


--------------------------------------------------------------------------------------------------------




--------------------------------------- Iteration      1(  16)  ---------------------------------------


    POTLOK:  cpu time      0.8398: real time      0.8402
    SETDIJ:  cpu time      0.0663: real time      0.0663
    TRIAL :  cpu time      1.1660: real time      1.1666
    CORREC:  cpu time      1.4947: real time      1.4957
    CHARGE:  cpu time      0.0777: real time      0.0777
    --------------------------------------------
      LOOP:  cpu time      3.6610: real time      3.6760

 eigenvalue-minimisations  :     0
 total energy-change (2. order) :-0.2102658E-04  (-0.7239800E-05)
 number of electron      72.0000000 magnetization 
 augmentation part        0.1567244 magnetization 

 Free energy of the ion-electron system (eV)
  ---------------------------------------------------
  alpha Z        PSCENC =        66.04564387
  Ewald energy   TEWEN  =     -1794.06305543
  -Hartree energ DENC   =     -1585.95350853
  -exchange      EXHF   =         0.00000000
  -V(xc)+E(xc)   XCENC  =       236.94898234
  PAW double counting   =     31074.95888626   -31052.18622092
  entropy T*S    EENTRO =        -0.00000000
  eigenvalues    EBANDS =      -628.03830340
  atomic energy  EATOM  =      3556.79623584
  ---------------------------------------------------
  free energy    TOTEN  =      -125.49133998 eV

  energy without entropy =     -125.49133998  energy(sigma->0) =     -125.49133998


--------------------------------------------------------------------------------------------------------




--------------------------------------- Iteration      1(  17)  ---------------------------------------


    POTLOK:  cpu time      0.8316: real time      0.8320
    SETDIJ:  cpu time      0.0663: real time      0.0663
    TRIAL :  cpu time      1.1717: real time      1.1720
    CORREC:  cpu time      1.4978: real time      1.4983
    CHARGE:  cpu time      0.0777: real time      0.0777
    --------------------------------------------
      LOOP:  cpu time      3.6577: real time      3.6747

 eigenvalue-minimisations  :     0
 total energy-change (2. order) :-0.7193128E-05  (-0.2431813E-05)
 number of electron      72.0000000 magnetization 
 augmentation part        0.1566770 magnetization 

 Free energy of the ion-electron system (eV)
  ---------------------------------------------------
  alpha Z        PSCENC =        66.04564387
  Ewald energy   TEWEN  =     -1794.06305543
  -Hartree energ DENC   =     -1586.00712290
  -exchange      EXHF   =         0.00000000
  -V(xc)+E(xc)   XCENC  =       236.95218377
  PAW double counting   =     31077.37858738   -31054.60634727
  entropy T*S    EENTRO =        -0.00000000
  eigenvalues    EBANDS =      -627.98747242
  atomic energy  EATOM  =      3556.79623584
  ---------------------------------------------------
  free energy    TOTEN  =      -125.49134717 eV

  energy without entropy =     -125.49134717  energy(sigma->0) =     -125.49134717


--------------------------------------------------------------------------------------------------------




--------------------------------------- Iteration      1(  18)  ---------------------------------------


    POTLOK:  cpu time      0.8301: real time      0.8305
    SETDIJ:  cpu time      0.0663: real time      0.0663
    TRIAL :  cpu time      1.1705: real time      1.1712
    CORREC:  cpu time      1.4951: real time      1.4955
    CHARGE:  cpu time      0.0800: real time      0.0800
    --------------------------------------------
      LOOP:  cpu time      3.6700: real time      3.6717

 eigenvalue-minimisations  :     0
 total energy-change (2. order) :-0.2372617E-05  (-0.7722521E-06)
 number of electron      72.0000000 magnetization 
 augmentation part        0.1566874 magnetization 

 Free energy of the ion-electron system (eV)
  ---------------------------------------------------
  alpha Z        PSCENC =        66.04564387
  Ewald energy   TEWEN  =     -1794.06305543
  -Hartree energ DENC   =     -1585.98688723
  -exchange      EXHF   =         0.00000000
  -V(xc)+E(xc)   XCENC  =       236.95112428
  PAW double counting   =     31083.12015115   -31060.34741520
  entropy T*S    EENTRO =        -0.00000000
  eigenvalues    EBANDS =      -628.00714682
  atomic energy  EATOM  =      3556.79623584
  ---------------------------------------------------
  free energy    TOTEN  =      -125.49134954 eV

  energy without entropy =     -125.49134954  energy(sigma->0) =     -125.49134954


--------------------------------------------------------------------------------------------------------




--------------------------------------- Iteration      1(  19)  ---------------------------------------


    POTLOK:  cpu time      0.8317: real time      0.8321
    SETDIJ:  cpu time      0.0662: real time      0.0662
    TRIAL :  cpu time      1.1681: real time      1.1684
    CORREC:  cpu time      1.5771: real time      1.5780
    CHARGE:  cpu time      0.0779: real time      0.0779
    --------------------------------------------
      LOOP:  cpu time      3.7444: real time      3.7510

 eigenvalue-minimisations  :     0
 total energy-change (2. order) :-0.7376111E-06  (-0.1856213E-06)
 number of electron      72.0000000 magnetization 
 augmentation part        0.1566792 magnetization 

 Free energy of the ion-electron system (eV)
  ---------------------------------------------------
  alpha Z        PSCENC =        66.04564387
  Ewald energy   TEWEN  =     -1794.06305543
  -Hartree energ DENC   =     -1585.99895519
  -exchange      EXHF   =         0.00000000
  -V(xc)+E(xc)   XCENC  =       236.95191190
  PAW double counting   =     31084.26282533   -31061.49024255
  entropy T*S    EENTRO =        -0.00000000
  eigenvalues    EBANDS =      -627.99571405
  atomic energy  EATOM  =      3556.79623584
  ---------------------------------------------------
  free energy    TOTEN  =      -125.49135028 eV

[...]
     20      -6.3792      2.00000
     21      -5.6698      2.00000
     22      -5.5694      2.00000
     23      -5.2766      2.00000
     24      -5.0362      2.00000
     25      -4.9055      2.00000
     26      -4.8571      2.00000
     27      -4.7809      2.00000
     28      -4.7313      2.00000
     29      -2.1115      2.00000
     30      -2.0520      2.00000
     31      -1.7768      2.00000
     32      -1.7150      2.00000
     33      -1.6101      2.00000
     34      -1.5471      2.00000
     35      -1.1494      2.00000
     36      -1.1351      2.00000
     37       3.8994      0.00000
     38       3.9158      0.00000
     39       4.0573      0.00000
     40       4.1102      0.00000
     41       5.4541      0.00000
     42       5.9005      0.00000
     43       6.3037      0.00000
     44       6.4014      0.00000
     45       7.6068      0.00000
     46       7.7904      0.00000
     47       8.1118      0.00000
     48       8.4441      0.00000
     49       9.1539      0.00000
     50       9.4317      0.00000
     51       9.6268      0.00000
     52      10.0022      0.00000

 k-point    39 :      -0.1429    0.3333    0.5000
  band No.  band energies     occupation 
      1     -21.0669      2.00000
      2     -21.0619      2.00000
      3     -20.9871      2.00000
      4     -20.9816      2.00000
      5     -17.7270      2.00000
      6     -17.7010      2.00000
      7     -17.5786      2.00000
      8     -17.5397      2.00000
      9     -10.6829      2.00000
     10     -10.6658      2.00000
     11     -10.2012      2.00000
     12     -10.1886      2.00000
     13      -8.8506      2.00000
     14      -8.7967      2.00000
     15      -8.4729      2.00000
     16      -8.4101      2.00000
     17      -7.5832      2.00000
     18      -7.5669      2.00000
     19      -6.4266      2.00000
     20      -6.3793      2.00000
     21      -5.6698      2.00000
     22      -5.5695      2.00000
     23      -5.2765      2.00000
     24      -5.0363      2.00000
     25      -4.9055      2.00000
     26      -4.8571      2.00000
     27      -4.7809      2.00000
     28      -4.7313      2.00000
     29      -2.1115      2.00000
     30      -2.0520      2.00000
     31      -1.7769      2.00000
     32      -1.7150      2.00000
     33      -1.6100      2.00000
     34      -1.5472      2.00000
     35      -1.1493      2.00000
     36      -1.1352      2.00000
     37       3.8993      0.00000
     38       3.9159      0.00000
     39       4.0572      0.00000
     40       4.1103      0.00000
     41       5.4541      0.00000
     42       5.9006      0.00000
     43       6.3037      0.00000
     44       6.4015      0.00000
     45       7.6068      0.00000
     46       7.7906      0.00000
     47       8.1118      0.00000
     48       8.4448      0.00000
     49       9.1410      0.00000
     50       9.5208      0.00000
     51       9.6058      0.00000
     52      10.0906      0.00000

 k-point    40 :       0.2857    0.3333    0.5000
  band No.  band energies     occupation 
      1     -21.0350      2.00000
      2     -21.0220      2.00000
      3     -20.9696      2.00000
      4     -20.9556      2.00000
      5     -17.7058      2.00000
      6     -17.6532      2.00000
      7     -17.5766      2.00000
      8     -17.5005      2.00000
      9     -10.6791      2.00000
     10     -10.6540      2.00000
     11     -10.1760      2.00000
     12     -10.1565      2.00000
     13      -8.8717      2.00000
     14      -8.7742      2.00000
     15      -8.5023      2.00000
     16      -8.3827      2.00000
     17      -7.5780      2.00000
     18      -7.5478      2.00000
     19      -6.5004      2.00000
     20      -6.4163      2.00000
     21      -5.7506      2.00000
     22      -5.6293      2.00000
     23      -5.4358      2.00000
     24      -5.2215      2.00000
     25      -5.1210      2.00000
     26      -5.0846      2.00000
     27      -4.9705      2.00000
     28      -4.7931      2.00000
     29      -2.2225      2.00000
     30      -2.1329      2.00000
     31      -1.9273      2.00000
     32      -1.8624      2.00000
     33      -1.7212      2.00000
     34      -1.6288      2.00000
     35      -1.1338      2.00000
     36      -1.1055      2.00000
     37       3.8160      0.00000
     38       3.8329      0.00000
     39       4.0590      0.00000
     40       4.1162      0.00000
     41       5.6267      0.00000
     42       6.1530      0.00000
     43       6.8837      0.00000
     44       6.9043      0.00000
     45       7.8627      0.00000
     46       8.1020      0.00000
     47       8.1924      0.00000
     48       8.6128      0.00000
     49       8.8898      0.00000
     50       9.0776      0.00000
     51       9.4633      0.00000
     52       9.7665      0.00000

 k-point    41 :      -0.2857    0.3333    0.5000
  band No.  band energies     occupation 
      1     -21.0350      2.00000
      2     -21.0219      2.00000
      3     -20.9696      2.00000
      4     -20.9556      2.00000
      5     -17.7058      2.00000
      6     -17.6533      2.00000
      7     -17.5765      2.00000
      8     -17.5005      2.00000
      9     -10.6792      2.00000
     10     -10.6540      2.00000
     11     -10.1760      2.00000
     12     -10.1565      2.00000
     13      -8.8716      2.00000
     14      -8.7742      2.00000
     15      -8.5023      2.00000
     16      -8.3826      2.00000
     17      -7.5780      2.00000
     18      -7.5478      2.00000
     19      -6.5004      2.00000
     20      -6.4163      2.00000
     21      -5.7506      2.00000
     22      -5.6294      2.00000
     23      -5.4358      2.00000
     24      -5.2214      2.00000
     25      -5.1211      2.00000
     26      -5.0846      2.00000
     27      -4.9704      2.00000
     28      -4.7932      2.00000
     29      -2.2226      2.00000
     30      -2.1327      2.00000
     31      -1.9275      2.00000
     32      -1.8625      2.00000
     33      -1.7211      2.00000
     34      -1.6288      2.00000
     35      -1.1337      2.00000
     36      -1.1056      2.00000
     37       3.8161      0.00000
     38       3.8328      0.00000
     39       4.0590      0.00000
     40       4.1163      0.00000
     41       5.6267      0.00000
     42       6.1530      0.00000
     43       6.8836      0.00000
     44       6.9044      0.00000
     45       7.8628      0.00000
     46       8.1044      0.00000
     47       8.1923      0.00000
     48       8.6163      0.00000
     49       8.8854      0.00000
     50       9.0801      0.00000
     51       9.5180      0.00000
     52       9.9298      0.00000

 k-point    42 :       0.4286    0.3333    0.5000
  band No.  band energies     occupation 
      1     -21.0086      2.00000
      2     -20.9822      2.00000
      3     -20.9627      2.00000
      4     -20.9351      2.00000
      5     -17.6865      2.00000
      6     -17.6084      2.00000
      7     -17.5797      2.00000
      8     -17.4720      2.00000
      9     -10.6785      2.00000
     10     -10.6536      2.00000
     11     -10.1508      2.00000
     12     -10.1305      2.00000
     13      -8.8860      2.00000
     14      -8.7637      2.00000
     15      -8.5235      2.00000
     16      -8.3680      2.00000
     17      -7.5770      2.00000
     18      -7.5397      2.00000
     19      -6.5486      2.00000
     20      -6.4480      2.00000
     21      -5.7917      2.00000
     22      -5.6788      2.00000
     23      -5.5321      2.00000
     24      -5.4869      2.00000
     25      -5.3205      2.00000
     26      -5.1901      2.00000
     27      -5.0596      2.00000
     28      -4.7809      2.00000
     29      -2.3800      2.00000
     30      -2.1826      2.00000
     31      -2.0533      2.00000
     32      -1.9148      2.00000
     33      -1.7970      2.00000
     34      -1.7222      2.00000
     35      -1.1257      2.00000
     36      -1.0912      2.00000
     37       3.6515      0.00000
     38       3.7079      0.00000
     39       4.0389      0.00000
     40       4.1216      0.00000
     41       5.8299      0.00000
     42       6.3599      0.00000
     43       7.3924      0.00000
     44       7.4597      0.00000
     45       7.9034      0.00000
     46       8.2426      0.00000
     47       8.4154      0.00000
     48       8.5574      0.00000
     49       8.7517      0.00000
     50       8.8506      0.00000
     51       9.0560      0.00000
     52       9.4356      0.00000

 k-point    43 :      -0.4286    0.3333    0.5000
  band No.  band energies     occupation 
      1     -21.0087      2.00000
      2     -20.9822      2.00000
      3     -20.9627      2.00000
      4     -20.9351      2.00000
      5     -17.6865      2.00000
      6     -17.6085      2.00000
      7     -17.5796      2.00000
      8     -17.4720      2.00000
      9     -10.6785      2.00000
     10     -10.6536      2.00000
     11     -10.1508      2.00000
     12     -10.1304      2.00000
     13      -8.8860      2.00000
     14      -8.7637      2.00000
     15      -8.5235      2.00000
     16      -8.3680      2.00000
     17      -7.5770      2.00000
     18      -7.5398      2.00000
     19      -6.5486      2.00000
     20      -6.4480      2.00000
     21      -5.7917      2.00000
     22      -5.6789      2.00000
     23      -5.5320      2.00000
     24      -5.4869      2.00000
     25      -5.3205      2.00000
     26      -5.1901      2.00000
     27      -5.0596      2.00000
     28      -4.7809      2.00000
     29      -2.3800      2.00000
     30      -2.1826      2.00000
     31      -2.0533      2.00000
     32      -1.9148      2.00000
     33      -1.7970      2.00000
     34      -1.7222      2.00000
     35      -1.1257      2.00000
     36      -1.0913      2.00000
     37       3.6515      0.00000
     38       3.7078      0.00000
     39       4.0389      0.00000
     40       4.1216      0.00000
     41       5.8298      0.00000
     42       6.3599      0.00000
     43       7.3923      0.00000
     44       7.4598      0.00000
     45       7.9033      0.00000
     46       8.2431      0.00000
     47       8.4197      0.00000
     48       8.5516      0.00000
     49       8.7415      0.00000
     50       8.8440      0.00000
     51       9.0634      0.00000
     52       9.4395      0.00000


--------------------------------------------------------------------------------------------------------


 soft charge-density along one line, spin component           1
         0         1         2         3         4         5         6         7         8         9
 total charge-density along one line

 pseudopotential strength for first ion, spin component:           1
 12.623  21.242  -0.003  -0.008   0.005  -0.005  -0.015   0.009
 21.242  35.743  -0.004  -0.014   0.008  -0.008  -0.025   0.015
 -0.003  -0.004  -3.168  -0.001  -0.004  -5.675  -0.001  -0.006
 -0.008  -0.014  -0.001  -3.166  -0.005  -0.001  -5.672  -0.008
  0.005   0.008  -0.004  -0.005  -3.173  -0.006  -0.008  -5.685
 -0.005  -0.008  -5.675  -0.001  -0.006 -10.145  -0.002  -0.011
 -0.015  -0.025  -0.001  -5.672  -0.008  -0.002 -10.139  -0.014
  0.009   0.015  -0.006  -0.008  -5.685  -0.011  -0.014 -10.163
 total augmentation occupancy for first ion, spin component:           1
  7.820  -2.818  -0.947  -1.109   0.954   0.476   0.514  -0.456
 -2.818   1.100   0.513   0.583  -0.505  -0.253  -0.249   0.229
 -0.947   0.513   8.112  -1.083  -1.856  -2.952   0.463   0.770
 -1.109   0.583  -1.083   5.775  -0.913   0.463  -1.843   0.315
  0.954  -0.505  -1.856  -0.913   3.875   0.770   0.316  -1.157
  0.476  -0.253  -2.952   0.463   0.770   1.110  -0.189  -0.318
  0.514  -0.249   0.463  -1.843   0.316  -0.189   0.604  -0.109
 -0.456   0.229   0.770   0.315  -1.157  -0.318  -0.109   0.362


------------------------ aborting loop because EDIFF is reached ----------------------------------------


    FORLOC:  cpu time      0.0028: real time      0.0028
    FORNL :  cpu time      0.5396: real time      0.5399
    FORCOR:  cpu time      0.8977: real time      0.8982
    OFIELD:  cpu time      0.0027: real time      0.0032

 VOLUME and BASIS-vectors are now :
 -----------------------------------------------------------------------------
  energy-cutoff  :     1000.00
  volume of cell :      224.07
      direct lattice vectors                 reciprocal lattice vectors
     3.604000000  0.000000000  0.000000000     0.277469478 -0.000000000  0.051426155
     0.000000000  9.041000000  0.000000000     0.000000000  0.110607234 -0.000000000
    -1.274560000  0.000000000  6.876880000     0.000000000  0.000000000  0.145414781

  length of vectors
     3.604000000  9.041000000  6.993996120     0.282194899  0.110607234  0.145414781


 FORCES acting on ions:
    Electron-Ion                     Ewald-Force                    Non-Local-Force
 -----------------------------------------------------------------------------------------------
   0.601E+02 -.642E+02 -.943E+02   -.629E+02 0.656E+02 0.991E+02   0.276E+01 -.132E+01 -.477E+01
   -.601E+02 0.642E+02 0.943E+02   0.629E+02 -.656E+02 -.991E+02   -.276E+01 0.132E+01 0.477E+01
   -.601E+02 -.642E+02 0.943E+02   0.629E+02 0.656E+02 -.990E+02   -.276E+01 -.132E+01 0.477E+01
   0.601E+02 0.642E+02 -.943E+02   -.629E+02 -.656E+02 0.990E+02   0.276E+01 0.132E+01 -.477E+01
   -.699E+02 0.158E+03 -.345E+02   0.897E+02 -.200E+03 0.339E+02   -.199E+02 0.423E+02 0.593E+00
   0.699E+02 -.158E+03 0.345E+02   -.897E+02 0.200E+03 -.339E+02   0.199E+02 -.423E+02 -.594E+00
   0.699E+02 0.158E+03 0.345E+02   -.897E+02 -.200E+03 -.339E+02   0.199E+02 0.423E+02 -.595E+00
   -.699E+02 -.158E+03 -.345E+02   0.897E+02 0.200E+03 0.339E+02   -.199E+02 -.423E+02 0.593E+00
   0.218E+01 -.102E+03 0.628E+02   -.248E+01 0.105E+03 -.664E+02   0.307E+00 -.293E+01 0.349E+01
   -.219E+01 0.102E+03 -.628E+02   0.249E+01 -.105E+03 0.664E+02   -.307E+00 0.293E+01 -.349E+01
   -.219E+01 -.102E+03 -.628E+02   0.248E+01 0.105E+03 0.664E+02   -.305E+00 -.293E+01 -.349E+01
   0.218E+01 0.102E+03 0.628E+02   -.248E+01 -.105E+03 -.664E+02   0.306E+00 0.293E+01 0.349E+01
   0.183E+02 -.466E+02 -.482E+00   -.212E+02 0.531E+02 0.170E+01   0.292E+01 -.656E+01 -.124E+01
   -.183E+02 0.466E+02 0.481E+00   0.212E+02 -.531E+02 -.170E+01   -.292E+01 0.656E+01 0.124E+01
   -.183E+02 -.466E+02 0.480E+00   0.212E+02 0.531E+02 -.170E+01   -.292E+01 -.655E+01 0.124E+01
   0.183E+02 0.466E+02 -.478E+00   -.212E+02 -.531E+02 0.170E+01   0.292E+01 0.655E+01 -.124E+01
   -.201E+02 -.452E+01 0.451E+02   0.233E+02 0.303E+01 -.513E+02   -.320E+01 0.151E+01 0.626E+01
   0.201E+02 0.452E+01 -.451E+02   -.233E+02 -.304E+01 0.513E+02   0.320E+01 -.151E+01 -.626E+01
   0.201E+02 -.452E+01 -.451E+02   -.233E+02 0.304E+01 0.514E+02   0.320E+01 0.151E+01 -.626E+01
   -.201E+02 0.452E+01 0.451E+02   0.233E+02 -.303E+01 -.513E+02   -.320E+01 -.151E+01 0.626E+01
   0.267E+02 -.159E+02 -.427E+02   -.295E+02 0.175E+02 0.476E+02   0.278E+01 -.158E+01 -.486E+01
   -.267E+02 0.159E+02 0.427E+02   0.295E+02 -.175E+02 -.476E+02   -.278E+01 0.158E+01 0.486E+01
   -.267E+02 -.159E+02 0.427E+02   0.295E+02 0.175E+02 -.476E+02   -.278E+01 -.158E+01 0.486E+01
   0.267E+02 0.159E+02 -.427E+02   -.295E+02 -.175E+02 0.476E+02   0.278E+01 0.158E+01 -.486E+01
 -----------------------------------------------------------------------------------------------
   -.219E-02 -.270E-03 0.359E-02   -.284E-13 -.355E-13 0.497E-13   0.216E-02 0.264E-03 -.360E-02


 POSITION                                       TOTAL-FORCE (eV/Angst)
 -----------------------------------------------------------------------------------
      0.86868      0.49796      1.76957        -0.036712      0.010921      0.084992
      1.46079      8.54304      5.10730         0.037644     -0.013274     -0.084322
      0.29604      5.01836      1.66885         0.037804      0.014443     -0.084056
      2.03338      4.02243      5.20808        -0.037177     -0.012011      0.084889
      1.39099      8.40103      1.70751         0.051392     -0.089652      0.009983
      0.93850      0.63994      5.16937        -0.052222      0.091054     -0.009891
     -0.22627      3.88051      1.73094        -0.052585     -0.092582     -0.010011
      2.55570      5.16033      5.14603         0.052061      0.091237      0.009871
      0.91200      1.41045      0.80489         0.002624      0.106172     -0.095588
      1.41747      7.63054      6.07200        -0.002619     -0.105661      0.094865
      0.25269      5.93089      2.63354        -0.000936      0.107477      0.092932
      2.07671      3.10995      4.24339         0.001348     -0.107833     -0.094236
      0.49812      2.33600      0.97933         0.017978     -0.028728     -0.019273
      1.83132      6.70498      5.89760        -0.017899      0.028726      0.019039
      0.66662      6.85646      2.45910        -0.018653     -0.030110      0.019523
      1.66278      2.18437      4.41784         0.018741      0.030121     -0.019706
      0.10070      1.19157      6.78577        -0.019863      0.020804      0.029689
      2.22877      7.84943      0.09111         0.019737     -0.020713     -0.029444
     -0.21054      5.71203      3.52951         0.019071      0.020388     -0.028243
      2.53995      3.32882      3.34740        -0.019493     -0.020591      0.029037
      0.33434      0.81742      2.68370        -0.014591      0.013429      0.003973
      1.99515      8.22356      4.19318         0.014470     -0.013339     -0.003978
      0.83044      5.33781      0.75474         0.014475      0.013411     -0.003797
      1.49902      3.70300      6.12222        -0.014594     -0.013689      0.003753
 -----------------------------------------------------------------------------------
    total drift:                               -0.000030     -0.000007     -0.000007


--------------------------------------------------------------------------------------------------------



  FREE ENERGIE OF THE ION-ELECTRON SYSTEM (eV)
  ---------------------------------------------------
  free  energy   TOTEN  =      -125.49135054 eV

  energy  without entropy=     -125.49135054  energy(sigma->0) =     -125.49135054



--------------------------------------------------------------------------------------------------------


    POTLOK:  cpu time      0.9007: real time      0.9010


--------------------------------------------------------------------------------------------------------


 stress matrix after NEB project (eV)
      0.00000      0.00000      0.00000
      0.00000      0.00000      0.00000
      0.00000      0.00000      0.00000
  FORCES: max atom, RMS     0.143214    0.085425
  FORCE total and by dimension    0.418495    0.107833
  Stress total and by dimension    0.000000    0.000000
     LOOP+:  cpu time     78.3374: real time     78.6718
    4ORBIT:  cpu time      0.0000: real time      0.0000

 total amount of memory used by VASP MPI-rank0    53516. kBytes
=======================================================================

   base      :      30000. kBytes
   nonl-proj :       5787. kBytes
   fftplans  :       1313. kBytes
   grid      :       2568. kBytes
   one-center:          3. kBytes
   wavefun   :      13845. kBytes

  
  
 General timing and accounting informations for this job:
 ========================================================
  
                  Total CPU time used (sec):       89.696
                            User time (sec):       87.646
                          System time (sec):        2.049
                         Elapsed time (sec):       90.227
  
                   Maximum memory used (kb):      234616.
                   Average memory used (kb):          N/A
  
                          Minor page faults:        66549
                          Major page faults:          872
                 Voluntary context switches:         2846
