 vasp.6.4.1 05Apr23 (build Jun  6 2023 14:36:51) complex                         
 executed on        HPECrayEX_GCC date 2024.08.20  16:55:34
 running  128 mpi-ranks, with    1 threads/rank, on    1 nodes
 distrk:  each k-point on  128 cores,    1 groups
 distr:  one band on NCORE=  32 cores,    4 groups


--------------------------------------------------------------------------------------------------------


 INCAR:
   ALGO = Conjugate
   NPAR = 4
   ISMEAR = 0
   SIGMA = 0.01
   PREC = Accurate
   EDIFF = 1E-7
   ENCUT = 1000
   ISIF = 0
   GGA = RE
   LUSE_VDW = .TRUE.
   AGGAC = 0.0000
   LASPH = .TRUE.
   LWAVE = .FALSE.
   LCHARGE = .FALSE.

 POTCAR:    PAW_PBE C_h 06Feb2004                 
 POTCAR:    PAW_PBE O_h 06Feb2004                 
 POTCAR:    PAW_PBE N_h 06Feb2004                 
 POTCAR:    PAW_PBE H_h 06Feb2004                 
 -----------------------------------------------------------------------------
|                                                                             |
|               ----> ADVICE to this user running VASP <----                  |
|                                                                             |
|     You have switched on vdW-DFT.                                           |
|     This routine was written and supplied by Jiri Klimes. We recommend      |
|     that you carefully read and cite the following publications:            |
|       J. Klimes, D.R. Bowler, A. Michelides                                 |
|          J. Phys.: Cond Matt. 22 022201 (2010)                              |
|       J. Klimes, D.R. Bowler, A. Michelides                                 |
|          Phys. Rev. B. 83, 195131 (2011)                                    |
|     and references therein.                                                 |
|                                                                             |
 -----------------------------------------------------------------------------

 POTCAR:    PAW_PBE C_h 06Feb2004                 
   VRHFIN =C: s2p2                                                                                  
   LEXCH  = PE                                                                                      
   EATOM  =   147.1560 eV,   10.8157 Ry                                                             
                                                                                                    
   TITEL  = PAW_PBE C_h 06Feb2004                                                                   
   LULTRA =        F    use ultrasoft PP ?                                                          
   IUNSCR =        1    unscreen: 0-lin 1-nonlin 2-no                                               
   RPACOR =    0.800    partial core radius                                                         
   POMASS =   12.011; ZVAL   =    4.000    mass and valenz                                          
   RCORE  =    1.100    outmost cutoff radius                                                       
   RWIGS  =    1.630; RWIGS  =    0.863    wigner-seitz radius (au A)                               
   ENMAX  =  700.000; ENMIN  =  500.000 eV                                                          
   ICORE  =        2    local potential                                                             
   LCOR   =        T    correct aug charges                                                         
   LPAW   =        T    paw PP                                                                      
   EAUG   =  946.768                                                                                
   DEXC   =    0.000                                                                                
   RMAX   =    1.128    core radius for proj-oper                                                   
   RAUG   =    1.300    factor for augmentation sphere                                              
   RDEP   =    1.162    radius for radial grids                                                     
   RDEPT  =    1.088    core radius for aug-charge                                                  
                                                                                                    
   Atomic configuration                                                                             
    4 entries                                                                                       
     n  l   j            E        occ.                                                              
     1  0  0.50      -273.3789   2.0000                                                             
     2  0  0.50       -13.7508   2.0000                                                             
     2  1  0.50        -5.2854   2.0000                                                             
     3  2  1.50        -5.4423   0.0000                                                             
   Description                                                                                      
     l       E           TYP  RCUT    TYP  RCUT                                                     
     0    -13.7508458     23  1.100                                                                 
     0     -8.2022199     23  1.100                                                                 
     1     -5.2854383     23  1.100                                                                 
     1      1.1560700     23  1.100                                                                 
     2     -5.4423304      7  1.100                                                                 
  local pseudopotential read in
  partial core-charges read in
  partial kinetic energy density read in
  atomic valenz-charges read in
  non local Contribution for L=           0  read in
    real space projection operators read in
  non local Contribution for L=           0  read in
    real space projection operators read in
  non local Contribution for L=           1  read in
    real space projection operators read in
  non local Contribution for L=           1  read in
    real space projection operators read in
    PAW grid and wavefunctions read in

   number of l-projection  operators is LMAX  =           4
   number of lm-projection operators is LMMAX =           8

 POTCAR:    PAW_PBE O_h 06Feb2004                 
   VRHFIN =O: s2p4                                                                                  
   LEXCH  = PE                                                                                      
   EATOM  =   432.3788 eV,   31.7789 Ry                                                             
                                                                                                    
   TITEL  = PAW_PBE O_h 06Feb2004                                                                   
   LULTRA =        F    use ultrasoft PP ?                                                          
   IUNSCR =        1    unscreen: 0-lin 1-nonlin 2-no                                               
   RPACOR =    0.800    partial core radius                                                         
   POMASS =   16.000; ZVAL   =    6.000    mass and valenz                                          
   RCORE  =    1.100    outmost cutoff radius                                                       
   RWIGS  =    1.400; RWIGS  =    0.741    wigner-seitz radius (au A)                               
   ENMAX  =  700.000; ENMIN  =  500.000 eV                                                          
   ICORE  =        2    local potential                                                             
   LCOR   =        T    correct aug charges                                                         
   LPAW   =        T    paw PP                                                                      
   EAUG   =  888.804                                                                                
   DEXC   =    0.000                                                                                
   RMAX   =    1.128    core radius for proj-oper                                                   
   RAUG   =    1.300    factor for augmentation sphere                                              
   RDEP   =    1.125    radius for radial grids                                                     
   RDEPT  =    1.088    core radius for aug-charge                                                  
                                                                                                    
   Atomic configuration                                                                             
    4 entries                                                                                       
     n  l   j            E        occ.                                                              
     1  0  0.50      -514.6923   2.0000                                                             
     2  0  0.50       -23.9615   2.0000                                                             
     2  1  0.50        -9.0305   4.0000                                                             
     3  2  1.50        -9.5241   0.0000                                                             
   Description                                                                                      
     l       E           TYP  RCUT    TYP  RCUT                                                     
     0    -23.9615319     23  1.100                                                                 
     0    -25.3221145     23  1.100                                                                 
     1     -9.0304911     23  1.100                                                                 
     1     -5.4802209     23  1.100                                                                 
     2     -9.5240782      7  1.100                                                                 
  local pseudopotential read in
  partial core-charges read in
  partial kinetic energy density read in
  atomic valenz-charges read in
  non local Contribution for L=           0  read in
    real space projection operators read in
  non local Contribution for L=           0  read in
    real space projection operators read in
  non local Contribution for L=           1  read in
    real space projection operators read in
  non local Contribution for L=           1  read in
    real space projection operators read in
    PAW grid and wavefunctions read in

   number of l-projection  operators is LMAX  =           4
   number of lm-projection operators is LMMAX =           8

 POTCAR:    PAW_PBE N_h 06Feb2004                 
   VRHFIN =N: s2p3                                                                                  
   LEXCH  = PE                                                                                      
   EATOM  =   264.5486 eV,   19.4438 Ry                                                             
                                                                                                    
   TITEL  = PAW_PBE N_h 06Feb2004                                                                   
   LULTRA =        F    use ultrasoft PP ?                                                          
   IUNSCR =        1    unscreen: 0-lin 1-nonlin 2-no                                               
   RPACOR =    0.800    partial core radius                                                         
   POMASS =   14.001; ZVAL   =    5.000    mass and valenz                                          
   RCORE  =    1.100    outmost cutoff radius                                                       
   RWIGS  =    1.480; RWIGS  =    0.783    wigner-seitz radius (au A)                               
   ENMAX  =  700.000; ENMIN  =  500.000 eV                                                          
   ICORE  =        2    local potential                                                             
   LCOR   =        T    correct aug charges                                                         
   LPAW   =        T    paw PP                                                                      
   EAUG   =  904.640                                                                                
   DEXC   =    0.000                                                                                
   RMAX   =    1.127    core radius for proj-oper                                                   
   RAUG   =    1.300    factor for augmentation sphere                                              
   RDEP   =    1.115    radius for radial grids                                                     
   RDEPT  =    1.106    core radius for aug-charge                                                  
                                                                                                    
   Atomic configuration                                                                             
    4 entries                                                                                       
     n  l   j            E        occ.                                                              
     1  0  0.50      -384.7179   2.0000                                                             
     2  0  0.50       -18.5828   2.0000                                                             
     2  1  0.50        -7.0898   3.0000                                                             
     3  2  1.50        -6.8029   0.0000                                                             
   Description                                                                                      
     l       E           TYP  RCUT    TYP  RCUT                                                     
     0    -18.5828117     23  1.100                                                                 
     0    -15.0750597     23  1.100                                                                 
     1     -7.0897851     23  1.100                                                                 
     1     -1.9663412     23  1.100                                                                 
     2     -6.8029130      7  1.100                                                                 
  local pseudopotential read in
  partial core-charges read in
  partial kinetic energy density read in
  kinetic energy density of atom read in
  atomic valenz-charges read in
  non local Contribution for L=           0  read in
    real space projection operators read in
  non local Contribution for L=           0  read in
    real space projection operators read in
  non local Contribution for L=           1  read in
    real space projection operators read in
  non local Contribution for L=           1  read in
    real space projection operators read in
    PAW grid and wavefunctions read in

   number of l-projection  operators is LMAX  =           4
   number of lm-projection operators is LMMAX =           8

 POTCAR:    PAW_PBE H_h 06Feb2004                 
   VRHFIN =H: ultrasoft test                                                                        
   LEXCH  = PE                                                                                      
   EATOM  =    12.4884 eV,    0.9179 Ry                                                             
                                                                                                    
   TITEL  = PAW_PBE H_h 06Feb2004                                                                   
   LULTRA =        F    use ultrasoft PP ?                                                          
   IUNSCR =        0    unscreen: 0-lin 1-nonlin 2-no                                               
   RPACOR =    0.000    partial core radius                                                         
   POMASS =    1.000; ZVAL   =    1.000    mass and valenz                                          
   RCORE  =    0.800    outmost cutoff radius                                                       
   RWIGS  =    0.700; RWIGS  =    0.370    wigner-seitz radius (au A)                               
   ENMAX  =  700.000; ENMIN  =  350.000 eV                                                          
   RCLOC  =    0.701    cutoff for local pot                                                        
   LCOR   =        T    correct aug charges                                                         
   LPAW   =        T    paw PP                                                                      
   EAUG   = 1000.000                                                                                
   RMAX   =    0.819    core radius for proj-oper                                                   
   RAUG   =    1.000    factor for augmentation sphere                                              
   RDEP   =    0.817    radius for radial grids                                                     
   RDEPT  =    0.817    core radius for aug-charge                                                  
                                                                                                    
   Atomic configuration                                                                             
    2 entries                                                                                       
     n  l   j            E        occ.                                                              
     1  0  0.50        -6.4927   1.0000                                                             
     2  1  0.50        -3.4015   0.0000                                                             
   Description                                                                                      
     l       E           TYP  RCUT    TYP  RCUT                                                     
     0     -6.4927493     23  0.800                                                                 
     0      6.8029130     23  0.800                                                                 
     1     -6.8029130     23  0.800                                                                 
  local pseudopotential read in
  atomic valenz-charges read in
  non local Contribution for L=           0  read in
    real space projection operators read in
  non local Contribution for L=           0  read in
    real space projection operators read in
  non local Contribution for L=           1  read in
    real space projection operators read in
    PAW grid and wavefunctions read in

   number of l-projection  operators is LMAX  =           3
   number of lm-projection operators is LMMAX =           5

 -----------------------------------------------------------------------------
|                                                                             |
|               ----> ADVICE to this user running VASP <----                  |
|                                                                             |
|     You have a (more or less) 'large supercell' and for larger cells it     |
|     might be more efficient to use real-space projection operators.         |
|     Therefore, try LREAL= Auto in the INCAR file.                           |
|     Mind: For very accurate calculation, you might also keep the            |
|     reciprocal projection scheme (i.e. LREAL=.FALSE.).                      |
|                                                                             |
 -----------------------------------------------------------------------------

 -----------------------------------------------------------------------------
|                                                                             |
|               ----> ADVICE to this user running VASP <----                  |
|                                                                             |
|     You enforced a specific xc type in the INCAR file but a different       |
|     type was found in the POTCAR file.                                      |
|     I HOPE YOU KNOW WHAT YOU ARE DOING!                                     |
|                                                                             |
 -----------------------------------------------------------------------------

  PAW_PBE C_h 06Feb2004                 :
 energy of atom  1       EATOM= -147.1560
 kinetic energy error for atom=    0.0031 (will be added to EATOM!!)
  PAW_PBE O_h 06Feb2004                 :
 energy of atom  2       EATOM= -432.3788
 kinetic energy error for atom=    0.0171 (will be added to EATOM!!)
  PAW_PBE N_h 06Feb2004                 :
 energy of atom  3       EATOM= -264.5486
 kinetic energy error for atom=    0.0081 (will be added to EATOM!!)
  PAW_PBE H_h 06Feb2004                 :
 energy of atom  4       EATOM=  -12.4884
 kinetic energy error for atom=    0.0006 (will be added to EATOM!!)


 POSCAR:  C  O  N  H
  positions in cartesian coordinates
  No initial velocities read in
 exchange correlation table for  LEXCH =       40
   RHO(1)=    0.500       N(1)  =     2000
   RHO(2)=  100.500       N(2)  =     4000

 VTST: version 4.1, (05/19/21)

 CHAIN: initializing optimizer
 
 OPT: Using VASP Dynamics algorithm
 CHAIN: Read ICHAIN            0

 POSCAR:  C  O  N  H
  positions in cartesian coordinates
  No initial velocities read in



--------------------------------------------------------------------------------------------------------


 ion  position               nearest neighbor table
   1  0.332  0.055  0.257-  21 1.11   5 1.25   9 1.33
   2  0.668  0.945  0.743-  22 1.11   6 1.25  10 1.33
   3  0.168  0.555  0.243-  23 1.11   7 1.25  11 1.33
   4  0.832  0.445  0.757-  24 1.11   8 1.25  12 1.33
   5  0.474  0.929  0.248-   1 1.25
   6  0.526  0.071  0.752-   2 1.25
   7  0.026  0.429  0.252-   3 1.25
   8  0.974  0.571  0.748-   4 1.25
   9  0.294  0.156  0.117-  13 1.03  17 1.03   1 1.33
  10  0.706  0.844  0.883-  14 1.03  18 1.03   2 1.33
  11  0.206  0.656  0.383-  15 1.03  19 1.03   3 1.33
  12  0.794  0.344  0.617-  16 1.03  20 1.03   4 1.33
  13  0.189  0.258  0.142-   9 1.03
  14  0.811  0.742  0.858-  10 1.03
  15  0.311  0.758  0.358-  11 1.03
  16  0.689  0.242  0.642-  12 1.03
  17  0.377  0.132  0.987-   9 1.03
  18  0.623  0.868  0.013-  10 1.03
  19  0.123  0.632  0.513-  11 1.03
  20  0.877  0.368  0.487-  12 1.03
  21  0.231  0.090  0.390-   1 1.11
  22  0.769  0.910  0.610-   2 1.11
  23  0.269  0.590  0.110-   3 1.11
  24  0.731  0.410  0.890-   4 1.11

  LATTYP: Found a simple monoclinic cell.
 ALAT       =     3.6040000000
 B/A-ratio  =     2.5086015538
 C/A-ratio  =     1.9406204551
 COS(beta)  =    -0.1822363036
  
  Lattice vectors:
  
 A1 = (   3.6040000000,   0.0000000000,   0.0000000000)
 A2 = (   0.0000000000,   9.0410000000,   0.0000000000)
 A3 = (  -1.2745600000,   0.0000000000,   6.8768800000)


Analysis of symmetry for initial positions (statically):
=====================================================================
 Subroutine PRICEL returns:
 Original cell was already a primitive cell.
 

 Routine SETGRP: Setting up the symmetry group for a 
 simple monoclinic supercell.


 Subroutine GETGRP returns: Found  1 space group operations
 (whereof  1 operations were pure point group operations)
 out of a pool of  4 trial point group operations.


The static configuration has the point symmetry C_1 .


Analysis of symmetry for dynamics (positions and initial velocities):
=====================================================================
 Subroutine PRICEL returns:
 Original cell was already a primitive cell.
 

 Routine SETGRP: Setting up the symmetry group for a 
 simple monoclinic supercell.


 Subroutine GETGRP returns: Found  1 space group operations
 (whereof  1 operations were pure point group operations)
 out of a pool of  4 trial point group operations.


The dynamic configuration has the point symmetry C_1 .


 Subroutine INISYM returns: Found  1 space group operations
 (whereof  1 operations are pure point group operations),
 and found     1 'primitive' translations


----------------------------------------------------------------------------------------

                                     Primitive cell                                     

  volume of cell :     224.0746

  direct lattice vectors                    reciprocal lattice vectors
     3.604000000  0.000000000  0.000000000     0.277469478 -0.000000000  0.051426155
     0.000000000  9.041000000  0.000000000     0.000000000  0.110607234 -0.000000000
    -1.274560000  0.000000000  6.876880000     0.000000000  0.000000000  0.145414781

  length of vectors
     3.604000000  9.041000000  6.993996120     0.282194899  0.110607234  0.145414781

  position of ions in fractional coordinates (direct lattice)
     0.332035180  0.055078096  0.257321301
     0.667972969  0.944921904  0.742676847
     0.167965676  0.555067450  0.242675853
     0.832033720  0.444910090  0.757331833
     0.473768378  0.929215195  0.248297155
     0.526246655  0.070782293  0.751702361
     0.026231264  0.429212025  0.251703950
     0.973768736  0.570769425  0.748309174
     0.294445496  0.156005827  0.117042932
     0.705565224  0.843993451  0.882958795
     0.205547460  0.655999348  0.382955471
     0.794445909  0.343982590  0.617051648
     0.188576548  0.258378242  0.142409120
     0.811427489  0.741619094  0.857598341
     0.311430078  0.758374237  0.357589341
     0.688563440  0.241607514  0.642419811
     0.376907556  0.131796327  0.986750688
     0.623100706  0.868203990  0.013249312
     0.123091887  0.631792104  0.513242412
     0.876903280  0.368191668  0.486762024
     0.230780242  0.090412467  0.390248948
     0.769233524  0.909585154  0.609751050
     0.269234465  0.590400611  0.109750112
     0.730775104  0.409578996  0.890260578

  ion indices of the primitive-cell ions
   primitive index   ion index
                 1           1
                 2           2
                 3           3
                 4           4
                 5           5
                 6           6
                 7           7
                 8           8
                 9           9
                10          10
                11          11
                12          12
                13          13
                14          14
                15          15
                16          16
                17          17
                18          18
                19          19
                20          20
                21          21
                22          22
                23          23
                24          24

----------------------------------------------------------------------------------------



 KPOINTS: auto                                    

Automatic generation of k-mesh.
 Grid dimensions read from file:
 generate k-points for:    7    3    4

 Generating k-lattice:

  Cartesian coordinates                     Fractional coordinates (reciprocal lattice)
     0.039638497 -0.000000000  0.007346594     0.142857143  0.000000000 -0.000000000
     0.000000000  0.036869078 -0.000000000     0.000000000  0.333333333  0.000000000
     0.000000000  0.000000000  0.036353695     0.000000000  0.000000000  0.250000000

  Length of vectors
     0.040313557  0.036869078  0.036353695

  Shift w.r.t. Gamma in fractional coordinates (k-lattice)
     0.000000000  0.000000000  0.000000000

 
 Subroutine IBZKPT returns following result:
 ===========================================
 
 Found     43 irreducible k-points:
 
 Following reciprocal coordinates:
            Coordinates               Weight
  0.000000  0.000000  0.000000      1.000000
  0.142857  0.000000  0.000000      2.000000
  0.285714  0.000000  0.000000      2.000000
  0.428571  0.000000  0.000000      2.000000
  0.000000  0.333333  0.000000      2.000000
  0.142857  0.333333  0.000000      2.000000
 -0.142857  0.333333  0.000000      2.000000
  0.285714  0.333333  0.000000      2.000000
 -0.285714  0.333333  0.000000      2.000000
  0.428571  0.333333  0.000000      2.000000
 -0.428571  0.333333  0.000000      2.000000
  0.000000  0.000000  0.250000      2.000000
  0.142857  0.000000  0.250000      2.000000
  0.285714  0.000000  0.250000      2.000000
  0.428571  0.000000  0.250000      2.000000
 -0.428571  0.000000  0.250000      2.000000
 -0.285714  0.000000  0.250000      2.000000
 -0.142857  0.000000  0.250000      2.000000
  0.000000  0.333333  0.250000      2.000000
  0.000000  0.333333 -0.250000      2.000000
  0.142857  0.333333  0.250000      2.000000
 -0.142857  0.333333 -0.250000      2.000000
  0.285714  0.333333  0.250000      2.000000
 -0.285714  0.333333 -0.250000      2.000000
  0.428571  0.333333  0.250000      2.000000
 -0.428571  0.333333 -0.250000      2.000000
 -0.428571  0.333333  0.250000      2.000000
  0.428571  0.333333 -0.250000      2.000000
 -0.285714  0.333333  0.250000      2.000000
  0.285714  0.333333 -0.250000      2.000000
 -0.142857  0.333333  0.250000      2.000000
  0.142857  0.333333 -0.250000      2.000000
  0.000000  0.000000  0.500000      1.000000
  0.142857  0.000000  0.500000      2.000000
  0.285714  0.000000  0.500000      2.000000
  0.428571  0.000000  0.500000      2.000000
  0.000000  0.333333  0.500000      2.000000
  0.142857  0.333333  0.500000      2.000000
 -0.142857  0.333333  0.500000      2.000000
  0.285714  0.333333  0.500000      2.000000
 -0.285714  0.333333  0.500000      2.000000
  0.428571  0.333333  0.500000      2.000000
 -0.428571  0.333333  0.500000      2.000000
 
 Following cartesian coordinates:
            Coordinates               Weight
  0.000000  0.000000  0.000000      1.000000
  0.039638  0.000000  0.007347      2.000000
  0.079277  0.000000  0.014693      2.000000
  0.118915  0.000000  0.022040      2.000000
  0.000000  0.036869  0.000000      2.000000
  0.039638  0.036869  0.007347      2.000000
 -0.039638  0.036869 -0.007347      2.000000
  0.079277  0.036869  0.014693      2.000000
 -0.079277  0.036869 -0.014693      2.000000
  0.118915  0.036869  0.022040      2.000000
 -0.118915  0.036869 -0.022040      2.000000
  0.000000  0.000000  0.036354      2.000000
  0.039638  0.000000  0.043700      2.000000
  0.079277  0.000000  0.051047      2.000000
  0.118915  0.000000  0.058393      2.000000
 -0.118915  0.000000  0.014314      2.000000
 -0.079277  0.000000  0.021661      2.000000
 -0.039638  0.000000  0.029007      2.000000
  0.000000  0.036869  0.036354      2.000000
  0.000000  0.036869 -0.036354      2.000000
  0.039638  0.036869  0.043700      2.000000
 -0.039638  0.036869 -0.043700      2.000000
  0.079277  0.036869  0.051047      2.000000
 -0.079277  0.036869 -0.051047      2.000000
  0.118915  0.036869  0.058393      2.000000
 -0.118915  0.036869 -0.058393      2.000000
 -0.118915  0.036869  0.014314      2.000000
  0.118915  0.036869 -0.014314      2.000000
 -0.079277  0.036869  0.021661      2.000000
  0.079277  0.036869 -0.021661      2.000000
 -0.039638  0.036869  0.029007      2.000000
  0.039638  0.036869 -0.029007      2.000000
  0.000000  0.000000  0.072707      1.000000
  0.039638  0.000000  0.080054      2.000000
  0.079277  0.000000  0.087401      2.000000
  0.118915  0.000000  0.094747      2.000000
  0.000000  0.036869  0.072707      2.000000
  0.039638  0.036869  0.080054      2.000000
 -0.039638  0.036869  0.065361      2.000000
  0.079277  0.036869  0.087401      2.000000
 -0.079277  0.036869  0.058014      2.000000
  0.118915  0.036869  0.094747      2.000000
 -0.118915  0.036869  0.050668      2.000000
 


--------------------------------------------------------------------------------------------------------




 Dimension of arrays:
   k-points           NKPTS =     43   k-points in BZ     NKDIM =     43   number of bands    NBANDS=     52
   number of dos      NEDOS =    301   number of ions     NIONS =     24
   non local maximal  LDIM  =      4   non local SUM 2l+1 LMDIM =      8
   total plane-waves  NPLWV = 276480
   max r-space proj   IRMAX =      1   max aug-charges    IRDMAX=   9197
   dimension x,y,z NGX =    40 NGY =   96 NGZ =   72
   dimension x,y,z NGXF=    80 NGYF=  192 NGZF=  144
   support grid    NGXF=    80 NGYF=  192 NGZF=  144
   ions per type =               4   4   4  12
   NGX,Y,Z   is equivalent  to a cutoff of  18.45, 17.65, 17.11 a.u.
   NGXF,Y,Z  is equivalent  to a cutoff of  36.90, 35.30, 34.23 a.u.

 SYSTEM =  unknown system                          
 POSCAR =   C  O  N  H                             

 Startparameter for this run:
   NWRITE =      2    write-flag & timer
   PREC   = accura    normal or accurate (medium, high low for compatibility)
   ISTART =      0    job   : 0-new  1-cont  2-samecut
   ICHARG =      2    charge: 1-file 2-atom 10-const
   ISPIN  =      1    spin polarized calculation?
   LNONCOLLINEAR =      F non collinear calculations
   LSORBIT =      F    spin-orbit coupling
   INIWAV =      1    electr: 0-lowe 1-rand  2-diag
   LASPH  =      T    aspherical Exc in radial PAW
 Electronic Relaxation 1
   ENCUT  = 1000.0 eV  73.50 Ry    8.57 a.u.   9.29 23.31 18.03*2*pi/ulx,y,z
   ENINI  = 1000.0     initial cutoff
   ENAUG  = 1000.0 eV  augmentation charge cutoff
   NELM   =     60;   NELMIN=  2; NELMDL= -5     # of ELM steps 
   EDIFF  = 0.1E-06   stopping-criterion for ELM
   LREAL  =      F    real-space projection
   NLSPLINE    = F    spline interpolate recip. space projectors
   LCOMPAT=      F    compatible to vasp.4.4
   GGA_COMPAT  = T    GGA compatible to vasp.4.4-vasp.4.6
   LMAXPAW     = -100 max onsite density
   LMAXMIX     =    2 max onsite mixed and CHGCAR
   VOSKOWN=      0    Vosko Wilk Nusair interpolation
   ROPT   =    0.00000   0.00000   0.00000   0.00000
 Ionic relaxation
   EDIFFG = 0.1E-05   stopping-criterion for IOM
   NSW    =      0    number of steps for IOM
   NBLOCK =      1;   KBLOCK =      1    inner block; outer block 
   IBRION =     -1    ionic relax: 0-MD 1-quasi-New 2-CG
   NFREE  =      0    steps in history (QN), initial steepest desc. (CG)
   ISIF   =      0    stress and relaxation
   IWAVPR =     10    prediction:  0-non 1-charg 2-wave 3-comb
   ISYM   =      2    0-nonsym 1-usesym 2-fastsym
   LCORR  =      T    Harris-Foulkes like correction to forces

   POTIM  = 0.5000    time-step for ionic-motion
   TEIN   =    0.0    initial temperature
   TEBEG  =    0.0;   TEEND  =   0.0 temperature during run
   SMASS  =  -3.00    Nose mass-parameter (am)
   estimated Nose-frequenzy (Omega)   =  0.10E-29 period in steps = 0.13E+47 mass=  -0.297E-27a.u.
   SCALEE = 1.0000    scale energy and forces
   NPACO  =    256;   APACO  = 10.0  distance and # of slots for P.C.
   PSTRESS=    0.0 pullay stress

  Mass of Ions in am
   POMASS =  12.01 16.00 14.00  1.00
  Ionic Valenz
   ZVAL   =   4.00  6.00  5.00  1.00
  Atomic Wigner-Seitz radii
   RWIGS  =  -1.00 -1.00 -1.00 -1.00
  virtual crystal weights 
   VCA    =   1.00  1.00  1.00  1.00
   NELECT =      72.0000    total number of electrons
   NUPDOWN=      -1.0000    fix difference up-down

 DOS related values:
   EMIN   =  10.00;   EMAX   =-10.00  energy-range for DOS
   EFERMI =   0.00;   METHOD = LEGACY      
   ISMEAR =     0;   SIGMA  =   0.01  broadening in eV -4-tet -1-fermi 0-gaus

 Electronic relaxation 2 (details)
   IALGO  =     58    algorithm
   LDIAG  =      T    sub-space diagonalisation (order eigenvalues)
   LSUBROT=      F    optimize rotation matrix (better conditioning)
   TURBO    =      0    0=normal 1=particle mesh
   IRESTART =      0    0=no restart 2=restart with 2 vectors
   NREBOOT  =      0    no. of reboots
   NMIN     =      0    reboot dimension
   EREF     =   0.00    reference energy to select bands
   IMIX   =      4    mixing-type and parameters
     AMIX     =   0.40;   BMIX     =  1.00
     AMIX_MAG =   1.60;   BMIX_MAG =  1.00
     AMIN     =   0.10
     WC   =   100.;   INIMIX=   1;  MIXPRE=   1;  MAXMIX= -45

 Intra band minimization:
   WEIMIN = 0.0000     energy-eigenvalue tresh-hold
   EBREAK =  0.48E-09  absolut break condition
   DEPER  =   0.30     relativ break condition  

   TIME   =   0.40     timestep for ELM

  volume/ion in A,a.u.               =       9.34        63.01
  Fermi-wavevector in a.u.,A,eV,Ry     =   1.121299  2.118948 17.106760  1.257311
  Thomas-Fermi vector in A             =   2.257952

 Write flags
   LWAVE        =      F    write WAVECAR
   LDOWNSAMPLE  =      F    k-point downsampling of WAVECAR
   LCHARG       =      T    write CHGCAR
   LVTOT        =      F    write LOCPOT, total local potential
   LVHAR        =      F    write LOCPOT, Hartree potential only
   LELF         =      F    write electronic localiz. function (ELF)
   LORBIT       =      0    0 simple, 1 ext, 2 COOP (PROOUT), +10 PAW based schemes


 Dipole corrections
   LMONO  =      F    monopole corrections only (constant potential shift)
   LDIPOL =      F    correct potential (dipole corrections)
   IDIPOL =      0    1-x, 2-y, 3-z, 4-all directions 
   EPSILON=  1.0000000 bulk dielectric constant

 Exchange correlation treatment:
   GGA     =    RE    GGA type
   LEXCH   =    40    internal setting for exchange type
   LIBXC   =     F    Libxc                    
   VOSKOWN =     0    Vosko Wilk Nusair interpolation
   LHFCALC =     F    Hartree Fock is set to
   LHFONE  =     F    Hartree Fock one center treatment
   AEXX    =    0.0000 exact exchange contribution

 vdW DFT:
   LUSE_VDW   =     T    switch on vdW DFT
   IVDW_NL    =     1    kernel type
   LSPIN_VDW  =     F    use spin-polarized vdW DFT
   Zab_VDW    =-.8491    correlation parameter
   PARAM1     =0.1234
   PARAM2     =1.0000
   PARAM3     =0.0000
   -- rVV10 --
   BPARAM     = 6.3000
   CPARAM     = 0.0093

 Linear response parameters
   LEPSILON=     F    determine dielectric tensor
   LRPA    =     F    only Hartree local field effects (RPA)
   LNABLA  =     F    use nabla operator in PAW spheres
   LVEL    =     F    velocity operator in full k-point grid
   CSHIFT  =0.1000    complex shift for real part using Kramers Kronig
   OMEGAMAX=  -1.0    maximum frequency
   DEG_THRESHOLD= 0.2000000E-02 threshold for treating states as degnerate
   RTIME   =   -0.100 relaxation time in fs
  (WPLASMAI=    0.000 imaginary part of plasma frequency in eV, 0.658/RTIME)
   DFIELD  = 0.0000000 0.0000000 0.0000000 field for delta impulse in time

  Optional k-point grid parameters
   LKPOINTS_OPT  =     F    use optional k-point grid
   KPOINTS_OPT_MODE=     1    mode for optional k-point grid

 Orbital magnetization related:
   ORBITALMAG=     F  switch on orbital magnetization
   LCHIMAG   =     F  perturbation theory with respect to B field
   DQ        =  0.001000  dq finite difference perturbation B field
   LLRAUG    =     F  two centre corrections for induced B field
   LBONE     =     F  B-component reconstruction in AE one-centre
   LVGVCALC  =     T  calculate vGv susceptibility
   LVGVAPPL  =     F  apply vGv susceptibility instead of pGv for G=0

 Random number generation:
   RANDOM_GENERATOR = DEFAULT
   PCG_SEED         = not used


--------------------------------------------------------------------------------------------------------


 Static calculation
 charge density and potential will be updated during run
 non-spin polarized calculation
 Conjugate gradient for all bands (Freysoldt, et al. PRB 79, 241103 (2009))
 preconditioned conjugated gradient                                        
 perform sub-space diagonalisation
    before iterative eigenvector-optimisation
 modified Broyden-mixing scheme, WC =      100.0
 initial mixing is a Kerker type mixing with AMIX =  0.4000 and BMIX =      1.0000
 Hartree-type preconditioning will be used
 using additional bands           16
 reciprocal scheme for non local part
 use partial core corrections
 no Harris-corrections to forces 
 use gradient corrections 
 use of overlap-Matrix (Vanderbilt PP)
 Gauss-broadening in eV      SIGMA  =   0.01


--------------------------------------------------------------------------------------------------------


  energy-cutoff  :     1000.00
  volume of cell :      224.07
      direct lattice vectors                 reciprocal lattice vectors
     3.604000000  0.000000000  0.000000000     0.277469478 -0.000000000  0.051426155
     0.000000000  9.041000000  0.000000000     0.000000000  0.110607234 -0.000000000
    -1.274560000  0.000000000  6.876880000     0.000000000  0.000000000  0.145414781

  length of vectors
     3.604000000  9.041000000  6.993996120     0.282194899  0.110607234  0.145414781



 k-points in units of 2pi/SCALE and weight: auto                                    
   0.00000000  0.00000000  0.00000000       0.012
   0.03963850  0.00000000  0.00734659       0.024
   0.07927699  0.00000000  0.01469319       0.024
   0.11891549  0.00000000  0.02203978       0.024
   0.00000000  0.03686908  0.00000000       0.024
   0.03963850  0.03686908  0.00734659       0.024
  -0.03963850  0.03686908 -0.00734659       0.024
   0.07927699  0.03686908  0.01469319       0.024
  -0.07927699  0.03686908 -0.01469319       0.024
   0.11891549  0.03686908  0.02203978       0.024
  -0.11891549  0.03686908 -0.02203978       0.024
   0.00000000  0.00000000  0.03635370       0.024
   0.03963850  0.00000000  0.04370029       0.024
   0.07927699  0.00000000  0.05104688       0.024
   0.11891549  0.00000000  0.05839348       0.024
  -0.11891549  0.00000000  0.01431391       0.024
  -0.07927699  0.00000000  0.02166051       0.024
  -0.03963850  0.00000000  0.02900710       0.024
   0.00000000  0.03686908  0.03635370       0.024
   0.00000000  0.03686908 -0.03635370       0.024
   0.03963850  0.03686908  0.04370029       0.024
  -0.03963850  0.03686908 -0.04370029       0.024
   0.07927699  0.03686908  0.05104688       0.024
  -0.07927699  0.03686908 -0.05104688       0.024
   0.11891549  0.03686908  0.05839348       0.024
  -0.11891549  0.03686908 -0.05839348       0.024
  -0.11891549  0.03686908  0.01431391       0.024
   0.11891549  0.03686908 -0.01431391       0.024
  -0.07927699  0.03686908  0.02166051       0.024
   0.07927699  0.03686908 -0.02166051       0.024
  -0.03963850  0.03686908  0.02900710       0.024
   0.03963850  0.03686908 -0.02900710       0.024
   0.00000000  0.00000000  0.07270739       0.012
   0.03963850  0.00000000  0.08005398       0.024
   0.07927699  0.00000000  0.08740058       0.024
   0.11891549  0.00000000  0.09474717       0.024
   0.00000000  0.03686908  0.07270739       0.024
   0.03963850  0.03686908  0.08005398       0.024
  -0.03963850  0.03686908  0.06536080       0.024
   0.07927699  0.03686908  0.08740058       0.024
  -0.07927699  0.03686908  0.05801420       0.024
   0.11891549  0.03686908  0.09474717       0.024
  -0.11891549  0.03686908  0.05066761       0.024

 k-points in reciprocal lattice and weights: auto                                    
   0.00000000  0.00000000  0.00000000       0.012
   0.14285714  0.00000000  0.00000000       0.024
   0.28571429  0.00000000  0.00000000       0.024
   0.42857143  0.00000000  0.00000000       0.024
   0.00000000  0.33333333  0.00000000       0.024
   0.14285714  0.33333333  0.00000000       0.024
  -0.14285714  0.33333333  0.00000000       0.024
   0.28571429  0.33333333  0.00000000       0.024
  -0.28571429  0.33333333  0.00000000       0.024
   0.42857143  0.33333333  0.00000000       0.024
  -0.42857143  0.33333333  0.00000000       0.024
   0.00000000  0.00000000  0.25000000       0.024
   0.14285714  0.00000000  0.25000000       0.024
   0.28571429  0.00000000  0.25000000       0.024
   0.42857143  0.00000000  0.25000000       0.024
  -0.42857143  0.00000000  0.25000000       0.024
  -0.28571429  0.00000000  0.25000000       0.024
  -0.14285714  0.00000000  0.25000000       0.024
   0.00000000  0.33333333  0.25000000       0.024
   0.00000000  0.33333333 -0.25000000       0.024
   0.14285714  0.33333333  0.25000000       0.024
  -0.14285714  0.33333333 -0.25000000       0.024
   0.28571429  0.33333333  0.25000000       0.024
  -0.28571429  0.33333333 -0.25000000       0.024
   0.42857143  0.33333333  0.25000000       0.024
  -0.42857143  0.33333333 -0.25000000       0.024
  -0.42857143  0.33333333  0.25000000       0.024
   0.42857143  0.33333333 -0.25000000       0.024
  -0.28571429  0.33333333  0.25000000       0.024
   0.28571429  0.33333333 -0.25000000       0.024
  -0.14285714  0.33333333  0.25000000       0.024
   0.14285714  0.33333333 -0.25000000       0.024
   0.00000000  0.00000000  0.50000000       0.012
   0.14285714  0.00000000  0.50000000       0.024
   0.28571429  0.00000000  0.50000000       0.024
   0.42857143  0.00000000  0.50000000       0.024
   0.00000000  0.33333333  0.50000000       0.024
   0.14285714  0.33333333  0.50000000       0.024
  -0.14285714  0.33333333  0.50000000       0.024
   0.28571429  0.33333333  0.50000000       0.024
  -0.28571429  0.33333333  0.50000000       0.024
   0.42857143  0.33333333  0.50000000       0.024
  -0.42857143  0.33333333  0.50000000       0.024

 position of ions in fractional coordinates (direct lattice) 
   0.33203518  0.05507810  0.25732130
   0.66797297  0.94492190  0.74267685
   0.16796568  0.55506745  0.24267585
   0.83203372  0.44491009  0.75733183
   0.47376838  0.92921519  0.24829715
   0.52624666  0.07078229  0.75170236
   0.02623126  0.42921202  0.25170395
   0.97376874  0.57076943  0.74830917
   0.29444550  0.15600583  0.11704293
   0.70556522  0.84399345  0.88295880
   0.20554746  0.65599935  0.38295547
   0.79444591  0.34398259  0.61705165
   0.18857655  0.25837824  0.14240912
   0.81142749  0.74161909  0.85759834
   0.31143008  0.75837424  0.35758934
   0.68856344  0.24160751  0.64241981
   0.37690756  0.13179633  0.98675069
   0.62310071  0.86820399  0.01324931
   0.12309189  0.63179210  0.51324241
   0.87690328  0.36819167  0.48676202
   0.23078024  0.09041247  0.39024895
   0.76923352  0.90958515  0.60975105
   0.26923447  0.59040061  0.10975011
   0.73077510  0.40957900  0.89026058

 position of ions in cartesian coordinates  (Angst):
   0.86868335  0.49796107  1.76956771
   1.46078838  8.54303893  5.10729956
   0.29604336  5.01836482  1.66885272
   2.03338466  4.02243212  5.20808014
   1.39099161  8.40103458  1.70750974
   0.93850318  0.63994271  5.16936693
  -0.22627431  3.88050592  1.73093786
   2.55569758  5.16032638  5.14603239
   0.91200333  1.41044869  0.80489020
   1.41747311  7.63054479  6.07200168
   0.25269332  5.93089010  2.63353882
   2.07671371  3.10994660  4.24339014
   0.49812091  2.33599769  0.97933043
   1.83132413  6.70497823  5.89760088
   0.66662493  6.85646147  2.45909899
   1.66278004  2.18437354  4.41784395
   0.10070188  1.19157059  6.78576607
   2.22876790  7.84943228  0.09111393
  -0.21053509  5.71203241  3.52950647
   2.53995202  3.32882087  3.34740403
   0.33433629  0.81741912  2.68369519
   1.99515332  8.22355938  4.19318480
   0.83043791  5.33781192  0.75473835
   1.49902295  3.70300371  6.12221516



--------------------------------------------------------------------------------------------------------


 k-point   1 :   0.0000 0.0000 0.0000  plane waves:   16099
 k-point   2 :   0.1429 0.0000 0.0000  plane waves:   16088
 k-point   3 :   0.2857 0.0000 0.0000  plane waves:   16074
 k-point   4 :   0.4286 0.0000 0.0000  plane waves:   16083
 k-point   5 :   0.0000 0.3333 0.0000  plane waves:   16112
 k-point   6 :   0.1429 0.3333 0.0000  plane waves:   16092
 k-point   7 :  -0.1429 0.3333 0.0000  plane waves:   16092
 k-point   8 :   0.2857 0.3333 0.0000  plane waves:   16059
 k-point   9 :  -0.2857 0.3333 0.0000  plane waves:   16059
 k-point  10 :   0.4286 0.3333 0.0000  plane waves:   16083
 k-point  11 :  -0.4286 0.3333 0.0000  plane waves:   16083
 k-point  12 :   0.0000 0.0000 0.2500  plane waves:   16086
 k-point  13 :   0.1429 0.0000 0.2500  plane waves:   16093
 k-point  14 :   0.2857 0.0000 0.2500  plane waves:   16099
 k-point  15 :   0.4286 0.0000 0.2500  plane waves:   16110
 k-point  16 :  -0.4286 0.0000 0.2500  plane waves:   16101
 k-point  17 :  -0.2857 0.0000 0.2500  plane waves:   16100
 k-point  18 :  -0.1429 0.0000 0.2500  plane waves:   16098
 k-point  19 :   0.0000 0.3333 0.2500  plane waves:   16106
 k-point  20 :   0.0000 0.3333-0.2500  plane waves:   16106
 k-point  21 :   0.1429 0.3333 0.2500  plane waves:   16086
 k-point  22 :  -0.1429 0.3333-0.2500  plane waves:   16086
 k-point  23 :   0.2857 0.3333 0.2500  plane waves:   16081
 k-point  24 :  -0.2857 0.3333-0.2500  plane waves:   16081
 k-point  25 :   0.4286 0.3333 0.2500  plane waves:   16088
 k-point  26 :  -0.4286 0.3333-0.2500  plane waves:   16088
 k-point  27 :  -0.4286 0.3333 0.2500  plane waves:   16077
 k-point  28 :   0.4286 0.3333-0.2500  plane waves:   16077
 k-point  29 :  -0.2857 0.3333 0.2500  plane waves:   16075
 k-point  30 :   0.2857 0.3333-0.2500  plane waves:   16075
 k-point  31 :  -0.1429 0.3333 0.2500  plane waves:   16107
 k-point  32 :   0.1429 0.3333-0.2500  plane waves:   16107
 k-point  33 :   0.0000 0.0000 0.5000  plane waves:   16110
 k-point  34 :   0.1429 0.0000 0.5000  plane waves:   16095
 k-point  35 :   0.2857 0.0000 0.5000  plane waves:   16090
 k-point  36 :   0.4286 0.0000 0.5000  plane waves:   16056
 k-point  37 :   0.0000 0.3333 0.5000  plane waves:   16112
 k-point  38 :   0.1429 0.3333 0.5000  plane waves:   16105
 k-point  39 :  -0.1429 0.3333 0.5000  plane waves:   16105
 k-point  40 :   0.2857 0.3333 0.5000  plane waves:   16088
 k-point  41 :  -0.2857 0.3333 0.5000  plane waves:   16088
 k-point  42 :   0.4286 0.3333 0.5000  plane waves:   16096
 k-point  43 :  -0.4286 0.3333 0.5000  plane waves:   16096

 maximum and minimum number of plane-waves per node :       521      484

 maximum number of plane-waves:     16112
 maximum index in each direction: 
   IXMAX=    9   IYMAX=   23   IZMAX=   18
   IXMIN=   -9   IYMIN=  -23   IZMIN=  -18


 parallel 3D FFT for wavefunctions:
    minimum data exchange during FFTs selected (reduces bandwidth)
 parallel 3D FFT for charge:
    minimum data exchange during FFTs selected (reduces bandwidth)


 total amount of memory used by VASP MPI-rank0    53516. kBytes
=======================================================================

   base      :      30000. kBytes
   nonl-proj :       5787. kBytes
   fftplans  :       1313. kBytes
   grid      :       2568. kBytes
   one-center:          3. kBytes
   wavefun   :      13845. kBytes

     INWAV:  cpu time      0.0001: real time      0.0002
 Broyden mixing: mesh for mixing (old mesh)
   NGX = 19   NGY = 47   NGZ = 37
  (NGX  = 80   NGY  =192   NGZ  =144)
  gives a total of  33041 points

 initial charge density was supplied:
 charge density of overlapping atoms calculated
 number of electron      72.0000000 magnetization 
 keeping initial charge density in first step


--------------------------------------------------------------------------------------------------------


 Maximum index for augmentation-charges          471 (set IRDMAX)


--------------------------------------------------------------------------------------------------------


 First call to EWALD:  gamma=   0.292
 Maximum number of real-space cells 4x 2x 2
 Maximum number of reciprocal cells 2x 4x 3

    FEWALD:  cpu time      0.0021: real time      0.0021


--------------------------------------- Ionic step        1  -------------------------------------------




--------------------------------------- Iteration      1(   1)  ---------------------------------------


vdW kernel read from vdw_kernel.bindat
  0.0000  0.2424  0.5071  0.7962  1.1119  1.4567  1.8333  2.2446  2.6937  3.1842
  3.7199  4.3049  4.9438  5.6415  6.4036  7.2358  8.1446  9.1372 10.2212 11.4050
 12.6979 14.1099 15.6519 17.3360 19.1751 21.1837 23.3773 25.7729 28.3892 31.2465
 34.3669 37.7748 41.4965 45.5611 50.0000

    POTLOK:  cpu time      1.4177: real time      1.4207
    SETDIJ:  cpu time      0.0722: real time      0.0728
    TRIAL :  cpu time      2.0601: real time      2.0657
    CORREC:  cpu time      0.0016: real time      0.0016
    --------------------------------------------
      LOOP:  cpu time      3.5553: real time      3.6049

 eigenvalue-minimisations  :  4472
 total energy-change (2. order) : 0.6747753E+03  (-0.5468620E+04)
 number of electron      72.0000000 magnetization 
 augmentation part       72.0000000 magnetization 

 Free energy of the ion-electron system (eV)
  ---------------------------------------------------
  alpha Z        PSCENC =        66.04564387
  Ewald energy   TEWEN  =     -1794.06305543
  -Hartree energ DENC   =     -1388.40566428
  -exchange      EXHF   =         0.00000000
  -V(xc)+E(xc)   XCENC  =       220.13819968
  PAW double counting   =      2693.97996597    -2668.60244953
  entropy T*S    EENTRO =        -0.00039444
  eigenvalues    EBANDS =       -22.02422567
  atomic energy  EATOM  =      3567.70726885
  ---------------------------------------------------
  free energy    TOTEN  =       674.77528903 eV

  energy without entropy =      674.77568346  energy(sigma->0) =      674.77548624


--------------------------------------------------------------------------------------------------------




--------------------------------------- Iteration      1(   2)  ---------------------------------------


    TRIAL :  cpu time      2.4391: real time      2.4400
    CORREC:  cpu time      0.0003: real time      0.0003
    --------------------------------------------
      LOOP:  cpu time      2.4509: real time      2.4674

 eigenvalue-minimisations  :  5960
 total energy-change (2. order) :-0.6937525E+03  (-0.6643418E+03)
 number of electron      72.0000000 magnetization 
 augmentation part       72.0000000 magnetization 

 Free energy of the ion-electron system (eV)
  ---------------------------------------------------
  alpha Z        PSCENC =        66.04564387
  Ewald energy   TEWEN  =     -1794.06305543
  -Hartree energ DENC   =     -1388.40566428
  -exchange      EXHF   =         0.00000000
  -V(xc)+E(xc)   XCENC  =       220.13819968
  PAW double counting   =      2693.97996597    -2668.60244953
  entropy T*S    EENTRO =        -0.00000000
  eigenvalues    EBANDS =      -715.77709078
  atomic energy  EATOM  =      3567.70726885
  ---------------------------------------------------
  free energy    TOTEN  =       -18.97718165 eV

  energy without entropy =      -18.97718165  energy(sigma->0) =      -18.97718165


--------------------------------------------------------------------------------------------------------




--------------------------------------- Iteration      1(   3)  ---------------------------------------


    TRIAL :  cpu time      2.2369: real time      2.2377
    CORREC:  cpu time      0.0003: real time      0.0003
    --------------------------------------------
      LOOP:  cpu time      2.2515: real time      2.2671

 eigenvalue-minimisations  :  5372
 total energy-change (2. order) :-0.1126009E+03  (-0.1112378E+03)
 number of electron      72.0000000 magnetization 
 augmentation part       72.0000000 magnetization 

 Free energy of the ion-electron system (eV)
  ---------------------------------------------------
  alpha Z        PSCENC =        66.04564387
  Ewald energy   TEWEN  =     -1794.06305543
  -Hartree energ DENC   =     -1388.40566428
  -exchange      EXHF   =         0.00000000
  -V(xc)+E(xc)   XCENC  =       220.13819968
  PAW double counting   =      2693.97996597    -2668.60244953
  entropy T*S    EENTRO =        -0.00000000
  eigenvalues    EBANDS =      -828.37799086
  atomic energy  EATOM  =      3567.70726885
  ---------------------------------------------------
  free energy    TOTEN  =      -131.57808173 eV

  energy without entropy =     -131.57808173  energy(sigma->0) =     -131.57808173


--------------------------------------------------------------------------------------------------------




--------------------------------------- Iteration      1(   4)  ---------------------------------------


    TRIAL :  cpu time      2.4189: real time      2.4200
    CORREC:  cpu time      0.0003: real time      0.0003
    --------------------------------------------
      LOOP:  cpu time      2.4485: real time      2.4497

 eigenvalue-minimisations  :  5912
 total energy-change (2. order) :-0.3933156E+01  (-0.3915837E+01)
 number of electron      72.0000000 magnetization 
 augmentation part       72.0000000 magnetization 

 Free energy of the ion-electron system (eV)
  ---------------------------------------------------
  alpha Z        PSCENC =        66.04564387
  Ewald energy   TEWEN  =     -1794.06305543
  -Hartree energ DENC   =     -1388.40566428
  -exchange      EXHF   =         0.00000000
  -V(xc)+E(xc)   XCENC  =       220.13819968
  PAW double counting   =      2693.97996597    -2668.60244953
  entropy T*S    EENTRO =        -0.00000000
  eigenvalues    EBANDS =      -832.31114697
  atomic energy  EATOM  =      3567.70726885
  ---------------------------------------------------
  free energy    TOTEN  =      -135.51123784 eV

  energy without entropy =     -135.51123784  energy(sigma->0) =     -135.51123784


--------------------------------------------------------------------------------------------------------




--------------------------------------- Iteration      1(   5)  ---------------------------------------


    TRIAL :  cpu time      2.4123: real time      2.4133
    CORREC:  cpu time      0.0003: real time      0.0003
    CHARGE:  cpu time      0.0886: real time      0.0896
    --------------------------------------------
      LOOP:  cpu time      2.5130: real time      2.5321

 eigenvalue-minimisations  :  5848
 total energy-change (2. order) :-0.1148683E+00  (-0.1147825E+00)
 number of electron      72.0000000 magnetization 
 augmentation part        0.3479008 magnetization 

 Free energy of the ion-electron system (eV)
  ---------------------------------------------------
  alpha Z        PSCENC =        66.04564387
  Ewald energy   TEWEN  =     -1794.06305543
  -Hartree energ DENC   =     -1388.40566428
  -exchange      EXHF   =         0.00000000
  -V(xc)+E(xc)   XCENC  =       220.13819968
  PAW double counting   =      2693.97996597    -2668.60244953
  entropy T*S    EENTRO =        -0.00000000
  eigenvalues    EBANDS =      -832.42601530
  atomic energy  EATOM  =      3567.70726885
  ---------------------------------------------------
  free energy    TOTEN  =      -135.62610616 eV

  energy without entropy =     -135.62610616  energy(sigma->0) =     -135.62610616


--------------------------------------------------------------------------------------------------------




--------------------------------------- Iteration      1(   6)  ---------------------------------------


    POTLOK:  cpu time      0.8319: real time      0.8325
    SETDIJ:  cpu time      0.0655: real time      0.0655
    TRIAL :  cpu time      1.2027: real time      1.2045
    CORREC:  cpu time      1.5058: real time      1.5071
    CHARGE:  cpu time      0.0771: real time      0.0771
    --------------------------------------------
      LOOP:  cpu time      3.6945: real time      3.7140

 eigenvalue-minimisations  :     0
 total energy-change (2. order) : 0.2753574E+02  (-0.1328239E+02)
 number of electron      72.0000000 magnetization 
 augmentation part        0.1919134 magnetization 

 Free energy of the ion-electron system (eV)
  ---------------------------------------------------
  alpha Z        PSCENC =        66.04564387
  Ewald energy   TEWEN  =     -1794.06305543
  -Hartree energ DENC   =     -1817.18102167
  -exchange      EXHF   =         0.00000000
  -V(xc)+E(xc)   XCENC  =       247.23057423
  PAW double counting   =     23724.00137502   -23703.50032691
  entropy T*S    EENTRO =        -0.00000000
  eigenvalues    EBANDS =      -398.33082292
  atomic energy  EATOM  =      3567.70726885
  ---------------------------------------------------
  free energy    TOTEN  =      -108.09036496 eV

  energy without entropy =     -108.09036496  energy(sigma->0) =     -108.09036496


--------------------------------------------------------------------------------------------------------




--------------------------------------- Iteration      1(   7)  ---------------------------------------


    POTLOK:  cpu time      0.8310: real time      0.8313
    SETDIJ:  cpu time      0.0655: real time      0.0655
    TRIAL :  cpu time      1.1748: real time      1.1753
    CORREC:  cpu time      1.4955: real time      1.4960
    CHARGE:  cpu time      0.0780: real time      0.0782
    --------------------------------------------
      LOOP:  cpu time      3.6733: real time      3.6749

 eigenvalue-minimisations  :     0
 total energy-change (2. order) :-0.1331661E+02  (-0.1344367E+01)
 number of electron      72.0000000 magnetization 
 augmentation part        0.1373305 magnetization 

 Free energy of the ion-electron system (eV)
  ---------------------------------------------------
  alpha Z        PSCENC =        66.04564387
  Ewald energy   TEWEN  =     -1794.06305543
  -Hartree energ DENC   =     -1611.14300842
  -exchange      EXHF   =         0.00000000
  -V(xc)+E(xc)   XCENC  =       234.97347509
  PAW double counting   =     32574.56781269   -32551.68070583
  entropy T*S    EENTRO =        -0.00000000
  eigenvalues    EBANDS =      -607.81440118
  atomic energy  EATOM  =      3567.70726885
  ---------------------------------------------------
  free energy    TOTEN  =      -121.40697036 eV

  energy without entropy =     -121.40697036  energy(sigma->0) =     -121.40697036


--------------------------------------------------------------------------------------------------------




--------------------------------------- Iteration      1(   8)  ---------------------------------------


    POTLOK:  cpu time      0.8524: real time      0.8525
    SETDIJ:  cpu time      0.0652: real time      0.0655
    TRIAL :  cpu time      1.1679: real time      1.1683
    CORREC:  cpu time      1.4948: real time      1.4953
    CHARGE:  cpu time      0.0772: real time      0.0772
    --------------------------------------------
      LOOP:  cpu time      3.6699: real time      3.6869

 eigenvalue-minimisations  :     0
 total energy-change (2. order) :-0.1347365E+01  (-0.4992128E+00)
 number of electron      72.0000000 magnetization 
 augmentation part        0.1379381 magnetization 

 Free energy of the ion-electron system (eV)
  ---------------------------------------------------
  alpha Z        PSCENC =        66.04564387
  Ewald energy   TEWEN  =     -1794.06305543
  -Hartree energ DENC   =     -1604.15656004
  -exchange      EXHF   =         0.00000000
  -V(xc)+E(xc)   XCENC  =       234.58224162
  PAW double counting   =     32912.85218525   -32889.67337614
  entropy T*S    EENTRO =        -0.00000000
  eigenvalues    EBANDS =      -616.04868290
  atomic energy  EATOM  =      3567.70726885
  ---------------------------------------------------
  free energy    TOTEN  =      -122.75433492 eV

  energy without entropy =     -122.75433492  energy(sigma->0) =     -122.75433492


--------------------------------------------------------------------------------------------------------




--------------------------------------- Iteration      1(   9)  ---------------------------------------


    POTLOK:  cpu time      0.8305: real time      0.8309
    SETDIJ:  cpu time      0.0655: real time      0.0655
    TRIAL :  cpu time      1.1677: real time      1.1681
    CORREC:  cpu time      1.4945: real time      1.4956
    CHARGE:  cpu time      0.0770: real time      0.0770
    --------------------------------------------
      LOOP:  cpu time      3.6487: real time      3.6662

 eigenvalue-minimisations  :     0
 total energy-change (2. order) :-0.4949825E+00  (-0.1590153E+00)
 number of electron      72.0000000 magnetization 
 augmentation part        0.1505808 magnetization 

 Free energy of the ion-electron system (eV)
  ---------------------------------------------------
  alpha Z        PSCENC =        66.04564387
  Ewald energy   TEWEN  =     -1794.06305543
  -Hartree energ DENC   =     -1595.49289058
  -exchange      EXHF   =         0.00000000
  -V(xc)+E(xc)   XCENC  =       234.12819689
  PAW double counting   =     33090.47453782   -33067.22266785
  entropy T*S    EENTRO =        -0.00000000
  eigenvalues    EBANDS =      -624.82635099
  atomic energy  EATOM  =      3567.70726885
  ---------------------------------------------------
  free energy    TOTEN  =      -123.24931740 eV

  energy without entropy =     -123.24931740  energy(sigma->0) =     -123.24931740


--------------------------------------------------------------------------------------------------------




--------------------------------------- Iteration      1(  10)  ---------------------------------------


    POTLOK:  cpu time      0.8382: real time      0.8385
    SETDIJ:  cpu time      0.0655: real time      0.0655
    TRIAL :  cpu time      1.1883: real time      1.1887
    CORREC:  cpu time      1.4946: real time      1.4954
    CHARGE:  cpu time      0.0785: real time      0.0785
    --------------------------------------------
      LOOP:  cpu time      3.6774: real time      3.6952

 eigenvalue-minimisations  :     0
 total energy-change (2. order) :-0.1583696E+00  (-0.3706194E-01)
 number of electron      72.0000000 magnetization 
 augmentation part        0.1514945 magnetization 

 Free energy of the ion-electron system (eV)
  ---------------------------------------------------
  alpha Z        PSCENC =        66.04564387
  Ewald energy   TEWEN  =     -1794.06305543
  -Hartree energ DENC   =     -1592.25423303
  -exchange      EXHF   =         0.00000000
  -V(xc)+E(xc)   XCENC  =       233.91046949
  PAW double counting   =     32216.11783098   -32192.92607309
  entropy T*S    EENTRO =        -0.00000000
  eigenvalues    EBANDS =      -627.94553859
  atomic energy  EATOM  =      3567.70726885
  ---------------------------------------------------
  free energy    TOTEN  =      -123.40768696 eV

  energy without entropy =     -123.40768696  energy(sigma->0) =     -123.40768696


--------------------------------------------------------------------------------------------------------




--------------------------------------- Iteration      1(  11)  ---------------------------------------


    POTLOK:  cpu time      0.8307: real time      0.8308
    SETDIJ:  cpu time      0.0652: real time      0.0655
    TRIAL :  cpu time      1.1708: real time      1.1712
    CORREC:  cpu time      1.4947: real time      1.4951
    CHARGE:  cpu time      0.0772: real time      0.0772
    --------------------------------------------
      LOOP:  cpu time      3.6545: real time      3.6685

 eigenvalue-minimisations  :     0
 total energy-change (2. order) :-0.3701503E-01  (-0.7406241E-02)
 number of electron      72.0000000 magnetization 
 augmentation part        0.1512721 magnetization 

 Free energy of the ion-electron system (eV)
  ---------------------------------------------------
  alpha Z        PSCENC =        66.04564387
  Ewald energy   TEWEN  =     -1794.06305543
  -Hartree energ DENC   =     -1591.25580288
  -exchange      EXHF   =         0.00000000
  -V(xc)+E(xc)   XCENC  =       233.82152792
  PAW double counting   =     31801.48142463   -31778.30688910
  entropy T*S    EENTRO =        -0.00000000
  eigenvalues    EBANDS =      -628.87481986
  atomic energy  EATOM  =      3567.70726885
  ---------------------------------------------------
  free energy    TOTEN  =      -123.44470200 eV

  energy without entropy =     -123.44470200  energy(sigma->0) =     -123.44470200


--------------------------------------------------------------------------------------------------------




--------------------------------------- Iteration      1(  12)  ---------------------------------------


    POTLOK:  cpu time      0.8292: real time      0.8295
    SETDIJ:  cpu time      0.0655: real time      0.0655
    TRIAL :  cpu time      1.1674: real time      1.1678
    CORREC:  cpu time      1.4973: real time      1.4984
    CHARGE:  cpu time      0.0774: real time      0.0774
    --------------------------------------------
      LOOP:  cpu time      3.6670: real time      3.6690

 eigenvalue-minimisations  :     0
 total energy-change (2. order) :-0.7401116E-02  (-0.1554934E-02)
 number of electron      72.0000000 magnetization 
 augmentation part        0.1508442 magnetization 

 Free energy of the ion-electron system (eV)
  ---------------------------------------------------
  alpha Z        PSCENC =        66.04564387
  Ewald energy   TEWEN  =     -1794.06305543
  -Hartree energ DENC   =     -1591.24588254
  -exchange      EXHF   =         0.00000000
  -V(xc)+E(xc)   XCENC  =       233.80668858
  PAW double counting   =     31821.12190199   -31797.95010181
  entropy T*S    EENTRO =        -0.00000000
  eigenvalues    EBANDS =      -628.87456663
  atomic energy  EATOM  =      3567.70726885
  ---------------------------------------------------
  free energy    TOTEN  =      -123.45210311 eV

  energy without entropy =     -123.45210311  energy(sigma->0) =     -123.45210311


--------------------------------------------------------------------------------------------------------




--------------------------------------- Iteration      1(  13)  ---------------------------------------


    POTLOK:  cpu time      0.8300: real time      0.8303
    SETDIJ:  cpu time      0.0655: real time      0.0655
    TRIAL :  cpu time      1.1701: real time      1.1704
    CORREC:  cpu time      1.4953: real time      1.4961
    CHARGE:  cpu time      0.0785: real time      0.0785
    --------------------------------------------
      LOOP:  cpu time      3.6524: real time      3.6700

 eigenvalue-minimisations  :     0
 total energy-change (2. order) :-0.1552762E-02  (-0.3417994E-03)
 number of electron      72.0000000 magnetization 
 augmentation part        0.1505890 magnetization 

 Free energy of the ion-electron system (eV)
  ---------------------------------------------------
  alpha Z        PSCENC =        66.04564387
  Ewald energy   TEWEN  =     -1794.06305543
  -Hartree energ DENC   =     -1591.24147032
  -exchange      EXHF   =         0.00000000
  -V(xc)+E(xc)   XCENC  =       233.80397784
  PAW double counting   =     31874.05368352   -31850.88050059
  entropy T*S    EENTRO =        -0.00000000
  eigenvalues    EBANDS =      -628.87920361
  atomic energy  EATOM  =      3567.70726885
  ---------------------------------------------------
  free energy    TOTEN  =      -123.45365587 eV

  energy without entropy =     -123.45365587  energy(sigma->0) =     -123.45365587


--------------------------------------------------------------------------------------------------------




--------------------------------------- Iteration      1(  14)  ---------------------------------------


    POTLOK:  cpu time      0.8306: real time      0.8306
    SETDIJ:  cpu time      0.0651: real time      0.0654
    TRIAL :  cpu time      1.1677: real time      1.1681
    CORREC:  cpu time      1.4952: real time      1.4957
    CHARGE:  cpu time      0.0774: real time      0.0774
    --------------------------------------------
      LOOP:  cpu time      3.6493: real time      3.6663

 eigenvalue-minimisations  :     0
 total energy-change (2. order) :-0.3411398E-03  (-0.8589434E-04)
 number of electron      72.0000000 magnetization 
 augmentation part        0.1507679 magnetization 

 Free energy of the ion-electron system (eV)
  ---------------------------------------------------
  alpha Z        PSCENC =        66.04564387
  Ewald energy   TEWEN  =     -1794.06305543
  -Hartree energ DENC   =     -1591.25703541
  -exchange      EXHF   =         0.00000000
  -V(xc)+E(xc)   XCENC  =       233.80468214
  PAW double counting   =     31871.51932745   -31848.34513266
  entropy T*S    EENTRO =        -0.00000000
  eigenvalues    EBANDS =      -628.86569583
  atomic energy  EATOM  =      3567.70726885
  ---------------------------------------------------
  free energy    TOTEN  =      -123.45399701 eV

  energy without entropy =     -123.45399701  energy(sigma->0) =     -123.45399701


--------------------------------------------------------------------------------------------------------




--------------------------------------- Iteration      1(  15)  ---------------------------------------


    POTLOK:  cpu time      0.8947: real time      0.8950
    SETDIJ:  cpu time      0.0657: real time      0.0657
    TRIAL :  cpu time      1.1717: real time      1.1722
    CORREC:  cpu time      1.4976: real time      1.4983
    CHARGE:  cpu time      0.0779: real time      0.0779
    --------------------------------------------
      LOOP:  cpu time      3.7374: real time      3.7393

 eigenvalue-minimisations  :     0
 total energy-change (2. order) :-0.8608984E-04  (-0.2484260E-04)
 number of electron      72.0000000 magnetization 
 augmentation part        0.1507221 magnetization 

 Free energy of the ion-electron system (eV)
  ---------------------------------------------------
  alpha Z        PSCENC =        66.04564387
  Ewald energy   TEWEN  =     -1794.06305543
  -Hartree energ DENC   =     -1591.40091718
  -exchange      EXHF   =         0.00000000
  -V(xc)+E(xc)   XCENC  =       233.81249276
  PAW double counting   =     31854.43791475   -31831.26575085
  entropy T*S    EENTRO =        -0.00000000
  eigenvalues    EBANDS =      -628.72767987
  atomic energy  EATOM  =      3567.70726885
  ---------------------------------------------------
  free energy    TOTEN  =      -123.45408310 eV

  energy without entropy =     -123.45408310  energy(sigma->0) =     -123.45408310


--------------------------------------------------------------------------------------------------------




--------------------------------------- Iteration      1(  16)  ---------------------------------------


    POTLOK:  cpu time      0.8306: real time      0.8310
    SETDIJ:  cpu time      0.0655: real time      0.0655
    TRIAL :  cpu time      1.2011: real time      1.2016
    CORREC:  cpu time      1.4958: real time      1.4968
    CHARGE:  cpu time      0.0772: real time      0.0772
    --------------------------------------------
      LOOP:  cpu time      3.6846: real time      3.7012

 eigenvalue-minimisations  :     0
 total energy-change (2. order) :-0.2504199E-04  (-0.8468391E-05)
 number of electron      72.0000000 magnetization 
 augmentation part        0.1507547 magnetization 

 Free energy of the ion-electron system (eV)
  ---------------------------------------------------
  alpha Z        PSCENC =        66.04564387
  Ewald energy   TEWEN  =     -1794.06305543
  -Hartree energ DENC   =     -1591.34319527
  -exchange      EXHF   =         0.00000000
  -V(xc)+E(xc)   XCENC  =       233.80934908
  PAW double counting   =     31851.16971727   -31827.99672452
  entropy T*S    EENTRO =        -0.00000000
  eigenvalues    EBANDS =      -628.78311199
  atomic energy  EATOM  =      3567.70726885
  ---------------------------------------------------
  free energy    TOTEN  =      -123.45410815 eV

  energy without entropy =     -123.45410815  energy(sigma->0) =     -123.45410815


--------------------------------------------------------------------------------------------------------




--------------------------------------- Iteration      1(  17)  ---------------------------------------


    POTLOK:  cpu time      0.8297: real time      0.8300
    SETDIJ:  cpu time      0.0654: real time      0.0654
    TRIAL :  cpu time      1.1672: real time      1.1675
    CORREC:  cpu time      1.4935: real time      1.4940
    CHARGE:  cpu time      0.0771: real time      0.0771
    --------------------------------------------
      LOOP:  cpu time      3.6464: real time      3.6641

 eigenvalue-minimisations  :     0
 total energy-change (2. order) :-0.8422401E-05  (-0.2787665E-05)
 number of electron      72.0000000 magnetization 
 augmentation part        0.1507070 magnetization 

 Free energy of the ion-electron system (eV)
  ---------------------------------------------------
  alpha Z        PSCENC =        66.04564387
  Ewald energy   TEWEN  =     -1794.06305543
  -Hartree energ DENC   =     -1591.39551407
  -exchange      EXHF   =         0.00000000
  -V(xc)+E(xc)   XCENC  =       233.81249152
  PAW double counting   =     31853.53155558   -31830.35892564
  entropy T*S    EENTRO =        -0.00000000
  eigenvalues    EBANDS =      -628.73358125
  atomic energy  EATOM  =      3567.70726885
  ---------------------------------------------------
  free energy    TOTEN  =      -123.45411657 eV

  energy without entropy =     -123.45411657  energy(sigma->0) =     -123.45411657


--------------------------------------------------------------------------------------------------------




--------------------------------------- Iteration      1(  18)  ---------------------------------------


    POTLOK:  cpu time      0.8299: real time      0.8303
    SETDIJ:  cpu time      0.0655: real time      0.0655
    TRIAL :  cpu time      1.1722: real time      1.1726
    CORREC:  cpu time      1.4963: real time      1.4971
    CHARGE:  cpu time      0.0781: real time      0.0781
    --------------------------------------------
      LOOP:  cpu time      3.6717: real time      3.6737

 eigenvalue-minimisations  :     0
 total energy-change (2. order) :-0.2703477E-05  (-0.8775434E-06)
 number of electron      72.0000000 magnetization 
 augmentation part        0.1507158 magnetization 

 Free energy of the ion-electron system (eV)
  ---------------------------------------------------
  alpha Z        PSCENC =        66.04564387
  Ewald energy   TEWEN  =     -1794.06305543
  -Hartree energ DENC   =     -1591.37695196
  -exchange      EXHF   =         0.00000000
  -V(xc)+E(xc)   XCENC  =       233.81154270
  PAW double counting   =     31859.80176833   -31836.62865333
  entropy T*S    EENTRO =        -0.00000000
  eigenvalues    EBANDS =      -628.75168231
  atomic energy  EATOM  =      3567.70726885
  ---------------------------------------------------
  free energy    TOTEN  =      -123.45411927 eV

  energy without entropy =     -123.45411927  energy(sigma->0) =     -123.45411927


--------------------------------------------------------------------------------------------------------




--------------------------------------- Iteration      1(  19)  ---------------------------------------


    POTLOK:  cpu time      0.8308: real time      0.8312
    SETDIJ:  cpu time      0.0655: real time      0.0655
    TRIAL :  cpu time      1.1679: real time      1.1682
    CORREC:  cpu time      1.5074: real time      1.5082
    CHARGE:  cpu time      0.0777: real time      0.0777
    --------------------------------------------
      LOOP:  cpu time      3.6608: real time      3.6800

 eigenvalue-minimisations  :     0
 total energy-change (2. order) :-0.8298557E-06  (-0.2004111E-06)
 number of electron      72.0000000 magnetization 
 augmentation part        0.1507074 magnetization 

 Free energy of the ion-electron system (eV)
  ---------------------------------------------------
  alpha Z        PSCENC =        66.04564387
  Ewald energy   TEWEN  =     -1794.06305543
  -Hartree energ DENC   =     -1591.38829751
  -exchange      EXHF   =         0.00000000
  -V(xc)+E(xc)   XCENC  =       233.81229120
  PAW double counting   =     31861.16110093   -31837.98811566
  entropy T*S    EENTRO =        -0.00000000
  eigenvalues    EBANDS =      -628.74095636
  atomic energy  EATOM  =      3567.70726885
  ---------------------------------------------------
  free energy    TOTEN  =      -123.45412010 eV

[...]
     20      -6.4032      2.00000
     21      -5.6748      2.00000
     22      -5.5768      2.00000
     23      -5.2774      2.00000
     24      -5.0452      2.00000
     25      -4.8807      2.00000
     26      -4.8440      2.00000
     27      -4.7511      2.00000
     28      -4.7069      2.00000
     29      -2.0960      2.00000
     30      -2.0357      2.00000
     31      -1.7612      2.00000
     32      -1.6997      2.00000
     33      -1.5956      2.00000
     34      -1.5341      2.00000
     35      -1.1528      2.00000
     36      -1.1378      2.00000
     37       3.9410      0.00000
     38       3.9574      0.00000
     39       4.0952      0.00000
     40       4.1472      0.00000
     41       5.5517      0.00000
     42       5.9959      0.00000
     43       6.4037      0.00000
     44       6.5011      0.00000
     45       7.7160      0.00000
     46       7.9188      0.00000
     47       8.2192      0.00000
     48       8.5616      0.00000
     49       9.2649      0.00000
     50       9.5433      0.00000
     51       9.6981      0.00000
     52      10.0680      0.00000

 k-point    39 :      -0.1429    0.3333    0.5000
  band No.  band energies     occupation 
      1     -21.0924      2.00000
      2     -21.0873      2.00000
      3     -21.0129      2.00000
      4     -21.0072      2.00000
      5     -17.7735      2.00000
      6     -17.7476      2.00000
      7     -17.6251      2.00000
      8     -17.5865      2.00000
      9     -10.7178      2.00000
     10     -10.7002      2.00000
     11     -10.2427      2.00000
     12     -10.2298      2.00000
     13      -8.8563      2.00000
     14      -8.8030      2.00000
     15      -8.4828      2.00000
     16      -8.4209      2.00000
     17      -7.5933      2.00000
     18      -7.5783      2.00000
     19      -6.4497      2.00000
     20      -6.4032      2.00000
     21      -5.6748      2.00000
     22      -5.5768      2.00000
     23      -5.2773      2.00000
     24      -5.0453      2.00000
     25      -4.8807      2.00000
     26      -4.8441      2.00000
     27      -4.7511      2.00000
     28      -4.7069      2.00000
     29      -2.0960      2.00000
     30      -2.0357      2.00000
     31      -1.7613      2.00000
     32      -1.6997      2.00000
     33      -1.5956      2.00000
     34      -1.5341      2.00000
     35      -1.1527      2.00000
     36      -1.1379      2.00000
     37       3.9409      0.00000
     38       3.9575      0.00000
     39       4.0951      0.00000
     40       4.1473      0.00000
     41       5.5517      0.00000
     42       5.9959      0.00000
     43       6.4036      0.00000
     44       6.5011      0.00000
     45       7.7163      0.00000
     46       7.9199      0.00000
     47       8.2192      0.00000
     48       8.5631      0.00000
     49       9.2538      0.00000
     50       9.6209      0.00000
     51       9.6892      0.00000
     52      10.1819      0.00000

 k-point    40 :       0.2857    0.3333    0.5000
  band No.  band energies     occupation 
      1     -21.0611      2.00000
      2     -21.0479      2.00000
      3     -20.9958      2.00000
      4     -20.9816      2.00000
      5     -17.7529      2.00000
      6     -17.7004      2.00000
      7     -17.6236      2.00000
      8     -17.5479      2.00000
      9     -10.7147      2.00000
     10     -10.6887      2.00000
     11     -10.2184      2.00000
     12     -10.1983      2.00000
     13      -8.8773      2.00000
     14      -8.7811      2.00000
     15      -8.5121      2.00000
     16      -8.3947      2.00000
     17      -7.5871      2.00000
     18      -7.5593      2.00000
     19      -6.5221      2.00000
     20      -6.4395      2.00000
     21      -5.7447      2.00000
     22      -5.6149      2.00000
     23      -5.4334      2.00000
     24      -5.1963      2.00000
     25      -5.1186      2.00000
     26      -5.0712      2.00000
     27      -4.9468      2.00000
     28      -4.7930      2.00000
     29      -2.2008      2.00000
     30      -2.1168      2.00000
     31      -1.9098      2.00000
     32      -1.8470      2.00000
     33      -1.7050      2.00000
     34      -1.6140      2.00000
     35      -1.1393      2.00000
     36      -1.1095      2.00000
     37       3.8601      0.00000
     38       3.8780      0.00000
     39       4.0966      0.00000
     40       4.1547      0.00000
     41       5.7171      0.00000
     42       6.2425      0.00000
     43       6.9785      0.00000
     44       6.9960      0.00000
     45       7.9545      0.00000
     46       8.2202      0.00000
     47       8.3095      0.00000
     48       8.7125      0.00000
     49       8.9802      0.00000
     50       9.2001      0.00000
     51       9.5622      0.00000
     52       9.8216      0.00000

 k-point    41 :      -0.2857    0.3333    0.5000
  band No.  band energies     occupation 
      1     -21.0611      2.00000
      2     -21.0478      2.00000
      3     -20.9958      2.00000
      4     -20.9816      2.00000
      5     -17.7529      2.00000
      6     -17.7005      2.00000
      7     -17.6235      2.00000
      8     -17.5479      2.00000
      9     -10.7148      2.00000
     10     -10.6887      2.00000
     11     -10.2185      2.00000
     12     -10.1982      2.00000
     13      -8.8773      2.00000
     14      -8.7811      2.00000
     15      -8.5121      2.00000
     16      -8.3946      2.00000
     17      -7.5871      2.00000
     18      -7.5593      2.00000
     19      -6.5221      2.00000
     20      -6.4395      2.00000
     21      -5.7447      2.00000
     22      -5.6150      2.00000
     23      -5.4333      2.00000
     24      -5.1963      2.00000
     25      -5.1187      2.00000
     26      -5.0711      2.00000
     27      -4.9467      2.00000
     28      -4.7930      2.00000
     29      -2.2009      2.00000
     30      -2.1166      2.00000
     31      -1.9099      2.00000
     32      -1.8470      2.00000
     33      -1.7049      2.00000
     34      -1.6140      2.00000
     35      -1.1392      2.00000
     36      -1.1096      2.00000
     37       3.8602      0.00000
     38       3.8779      0.00000
     39       4.0966      0.00000
     40       4.1548      0.00000
     41       5.7171      0.00000
     42       6.2425      0.00000
     43       6.9784      0.00000
     44       6.9961      0.00000
     45       7.9545      0.00000
     46       8.2227      0.00000
     47       8.3088      0.00000
     48       8.7147      0.00000
     49       8.9761      0.00000
     50       9.1950      0.00000
     51       9.6023      0.00000
     52       9.9964      0.00000

 k-point    42 :       0.4286    0.3333    0.5000
  band No.  band energies     occupation 
      1     -21.0353      2.00000
      2     -21.0086      2.00000
      3     -20.9892      2.00000
      4     -20.9614      2.00000
      5     -17.7341      2.00000
      6     -17.6562      2.00000
      7     -17.6271      2.00000
      8     -17.5200      2.00000
      9     -10.7144      2.00000
     10     -10.6881      2.00000
     11     -10.1941      2.00000
     12     -10.1728      2.00000
     13      -8.8915      2.00000
     14      -8.7709      2.00000
     15      -8.5332      2.00000
     16      -8.3808      2.00000
     17      -7.5853      2.00000
     18      -7.5508      2.00000
     19      -6.5693      2.00000
     20      -6.4701      2.00000
     21      -5.7720      2.00000
     22      -5.6477      2.00000
     23      -5.5082      2.00000
     24      -5.4844      2.00000
     25      -5.3187      2.00000
     26      -5.1760      2.00000
     27      -5.0448      2.00000
     28      -4.7915      2.00000
     29      -2.3538      2.00000
     30      -2.1668      2.00000
     31      -2.0337      2.00000
     32      -1.8969      2.00000
     33      -1.7821      2.00000
     34      -1.7052      2.00000
     35      -1.1326      2.00000
     36      -1.0961      2.00000
     37       3.7007      0.00000
     38       3.7573      0.00000
     39       4.0773      0.00000
     40       4.1606      0.00000
     41       5.9170      0.00000
     42       6.4463      0.00000
     43       7.4774      0.00000
     44       7.5460      0.00000
     45       7.9788      0.00000
     46       8.3307      0.00000
     47       8.5121      0.00000
     48       8.6672      0.00000
     49       8.8656      0.00000
     50       8.9577      0.00000
     51       9.1561      0.00000
     52       9.5165      0.00000

 k-point    43 :      -0.4286    0.3333    0.5000
  band No.  band energies     occupation 
      1     -21.0353      2.00000
      2     -21.0086      2.00000
      3     -20.9892      2.00000
      4     -20.9614      2.00000
      5     -17.7341      2.00000
      6     -17.6563      2.00000
      7     -17.6270      2.00000
      8     -17.5200      2.00000
      9     -10.7144      2.00000
     10     -10.6881      2.00000
     11     -10.1941      2.00000
     12     -10.1727      2.00000
     13      -8.8915      2.00000
     14      -8.7709      2.00000
     15      -8.5332      2.00000
     16      -8.3808      2.00000
     17      -7.5853      2.00000
     18      -7.5508      2.00000
     19      -6.5693      2.00000
     20      -6.4701      2.00000
     21      -5.7719      2.00000
     22      -5.6478      2.00000
     23      -5.5081      2.00000
     24      -5.4843      2.00000
     25      -5.3187      2.00000
     26      -5.1760      2.00000
     27      -5.0448      2.00000
     28      -4.7915      2.00000
     29      -2.3538      2.00000
     30      -2.1667      2.00000
     31      -2.0337      2.00000
     32      -1.8969      2.00000
     33      -1.7821      2.00000
     34      -1.7052      2.00000
     35      -1.1325      2.00000
     36      -1.0961      2.00000
     37       3.7008      0.00000
     38       3.7572      0.00000
     39       4.0773      0.00000
     40       4.1606      0.00000
     41       5.9170      0.00000
     42       6.4464      0.00000
     43       7.4773      0.00000
     44       7.5462      0.00000
     45       7.9787      0.00000
     46       8.3314      0.00000
     47       8.5174      0.00000
     48       8.6607      0.00000
     49       8.8567      0.00000
     50       8.9536      0.00000
     51       9.1626      0.00000
     52       9.6632      0.00000


--------------------------------------------------------------------------------------------------------


 soft charge-density along one line, spin component           1
         0         1         2         3         4         5         6         7         8         9
 total charge-density along one line

 pseudopotential strength for first ion, spin component:           1
 12.619  21.235  -0.002  -0.008   0.005  -0.004  -0.014   0.008
 21.235  35.734  -0.004  -0.014   0.008  -0.007  -0.024   0.014
 -0.002  -0.004  -3.145  -0.001  -0.005  -5.635  -0.002  -0.008
 -0.008  -0.014  -0.001  -3.143  -0.006  -0.002  -5.632  -0.010
  0.005   0.008  -0.005  -0.006  -3.153  -0.008  -0.010  -5.648
 -0.004  -0.007  -5.635  -0.002  -0.008 -10.073  -0.003  -0.014
 -0.014  -0.024  -0.002  -5.632  -0.010  -0.003 -10.067  -0.018
  0.008   0.014  -0.008  -0.010  -5.648  -0.014  -0.018 -10.097
 total augmentation occupancy for first ion, spin component:           1
  7.777  -2.796  -0.939  -1.103   0.948   0.473   0.512  -0.453
 -2.796   1.091   0.509   0.581  -0.502  -0.252  -0.248   0.228
 -0.939   0.509   8.155  -1.088  -1.868  -2.972   0.466   0.776
 -1.103   0.581  -1.088   5.819  -0.927   0.466  -1.863   0.322
  0.948  -0.502  -1.868  -0.927   3.894   0.776   0.322  -1.166
  0.473  -0.252  -2.972   0.466   0.776   1.118  -0.190  -0.321
  0.512  -0.248   0.466  -1.863   0.322  -0.190   0.613  -0.112
 -0.453   0.228   0.776   0.322  -1.166  -0.321  -0.112   0.366


------------------------ aborting loop because EDIFF is reached ----------------------------------------


    FORLOC:  cpu time      0.0034: real time      0.0035
    FORNL :  cpu time      0.5380: real time      0.5382
    FORCOR:  cpu time      0.8977: real time      0.8988
    OFIELD:  cpu time      0.0023: real time      0.0026

 VOLUME and BASIS-vectors are now :
 -----------------------------------------------------------------------------
  energy-cutoff  :     1000.00
  volume of cell :      224.07
      direct lattice vectors                 reciprocal lattice vectors
     3.604000000  0.000000000  0.000000000     0.277469478 -0.000000000  0.051426155
     0.000000000  9.041000000  0.000000000     0.000000000  0.110607234 -0.000000000
    -1.274560000  0.000000000  6.876880000     0.000000000  0.000000000  0.145414781

  length of vectors
     3.604000000  9.041000000  6.993996120     0.282194899  0.110607234  0.145414781


 FORCES acting on ions:
    Electron-Ion                     Ewald-Force                    Non-Local-Force
 -----------------------------------------------------------------------------------------------
   0.601E+02 -.642E+02 -.942E+02   -.629E+02 0.656E+02 0.991E+02   0.268E+01 -.126E+01 -.467E+01
   -.601E+02 0.643E+02 0.942E+02   0.629E+02 -.656E+02 -.991E+02   -.268E+01 0.125E+01 0.467E+01
   -.601E+02 -.643E+02 0.942E+02   0.629E+02 0.656E+02 -.990E+02   -.268E+01 -.125E+01 0.467E+01
   0.601E+02 0.642E+02 -.942E+02   -.629E+02 -.656E+02 0.990E+02   0.268E+01 0.125E+01 -.467E+01
   -.698E+02 0.158E+03 -.345E+02   0.897E+02 -.200E+03 0.339E+02   -.199E+02 0.425E+02 0.630E+00
   0.698E+02 -.158E+03 0.345E+02   -.897E+02 0.200E+03 -.339E+02   0.199E+02 -.425E+02 -.631E+00
   0.698E+02 0.158E+03 0.345E+02   -.897E+02 -.200E+03 -.339E+02   0.199E+02 0.425E+02 -.632E+00
   -.698E+02 -.158E+03 -.345E+02   0.897E+02 0.200E+03 0.339E+02   -.199E+02 -.425E+02 0.630E+00
   0.217E+01 -.102E+03 0.628E+02   -.248E+01 0.105E+03 -.664E+02   0.325E+00 -.280E+01 0.336E+01
   -.218E+01 0.102E+03 -.628E+02   0.249E+01 -.105E+03 0.664E+02   -.325E+00 0.280E+01 -.337E+01
   -.217E+01 -.102E+03 -.628E+02   0.248E+01 0.105E+03 0.664E+02   -.323E+00 -.280E+01 -.336E+01
   0.217E+01 0.102E+03 0.628E+02   -.248E+01 -.105E+03 -.664E+02   0.324E+00 0.280E+01 0.336E+01
   0.184E+02 -.467E+02 -.513E+00   -.212E+02 0.531E+02 0.170E+01   0.294E+01 -.661E+01 -.126E+01
   -.184E+02 0.467E+02 0.513E+00   0.212E+02 -.531E+02 -.170E+01   -.294E+01 0.661E+01 0.125E+01
   -.184E+02 -.467E+02 0.511E+00   0.212E+02 0.531E+02 -.170E+01   -.294E+01 -.661E+01 0.126E+01
   0.184E+02 0.467E+02 -.509E+00   -.212E+02 -.531E+02 0.170E+01   0.294E+01 0.661E+01 -.126E+01
   -.201E+02 -.448E+01 0.452E+02   0.233E+02 0.303E+01 -.513E+02   -.323E+01 0.152E+01 0.631E+01
   0.201E+02 0.448E+01 -.452E+02   -.233E+02 -.304E+01 0.513E+02   0.323E+01 -.152E+01 -.631E+01
   0.201E+02 -.448E+01 -.452E+02   -.233E+02 0.304E+01 0.514E+02   0.323E+01 0.152E+01 -.631E+01
   -.201E+02 0.448E+01 0.452E+02   0.233E+02 -.303E+01 -.513E+02   -.323E+01 -.152E+01 0.631E+01
   0.267E+02 -.159E+02 -.428E+02   -.295E+02 0.175E+02 0.476E+02   0.280E+01 -.160E+01 -.490E+01
   -.267E+02 0.160E+02 0.428E+02   0.295E+02 -.175E+02 -.476E+02   -.280E+01 0.160E+01 0.490E+01
   -.267E+02 -.160E+02 0.428E+02   0.295E+02 0.175E+02 -.476E+02   -.280E+01 -.160E+01 0.490E+01
   0.267E+02 0.159E+02 -.428E+02   -.295E+02 -.175E+02 0.476E+02   0.280E+01 0.160E+01 -.490E+01
 -----------------------------------------------------------------------------------------------
   -.214E-02 -.292E-03 0.362E-02   -.284E-13 -.355E-13 0.497E-13   0.213E-02 0.274E-03 -.361E-02


 POSITION                                       TOTAL-FORCE (eV/Angst)
 -----------------------------------------------------------------------------------
      0.86868      0.49796      1.76957        -0.132333      0.055414      0.272142
      1.46079      8.54304      5.10730         0.133285     -0.057856     -0.271476
      0.29604      5.01836      1.66885         0.133445      0.058991     -0.271202
      2.03338      4.02243      5.20808        -0.132804     -0.056491      0.272041
      1.39099      8.40103      1.70751         0.100642     -0.165869      0.026502
      0.93850      0.63994      5.16937        -0.101494      0.167233     -0.026403
     -0.22627      3.88051      1.73094        -0.101851     -0.168765     -0.026521
      2.55570      5.16033      5.14603         0.101318      0.167476      0.026385
      0.91200      1.41045      0.80489         0.007110      0.288144     -0.265251
      1.41747      7.63054      6.07200        -0.007110     -0.287686      0.264549
      0.25269      5.93089      2.63354        -0.005431      0.289482      0.262620
      2.07671      3.10995      4.24339         0.005838     -0.289792     -0.263912
      0.49812      2.33600      0.97933         0.084949     -0.163492     -0.064963
      1.83132      6.70498      5.89760        -0.084864      0.163490      0.064716
      0.66662      6.85646      2.45910        -0.085621     -0.164860      0.065210
      1.66278      2.18437      4.41784         0.085712      0.164881     -0.065403
      0.10070      1.19157      6.78577        -0.092868      0.074583      0.160546
      2.22877      7.84943      0.09111         0.092741     -0.074500     -0.160302
     -0.21054      5.71203      3.52951         0.092075      0.074173     -0.159103
      2.53995      3.32882      3.34740        -0.092495     -0.074368      0.159891
      0.33434      0.81742      2.68370         0.029944     -0.010601     -0.090361
      1.99515      8.22356      4.19318        -0.030065      0.010681      0.090347
      0.83044      5.33781      0.75474        -0.030064     -0.010604      0.090531
      1.49902      3.70300      6.12222         0.029941      0.010334     -0.090584
 -----------------------------------------------------------------------------------
    total drift:                               -0.000010     -0.000018      0.000005


--------------------------------------------------------------------------------------------------------



  FREE ENERGIE OF THE ION-ELECTRON SYSTEM (eV)
  ---------------------------------------------------
  free  energy   TOTEN  =      -123.45412038 eV

  energy  without entropy=     -123.45412038  energy(sigma->0) =     -123.45412038



--------------------------------------------------------------------------------------------------------


    POTLOK:  cpu time      0.8996: real time      0.8999


--------------------------------------------------------------------------------------------------------


 stress matrix after NEB project (eV)
      0.00000      0.00000      0.00000
      0.00000      0.00000      0.00000
      0.00000      0.00000      0.00000
  FORCES: max atom, RMS     0.391998    0.249757
  FORCE total and by dimension    1.223555    0.289792
  Stress total and by dimension    0.000000    0.000000
     LOOP+:  cpu time     78.2098: real time     78.5361
    4ORBIT:  cpu time      0.0000: real time      0.0000

 total amount of memory used by VASP MPI-rank0    53516. kBytes
=======================================================================

   base      :      30000. kBytes
   nonl-proj :       5787. kBytes
   fftplans  :       1313. kBytes
   grid      :       2568. kBytes
   one-center:          3. kBytes
   wavefun   :      13845. kBytes

  
  
 General timing and accounting informations for this job:
 ========================================================
  
                  Total CPU time used (sec):       89.572
                            User time (sec):       87.627
                          System time (sec):        1.945
                         Elapsed time (sec):       90.146
  
                   Maximum memory used (kb):      231224.
                   Average memory used (kb):          N/A
  
                          Minor page faults:        65851
                          Major page faults:          810
                 Voluntary context switches:         2890
