 vasp.6.4.1 05Apr23 (build Jun  6 2023 14:36:51) complex                         
 executed on        HPECrayEX_GCC date 2024.08.20  15:25:57
 running  256 mpi-ranks, with    1 threads/rank, on    2 nodes
 distrk:  each k-point on  128 cores,    2 groups
 distr:  one band on NCORE=  32 cores,    4 groups


--------------------------------------------------------------------------------------------------------


 INCAR:
   ALGO = Conjugate
   KPAR = 2
   NCORE = 32
   ISMEAR = 0
   SIGMA = 0.01
   PREC = Accurate
   EDIFF = 1E-7
   ENCUT = 1000
   ISIF = 0
   METAGGA = R2SCAN
   LASPH = .TRUE.
   SYMPREC = 1E-7
   LWAVE = .FALSE.
   LCHARG = .FALSE.
   LWAVE = .FALSE.
   LCHARGE = .FALSE.

 POTCAR:    PAW_PBE C_h 06Feb2004                 
 POTCAR:    PAW_PBE H_h 06Feb2004                 
 POTCAR:    PAW_PBE N_h 06Feb2004                 
 POTCAR:    PAW_PBE C_h 06Feb2004                 
   VRHFIN =C: s2p2                                                                                  
   LEXCH  = PE                                                                                      
   EATOM  =   147.1560 eV,   10.8157 Ry                                                             
                                                                                                    
   TITEL  = PAW_PBE C_h 06Feb2004                                                                   
   LULTRA =        F    use ultrasoft PP ?                                                          
   IUNSCR =        1    unscreen: 0-lin 1-nonlin 2-no                                               
   RPACOR =    0.800    partial core radius                                                         
   POMASS =   12.011; ZVAL   =    4.000    mass and valenz                                          
   RCORE  =    1.100    outmost cutoff radius                                                       
   RWIGS  =    1.630; RWIGS  =    0.863    wigner-seitz radius (au A)                               
   ENMAX  =  700.000; ENMIN  =  500.000 eV                                                          
   ICORE  =        2    local potential                                                             
   LCOR   =        T    correct aug charges                                                         
   LPAW   =        T    paw PP                                                                      
   EAUG   =  946.768                                                                                
   DEXC   =    0.000                                                                                
   RMAX   =    1.128    core radius for proj-oper                                                   
   RAUG   =    1.300    factor for augmentation sphere                                              
   RDEP   =    1.162    radius for radial grids                                                     
   RDEPT  =    1.088    core radius for aug-charge                                                  
                                                                                                    
   Atomic configuration                                                                             
    4 entries                                                                                       
     n  l   j            E        occ.                                                              
     1  0  0.50      -273.3789   2.0000                                                             
     2  0  0.50       -13.7508   2.0000                                                             
     2  1  0.50        -5.2854   2.0000                                                             
     3  2  1.50        -5.4423   0.0000                                                             
   Description                                                                                      
     l       E           TYP  RCUT    TYP  RCUT                                                     
     0    -13.7508458     23  1.100                                                                 
     0     -8.2022199     23  1.100                                                                 
     1     -5.2854383     23  1.100                                                                 
     1      1.1560700     23  1.100                                                                 
     2     -5.4423304      7  1.100                                                                 
  local pseudopotential read in
  partial core-charges read in
  partial kinetic energy density read in
  atomic valenz-charges read in
  non local Contribution for L=           0  read in
    real space projection operators read in
  non local Contribution for L=           0  read in
    real space projection operators read in
  non local Contribution for L=           1  read in
    real space projection operators read in
  non local Contribution for L=           1  read in
    real space projection operators read in
    PAW grid and wavefunctions read in

   number of l-projection  operators is LMAX  =           4
   number of lm-projection operators is LMMAX =           8

 POTCAR:    PAW_PBE H_h 06Feb2004                 
   VRHFIN =H: ultrasoft test                                                                        
   LEXCH  = PE                                                                                      
   EATOM  =    12.4884 eV,    0.9179 Ry                                                             
                                                                                                    
   TITEL  = PAW_PBE H_h 06Feb2004                                                                   
   LULTRA =        F    use ultrasoft PP ?                                                          
   IUNSCR =        0    unscreen: 0-lin 1-nonlin 2-no                                               
   RPACOR =    0.000    partial core radius                                                         
   POMASS =    1.000; ZVAL   =    1.000    mass and valenz                                          
   RCORE  =    0.800    outmost cutoff radius                                                       
   RWIGS  =    0.700; RWIGS  =    0.370    wigner-seitz radius (au A)                               
   ENMAX  =  700.000; ENMIN  =  350.000 eV                                                          
   RCLOC  =    0.701    cutoff for local pot                                                        
   LCOR   =        T    correct aug charges                                                         
   LPAW   =        T    paw PP                                                                      
   EAUG   = 1000.000                                                                                
   RMAX   =    0.819    core radius for proj-oper                                                   
   RAUG   =    1.000    factor for augmentation sphere                                              
   RDEP   =    0.817    radius for radial grids                                                     
   RDEPT  =    0.817    core radius for aug-charge                                                  
                                                                                                    
   Atomic configuration                                                                             
    2 entries                                                                                       
     n  l   j            E        occ.                                                              
     1  0  0.50        -6.4927   1.0000                                                             
     2  1  0.50        -3.4015   0.0000                                                             
   Description                                                                                      
     l       E           TYP  RCUT    TYP  RCUT                                                     
     0     -6.4927493     23  0.800                                                                 
     0      6.8029130     23  0.800                                                                 
     1     -6.8029130     23  0.800                                                                 
  local pseudopotential read in
  atomic valenz-charges read in
  non local Contribution for L=           0  read in
    real space projection operators read in
  non local Contribution for L=           0  read in
    real space projection operators read in
  non local Contribution for L=           1  read in
    real space projection operators read in
    PAW grid and wavefunctions read in

   number of l-projection  operators is LMAX  =           3
   number of lm-projection operators is LMMAX =           5

 POTCAR:    PAW_PBE N_h 06Feb2004                 
   VRHFIN =N: s2p3                                                                                  
   LEXCH  = PE                                                                                      
   EATOM  =   264.5486 eV,   19.4438 Ry                                                             
                                                                                                    
   TITEL  = PAW_PBE N_h 06Feb2004                                                                   
   LULTRA =        F    use ultrasoft PP ?                                                          
   IUNSCR =        1    unscreen: 0-lin 1-nonlin 2-no                                               
   RPACOR =    0.800    partial core radius                                                         
   POMASS =   14.001; ZVAL   =    5.000    mass and valenz                                          
   RCORE  =    1.100    outmost cutoff radius                                                       
   RWIGS  =    1.480; RWIGS  =    0.783    wigner-seitz radius (au A)                               
   ENMAX  =  700.000; ENMIN  =  500.000 eV                                                          
   ICORE  =        2    local potential                                                             
   LCOR   =        T    correct aug charges                                                         
   LPAW   =        T    paw PP                                                                      
   EAUG   =  904.640                                                                                
   DEXC   =    0.000                                                                                
   RMAX   =    1.127    core radius for proj-oper                                                   
   RAUG   =    1.300    factor for augmentation sphere                                              
   RDEP   =    1.115    radius for radial grids                                                     
   RDEPT  =    1.106    core radius for aug-charge                                                  
                                                                                                    
   Atomic configuration                                                                             
    4 entries                                                                                       
     n  l   j            E        occ.                                                              
     1  0  0.50      -384.7179   2.0000                                                             
     2  0  0.50       -18.5828   2.0000                                                             
     2  1  0.50        -7.0898   3.0000                                                             
     3  2  1.50        -6.8029   0.0000                                                             
   Description                                                                                      
     l       E           TYP  RCUT    TYP  RCUT                                                     
     0    -18.5828117     23  1.100                                                                 
     0    -15.0750597     23  1.100                                                                 
     1     -7.0897851     23  1.100                                                                 
     1     -1.9663412     23  1.100                                                                 
     2     -6.8029130      7  1.100                                                                 
  local pseudopotential read in
  partial core-charges read in
  partial kinetic energy density read in
  kinetic energy density of atom read in
  atomic valenz-charges read in
  non local Contribution for L=           0  read in
    real space projection operators read in
  non local Contribution for L=           0  read in
    real space projection operators read in
  non local Contribution for L=           1  read in
    real space projection operators read in
  non local Contribution for L=           1  read in
    real space projection operators read in
    PAW grid and wavefunctions read in

   number of l-projection  operators is LMAX  =           4
   number of lm-projection operators is LMMAX =           8

 -----------------------------------------------------------------------------
|                                                                             |
|               ----> ADVICE to this user running VASP <----                  |
|                                                                             |
|     You have a (more or less) 'large supercell' and for larger cells it     |
|     might be more efficient to use real-space projection operators.         |
|     Therefore, try LREAL= Auto in the INCAR file.                           |
|     Mind: For very accurate calculation, you might also keep the            |
|     reciprocal projection scheme (i.e. LREAL=.FALSE.).                      |
|                                                                             |
 -----------------------------------------------------------------------------

  PAW_PBE C_h 06Feb2004                 :
 energy of atom  1       EATOM= -147.1560
 kinetic energy error for atom=    0.0031 (will be added to EATOM!!)
  PAW_PBE H_h 06Feb2004                 :
 energy of atom  2       EATOM=  -12.4884
 kinetic energy error for atom=    0.0006 (will be added to EATOM!!)
  PAW_PBE N_h 06Feb2004                 :
 energy of atom  3       EATOM= -264.5486
 kinetic energy error for atom=    0.0081 (will be added to EATOM!!)


 POSCAR:  C  H  N
  positions in cartesian coordinates
  No initial velocities read in

 METAGGA = R2SCAN                                      LMAXTAU =  6    LMIXTAU =  F

 exchange correlation table for  LEXCH =        8
   RHO(1)=    0.500       N(1)  =     2000
   RHO(2)=  100.500       N(2)  =     4000

 VTST: version 4.1, (05/19/21)

 CHAIN: initializing optimizer
 
 OPT: Using VASP Dynamics algorithm
 CHAIN: Read ICHAIN            0

 POSCAR:  C  H  N
  positions in cartesian coordinates
  No initial velocities read in



--------------------------------------------------------------------------------------------------------


 ion  position               nearest neighbor table
   1  0.290  0.056  0.387-  37 1.09  61 1.35   5 1.41
   2  0.790  0.944  0.613-  38 1.09  62 1.35   6 1.41
   3  0.290  0.444  0.887-  39 1.09  63 1.35   7 1.41
   4  0.790  0.556  0.113-  40 1.09  64 1.35   8 1.41
   5  0.392  0.117  0.510-  33 1.08   9 1.39   1 1.41
   6  0.892  0.883  0.490-  34 1.08  10 1.39   2 1.41
   7  0.392  0.383  0.010-  35 1.08  11 1.39   3 1.41
   8  0.892  0.617  0.990-  36 1.08  12 1.39   4 1.41
   9  0.293  0.199  0.579-  29 1.08  57 1.35   5 1.39
  10  0.793  0.801  0.421-  30 1.08  58 1.35   6 1.39
  11  0.293  0.301  0.079-  31 1.08  59 1.35   7 1.39
  12  0.793  0.699  0.921-  32 1.08  60 1.35   8 1.39
  13  0.713  0.187  0.927-  53 1.08  69 1.34  17 1.41
  14  0.213  0.813  0.073-  54 1.08  70 1.34  18 1.41
  15  0.713  0.313  0.427-  55 1.08  71 1.34  19 1.41
  16  0.213  0.687  0.573-  56 1.08  72 1.34  20 1.41
  17  0.607  0.109  0.001-  49 1.08  21 1.39  13 1.41
  18  0.107  0.891  0.999-  50 1.08  22 1.39  14 1.41
  19  0.607  0.391  0.501-  51 1.08  23 1.39  15 1.41
  20  0.107  0.609  0.499-  52 1.08  24 1.39  16 1.41
  21  0.699  0.053  0.137-  45 1.08  65 1.36  17 1.39
  22  0.199  0.947  0.863-  46 1.08  66 1.36  18 1.39
  23  0.699  0.447  0.637-  47 1.08  67 1.36  19 1.39
  24  0.199  0.553  0.363-  48 1.08  68 1.36  20 1.39
  25  0.041  0.233  0.510-  57 1.05
  26  0.541  0.767  0.490-  58 1.05
  27  0.041  0.267  0.010-  59 1.05
  28  0.541  0.733  0.990-  60 1.05
  29  0.320  0.265  0.675-   9 1.08
  30  0.820  0.735  0.325-  10 1.08
  31  0.320  0.235  0.175-  11 1.08
  32  0.820  0.765  0.825-  12 1.08
  33  0.519  0.103  0.544-   5 1.08
  34  0.019  0.897  0.456-   6 1.08
  35  0.519  0.397  0.044-   7 1.08
  36  0.019  0.603  0.956-   8 1.08
  37  0.318  0.985  0.304-   1 1.09
  38  0.818  0.015  0.696-   2 1.09
  39  0.318  0.515  0.804-   3 1.09
  40  0.818  0.485  0.196-   4 1.09
  41  0.950  0.081  0.230-  65 1.04
  42  0.450  0.919  0.770-  66 1.04
  43  0.950  0.419  0.730-  67 1.04
  44  0.450  0.581  0.270-  68 1.04
  45  0.669  0.986  0.231-  21 1.08
  46  0.169  0.014  0.769-  22 1.08
  47  0.669  0.514  0.731-  23 1.08
  48  0.169  0.486  0.269-  24 1.08
  49  0.481  0.096  0.961-  17 1.08
  50  0.981  0.904  0.039-  18 1.08
  51  0.481  0.404  0.461-  19 1.08
  52  0.981  0.596  0.539-  20 1.08
  53  0.689  0.248  0.818-  13 1.08
  54  0.189  0.752  0.182-  14 1.08
  55  0.689  0.252  0.318-  15 1.08
  56  0.189  0.748  0.682-  16 1.08
  57  0.143  0.184  0.499-  25 1.05   9 1.35  61 1.36
  58  0.643  0.816  0.501-  26 1.05  10 1.35  62 1.36
  59  0.143  0.316  0.999-  27 1.05  11 1.35  63 1.36
  60  0.643  0.684  0.001-  28 1.05  12 1.35  64 1.36
  61  0.138  0.097  0.380-   1 1.35  57 1.36
  62  0.638  0.903  0.620-   2 1.35  58 1.36
  63  0.138  0.403  0.880-   3 1.35  59 1.36
  64  0.638  0.597  0.120-   4 1.35  60 1.36
  65  0.850  0.097  0.140-  41 1.04  21 1.36  69 1.36
  66  0.350  0.903  0.860-  42 1.04  22 1.36  70 1.36
  67  0.850  0.403  0.640-  43 1.04  23 1.36  71 1.36
  68  0.350  0.597  0.360-  44 1.04  24 1.36  72 1.36
  69  0.861  0.180  0.012-  13 1.34  65 1.36
  70  0.361  0.820  0.988-  14 1.34  66 1.36
  71  0.861  0.320  0.512-  15 1.34  67 1.36
  72  0.361  0.680  0.488-  16 1.34  68 1.36

  LATTYP: Found a simple orthorhombic cell.
 ALAT       =     6.7730000000
 B/A-ratio  =     1.2092130518
 C/A-ratio  =     1.8585560313
  
  Lattice vectors:
  
 A1 = (   0.0000000000,   0.0000000000,   6.7730000000)
 A2 = (   8.1900000000,   0.0000000000,   0.0000000000)
 A3 = (   0.0000000000,  12.5880000000,   0.0000000000)


Analysis of symmetry for initial positions (statically):
=====================================================================
 Subroutine PRICEL returns:
 Original cell was already a primitive cell.
 

 Routine SETGRP: Setting up the symmetry group for a 
 simple orthorhombic supercell.


 Subroutine GETGRP returns: Found  1 space group operations
 (whereof  1 operations were pure point group operations)
 out of a pool of  8 trial point group operations.


The static configuration has the point symmetry C_1 .


Analysis of symmetry for dynamics (positions and initial velocities):
=====================================================================
 Subroutine PRICEL returns:
 Original cell was already a primitive cell.
 

 Routine SETGRP: Setting up the symmetry group for a 
 simple orthorhombic supercell.


 Subroutine GETGRP returns: Found  1 space group operations
 (whereof  1 operations were pure point group operations)
 out of a pool of  8 trial point group operations.


The dynamic configuration has the point symmetry C_1 .


 Subroutine INISYM returns: Found  1 space group operations
 (whereof  1 operations are pure point group operations),
 and found     1 'primitive' translations


----------------------------------------------------------------------------------------

                                     Primitive cell                                     

  volume of cell :     698.2673

  direct lattice vectors                    reciprocal lattice vectors
     8.190000000  0.000000000  0.000000000     0.122100122  0.000000000  0.000000000
     0.000000000 12.588000000  0.000000000     0.000000000  0.079440737  0.000000000
     0.000000000  0.000000000  6.773000000     0.000000000  0.000000000  0.147645061

  length of vectors
     8.190000000 12.588000000  6.773000000     0.122100122  0.079440737  0.147645061

  position of ions in fractional coordinates (direct lattice)
     0.289667890  0.056140328  0.386794113
     0.789670427  0.943864233  0.613195669
     0.289668062  0.443858423  0.886795883
     0.789672139  0.556138918  0.113200352
     0.391999864  0.116914038  0.509755729
     0.891999440  0.883087180  0.490239179
     0.391999639  0.383084431  0.009758941
     0.892001753  0.616913671  0.990239313
     0.293481737  0.198645841  0.578786597
     0.793479278  0.801356250  0.421207530
     0.293479107  0.301354175  0.078790637
     0.793482306  0.698644718  0.921207443
     0.713299019  0.187255403  0.927010116
     0.213305651  0.812742372  0.072984447
     0.713305993  0.312745215  0.427013977
     0.213303367  0.687257064  0.572986590
     0.606923898  0.109132299  0.001085596
     0.106930290  0.890867246  0.998911194
     0.606927084  0.390867213  0.501087317
     0.106927878  0.609133451  0.498912967
     0.699192737  0.052771517  0.137396265
     0.199197313  0.947227094  0.862598039
     0.699192414  0.447228898  0.637400831
     0.199194925  0.552772453  0.362600447
     0.040767009  0.233327593  0.509961622
     0.540764700  0.766678551  0.490033553
     0.040764734  0.266673711  0.009963077
     0.540767021  0.733324396  0.990035312
     0.319661070  0.265056078  0.675415347
     0.819658205  0.734945592  0.324582836
     0.319658333  0.234944366  0.175419756
     0.819660120  0.765054926  0.824579918
     0.519263507  0.103057410  0.543857519
     0.019265312  0.896941305  0.456139881
     0.519262211  0.396940728  0.043859089
     0.019265254  0.603058093  0.956137470
     0.317603103  0.984643685  0.303616487
     0.817605956  0.015361663  0.696372591
     0.317604713  0.515354254  0.803615951
     0.817608029  0.484642610  0.196378292
     0.950106200  0.081496325  0.229794259
     0.450110776  0.918502445  0.770197663
     0.950108209  0.418508214  0.729799223
     0.450108800  0.581496400  0.270201383
     0.669238880  0.985592066  0.230583332
     0.169244879  0.014407934  0.769414316
     0.669236230  0.514408292  0.730585995
     0.169241226  0.485592583  0.269415350
     0.480727708  0.095510204  0.961358839
     0.980734746  0.904491168  0.038641166
     0.480731213  0.404487186  0.461359042
     0.980732099  0.595510605  0.538642914
     0.689423397  0.248093113  0.817508945
     0.189428117  0.751905888  0.182485819
     0.689433541  0.251906701  0.317513568
     0.189428119  0.748094666  0.682486937
     0.143428374  0.184119608  0.499234905
     0.643427085  0.815885854  0.500756932
     0.143425679  0.315880421  0.999240094
     0.643429592  0.684117053  0.000759906
     0.138347720  0.097499310  0.379755550
     0.638348319  0.902508024  0.620232534
     0.138348036  0.402501014  0.879758408
     0.638351351  0.597496310  0.120239967
     0.849828685  0.097337862  0.139550811
     0.349831836  0.902658049  0.860441007
     0.849829250  0.402662887  0.639555536
     0.349830517  0.597340418  0.360444446
     0.861275712  0.180040879  0.011725788
     0.361279874  0.819956461  0.988267359
     0.861278519  0.319961540  0.511729356
     0.361278773  0.680042553  0.488269731

  ion indices of the primitive-cell ions
   primitive index   ion index
                 1           1
                 2           2
                 3           3
                 4           4
                 5           5
                 6           6
                 7           7
                 8           8
                 9           9
                10          10
                11          11
                12          12
                13          13
                14          14
                15          15
                16          16
                17          17
                18          18
                19          19
                20          20
                21          21
                22          22
                23          23
                24          24
                25          25
                26          26
                27          27
                28          28
                29          29
                30          30
                31          31
                32          32
                33          33
                34          34
                35          35
                36          36
                37          37
                38          38
                39          39
                40          40
                41          41
                42          42
                43          43
                44          44
                45          45
                46          46
                47          47
                48          48
                49          49
                50          50
                51          51
                52          52
                53          53
                54          54
                55          55
                56          56
                57          57
                58          58
                59          59
                60          60
                61          61
                62          62
                63          63
                64          64
                65          65
                66          66
                67          67
                68          68
                69          69
                70          70
                71          71
                72          72

----------------------------------------------------------------------------------------



 KPOINTS: auto                                    

Automatic generation of k-mesh.
 Grid dimensions read from file:
 generate k-points for:    3    2    4

 Generating k-lattice:

  Cartesian coordinates                     Fractional coordinates (reciprocal lattice)
     0.040700041  0.000000000  0.000000000     0.333333333  0.000000000  0.000000000
     0.000000000  0.039720369  0.000000000     0.000000000  0.500000000  0.000000000
     0.000000000  0.000000000  0.036911265     0.000000000  0.000000000  0.250000000

  Length of vectors
     0.040700041  0.039720369  0.036911265

  Shift w.r.t. Gamma in fractional coordinates (k-lattice)
     0.000000000  0.000000000  0.000000000

 
 Subroutine IBZKPT returns following result:
 ===========================================
 
 Found     14 irreducible k-points:
 
 Following reciprocal coordinates:
            Coordinates               Weight
  0.000000  0.000000  0.000000      1.000000
  0.333333  0.000000  0.000000      2.000000
  0.000000  0.500000  0.000000      1.000000
  0.333333  0.500000  0.000000      2.000000
  0.000000  0.000000  0.250000      2.000000
  0.333333  0.000000  0.250000      2.000000
 -0.333333  0.000000  0.250000      2.000000
  0.000000  0.500000  0.250000      2.000000
  0.333333  0.500000  0.250000      2.000000
 -0.333333  0.500000  0.250000      2.000000
  0.000000  0.000000  0.500000      1.000000
  0.333333  0.000000  0.500000      2.000000
  0.000000  0.500000  0.500000      1.000000
  0.333333  0.500000  0.500000      2.000000
 
 Following cartesian coordinates:
            Coordinates               Weight
  0.000000  0.000000  0.000000      1.000000
  0.040700  0.000000  0.000000      2.000000
  0.000000  0.039720  0.000000      1.000000
  0.040700  0.039720  0.000000      2.000000
  0.000000  0.000000  0.036911      2.000000
  0.040700  0.000000  0.036911      2.000000
 -0.040700  0.000000  0.036911      2.000000
  0.000000  0.039720  0.036911      2.000000
  0.040700  0.039720  0.036911      2.000000
 -0.040700  0.039720  0.036911      2.000000
  0.000000  0.000000  0.073823      1.000000
  0.040700  0.000000  0.073823      2.000000
  0.000000  0.039720  0.073823      1.000000
  0.040700  0.039720  0.073823      2.000000
 


--------------------------------------------------------------------------------------------------------




 Dimension of arrays:
   k-points           NKPTS =     14   k-points in BZ     NKDIM =     14   number of bands    NBANDS=    144
   number of dos      NEDOS =    301   number of ions     NIONS =     72
   non local maximal  LDIM  =      4   non local SUM 2l+1 LMDIM =      8
   total plane-waves  NPLWV = 823200
   max r-space proj   IRMAX =      1   max aug-charges    IRDMAX=   8572
   dimension x,y,z NGX =    84 NGY =  140 NGZ =   70
   dimension x,y,z NGXF=   168 NGYF=  280 NGZF=  140
   support grid    NGXF=   168 NGYF=  280 NGZF=  140
   ions per type =              24  32  16
   NGX,Y,Z   is equivalent  to a cutoff of  17.05, 18.49, 17.18 a.u.
   NGXF,Y,Z  is equivalent  to a cutoff of  34.10, 36.98, 34.36 a.u.

 SYSTEM =  unknown system                          
 POSCAR =   C  H  N                                

 Startparameter for this run:
   NWRITE =      2    write-flag & timer
   PREC   = accura    normal or accurate (medium, high low for compatibility)
   ISTART =      0    job   : 0-new  1-cont  2-samecut
   ICHARG =      2    charge: 1-file 2-atom 10-const
   ISPIN  =      1    spin polarized calculation?
   LNONCOLLINEAR =      F non collinear calculations
   LSORBIT =      F    spin-orbit coupling
   INIWAV =      1    electr: 0-lowe 1-rand  2-diag
   LASPH  =      T    aspherical Exc in radial PAW
 Electronic Relaxation 1
   ENCUT  = 1000.0 eV  73.50 Ry    8.57 a.u.  21.12 32.46 17.46*2*pi/ulx,y,z
   ENINI  = 1000.0     initial cutoff
   ENAUG  = 1000.0 eV  augmentation charge cutoff
   NELM   =     60;   NELMIN=  2; NELMDL= -5     # of ELM steps 
   EDIFF  = 0.1E-06   stopping-criterion for ELM
   LREAL  =      F    real-space projection
   NLSPLINE    = F    spline interpolate recip. space projectors
   LCOMPAT=      F    compatible to vasp.4.4
   GGA_COMPAT  = T    GGA compatible to vasp.4.4-vasp.4.6
   LMAXPAW     = -100 max onsite density
   LMAXMIX     =    2 max onsite mixed and CHGCAR
   VOSKOWN=      0    Vosko Wilk Nusair interpolation
   ROPT   =    0.00000   0.00000   0.00000
 Ionic relaxation
   EDIFFG = 0.1E-05   stopping-criterion for IOM
   NSW    =      0    number of steps for IOM
   NBLOCK =      1;   KBLOCK =      1    inner block; outer block 
   IBRION =     -1    ionic relax: 0-MD 1-quasi-New 2-CG
   NFREE  =      0    steps in history (QN), initial steepest desc. (CG)
   ISIF   =      0    stress and relaxation
   IWAVPR =     10    prediction:  0-non 1-charg 2-wave 3-comb
   ISYM   =      2    0-nonsym 1-usesym 2-fastsym
   LCORR  =      T    Harris-Foulkes like correction to forces

   POTIM  = 0.5000    time-step for ionic-motion
   TEIN   =    0.0    initial temperature
   TEBEG  =    0.0;   TEEND  =   0.0 temperature during run
   SMASS  =  -3.00    Nose mass-parameter (am)
   estimated Nose-frequenzy (Omega)   =  0.10E-29 period in steps = 0.13E+47 mass=  -0.153E-26a.u.
   SCALEE = 1.0000    scale energy and forces
   NPACO  =    256;   APACO  = 10.0  distance and # of slots for P.C.
   PSTRESS=    0.0 pullay stress

  Mass of Ions in am
   POMASS =  12.01  1.00 14.00
  Ionic Valenz
   ZVAL   =   4.00  1.00  5.00
  Atomic Wigner-Seitz radii
   RWIGS  =  -1.00 -1.00 -1.00
  virtual crystal weights 
   VCA    =   1.00  1.00  1.00
   NELECT =     208.0000    total number of electrons
   NUPDOWN=      -1.0000    fix difference up-down

 DOS related values:
   EMIN   =  10.00;   EMAX   =-10.00  energy-range for DOS
   EFERMI =   0.00;   METHOD = LEGACY      
   ISMEAR =     0;   SIGMA  =   0.01  broadening in eV -4-tet -1-fermi 0-gaus

 Electronic relaxation 2 (details)
   IALGO  =     58    algorithm
   LDIAG  =      T    sub-space diagonalisation (order eigenvalues)
   LSUBROT=      F    optimize rotation matrix (better conditioning)
   TURBO    =      0    0=normal 1=particle mesh
   IRESTART =      0    0=no restart 2=restart with 2 vectors
   NREBOOT  =      0    no. of reboots
   NMIN     =      0    reboot dimension
   EREF     =   0.00    reference energy to select bands
   IMIX   =      4    mixing-type and parameters
     AMIX     =   0.40;   BMIX     =  1.00
     AMIX_MAG =   1.60;   BMIX_MAG =  1.00
     AMIN     =   0.10
     WC   =   100.;   INIMIX=   1;  MIXPRE=   1;  MAXMIX= -45

 Intra band minimization:
   WEIMIN = 0.0000     energy-eigenvalue tresh-hold
   EBREAK =  0.17E-09  absolut break condition
   DEPER  =   0.30     relativ break condition  

   TIME   =   0.40     timestep for ELM

  volume/ion in A,a.u.               =       9.70        65.45
  Fermi-wavevector in a.u.,A,eV,Ry     =   1.093340  2.066114 16.264310  1.195393
  Thomas-Fermi vector in A             =   2.229624

 Write flags
   LWAVE        =      F    write WAVECAR
   LDOWNSAMPLE  =      F    k-point downsampling of WAVECAR
   LCHARG       =      F    write CHGCAR
   LVTOT        =      F    write LOCPOT, total local potential
   LVHAR        =      F    write LOCPOT, Hartree potential only
   LELF         =      F    write electronic localiz. function (ELF)
   LORBIT       =      0    0 simple, 1 ext, 2 COOP (PROOUT), +10 PAW based schemes


 Dipole corrections
   LMONO  =      F    monopole corrections only (constant potential shift)
   LDIPOL =      F    correct potential (dipole corrections)
   IDIPOL =      0    1-x, 2-y, 3-z, 4-all directions 
   EPSILON=  1.0000000 bulk dielectric constant

 Exchange correlation treatment:
   GGA     =    --    GGA type
   LEXCH   =     8    internal setting for exchange type
   LIBXC   =     F    Libxc                    
   VOSKOWN =     0    Vosko Wilk Nusair interpolation
   LHFCALC =     F    Hartree Fock is set to
   LHFONE  =     F    Hartree Fock one center treatment
   AEXX    =    0.0000 exact exchange contribution

 Linear response parameters
   LEPSILON=     F    determine dielectric tensor
   LRPA    =     F    only Hartree local field effects (RPA)
   LNABLA  =     F    use nabla operator in PAW spheres
   LVEL    =     F    velocity operator in full k-point grid
   CSHIFT  =0.1000    complex shift for real part using Kramers Kronig
   OMEGAMAX=  -1.0    maximum frequency
   DEG_THRESHOLD= 0.2000000E-02 threshold for treating states as degnerate
   RTIME   =   -0.100 relaxation time in fs
  (WPLASMAI=    0.000 imaginary part of plasma frequency in eV, 0.658/RTIME)
   DFIELD  = 0.0000000 0.0000000 0.0000000 field for delta impulse in time

  Optional k-point grid parameters
   LKPOINTS_OPT  =     F    use optional k-point grid
   KPOINTS_OPT_MODE=     1    mode for optional k-point grid

 Orbital magnetization related:
   ORBITALMAG=     F  switch on orbital magnetization
   LCHIMAG   =     F  perturbation theory with respect to B field
   DQ        =  0.001000  dq finite difference perturbation B field
   LLRAUG    =     F  two centre corrections for induced B field
   LBONE     =     F  B-component reconstruction in AE one-centre
   LVGVCALC  =     T  calculate vGv susceptibility
   LVGVAPPL  =     F  apply vGv susceptibility instead of pGv for G=0

 Random number generation:
   RANDOM_GENERATOR = DEFAULT
   PCG_SEED         = not used


--------------------------------------------------------------------------------------------------------


 Static calculation
 charge density and potential will be updated during run
 non-spin polarized calculation
 Conjugate gradient for all bands (Freysoldt, et al. PRB 79, 241103 (2009))
 preconditioned conjugated gradient                                        
 perform sub-space diagonalisation
    before iterative eigenvector-optimisation
 modified Broyden-mixing scheme, WC =      100.0
 initial mixing is a Kerker type mixing with AMIX =  0.4000 and BMIX =      1.0000
 Hartree-type preconditioning will be used
 using additional bands           40
 reciprocal scheme for non local part
 use partial core corrections
 no Harris-corrections to forces 
 use gradient corrections 
 use of overlap-Matrix (Vanderbilt PP)
 Gauss-broadening in eV      SIGMA  =   0.01


--------------------------------------------------------------------------------------------------------


  energy-cutoff  :     1000.00
  volume of cell :      698.27
      direct lattice vectors                 reciprocal lattice vectors
     8.190000000  0.000000000  0.000000000     0.122100122  0.000000000  0.000000000
     0.000000000 12.588000000  0.000000000     0.000000000  0.079440737  0.000000000
     0.000000000  0.000000000  6.773000000     0.000000000  0.000000000  0.147645061

  length of vectors
     8.190000000 12.588000000  6.773000000     0.122100122  0.079440737  0.147645061



 k-points in units of 2pi/SCALE and weight: auto                                    
   0.00000000  0.00000000  0.00000000       0.042
   0.04070004  0.00000000  0.00000000       0.083
   0.00000000  0.03972037  0.00000000       0.042
   0.04070004  0.03972037  0.00000000       0.083
   0.00000000  0.00000000  0.03691127       0.083
   0.04070004  0.00000000  0.03691127       0.083
  -0.04070004  0.00000000  0.03691127       0.083
   0.00000000  0.03972037  0.03691127       0.083
   0.04070004  0.03972037  0.03691127       0.083
  -0.04070004  0.03972037  0.03691127       0.083
   0.00000000  0.00000000  0.07382253       0.042
   0.04070004  0.00000000  0.07382253       0.083
   0.00000000  0.03972037  0.07382253       0.042
   0.04070004  0.03972037  0.07382253       0.083

 k-points in reciprocal lattice and weights: auto                                    
   0.00000000  0.00000000  0.00000000       0.042
   0.33333333  0.00000000  0.00000000       0.083
   0.00000000  0.50000000  0.00000000       0.042
   0.33333333  0.50000000  0.00000000       0.083
   0.00000000  0.00000000  0.25000000       0.083
   0.33333333  0.00000000  0.25000000       0.083
  -0.33333333  0.00000000  0.25000000       0.083
   0.00000000  0.50000000  0.25000000       0.083
   0.33333333  0.50000000  0.25000000       0.083
  -0.33333333  0.50000000  0.25000000       0.083
   0.00000000  0.00000000  0.50000000       0.042
   0.33333333  0.00000000  0.50000000       0.083
   0.00000000  0.50000000  0.50000000       0.042
   0.33333333  0.50000000  0.50000000       0.083

 position of ions in fractional coordinates (direct lattice) 
   0.28966789  0.05614033  0.38679411
   0.78967043  0.94386423  0.61319567
   0.28966806  0.44385842  0.88679588
   0.78967214  0.55613892  0.11320035
   0.39199986  0.11691404  0.50975573
   0.89199944  0.88308718  0.49023918
   0.39199964  0.38308443  0.00975894
   0.89200175  0.61691367  0.99023931
   0.29348174  0.19864584  0.57878660
   0.79347928  0.80135625  0.42120753
   0.29347911  0.30135417  0.07879064
   0.79348231  0.69864472  0.92120744
   0.71329902  0.18725540  0.92701012
   0.21330565  0.81274237  0.07298445
   0.71330599  0.31274521  0.42701398
   0.21330337  0.68725706  0.57298659
   0.60692390  0.10913230  0.00108560
   0.10693029  0.89086725  0.99891119
   0.60692708  0.39086721  0.50108732
   0.10692788  0.60913345  0.49891297
   0.69919274  0.05277152  0.13739626
   0.19919731  0.94722709  0.86259804
   0.69919241  0.44722890  0.63740083
   0.19919492  0.55277245  0.36260045
   0.04076701  0.23332759  0.50996162
   0.54076470  0.76667855  0.49003355
   0.04076473  0.26667371  0.00996308
   0.54076702  0.73332440  0.99003531
   0.31966107  0.26505608  0.67541535
   0.81965821  0.73494559  0.32458284
   0.31965833  0.23494437  0.17541976
   0.81966012  0.76505493  0.82457992
   0.51926351  0.10305741  0.54385752
   0.01926531  0.89694130  0.45613988
   0.51926221  0.39694073  0.04385909
   0.01926525  0.60305809  0.95613747
   0.31760310  0.98464369  0.30361649
   0.81760596  0.01536166  0.69637259
   0.31760471  0.51535425  0.80361595
   0.81760803  0.48464261  0.19637829
   0.95010620  0.08149633  0.22979426
   0.45011078  0.91850245  0.77019766
   0.95010821  0.41850821  0.72979922
   0.45010880  0.58149640  0.27020138
   0.66923888  0.98559207  0.23058333
   0.16924488  0.01440793  0.76941432
   0.66923623  0.51440829  0.73058600
   0.16924123  0.48559258  0.26941535
   0.48072771  0.09551020  0.96135884
   0.98073475  0.90449117  0.03864117
   0.48073121  0.40448719  0.46135904
   0.98073210  0.59551060  0.53864291
   0.68942340  0.24809311  0.81750895
   0.18942812  0.75190589  0.18248582
   0.68943354  0.25190670  0.31751357
   0.18942812  0.74809467  0.68248694
   0.14342837  0.18411961  0.49923490
   0.64342708  0.81588585  0.50075693
   0.14342568  0.31588042  0.99924009
   0.64342959  0.68411705  0.00075991
   0.13834772  0.09749931  0.37975555
   0.63834832  0.90250802  0.62023253
   0.13834804  0.40250101  0.87975841
   0.63835135  0.59749631  0.12023997
   0.84982868  0.09733786  0.13955081
   0.34983184  0.90265805  0.86044101
   0.84982925  0.40266289  0.63955554
   0.34983052  0.59734042  0.36044445
   0.86127571  0.18004088  0.01172579
   0.36127987  0.81995646  0.98826736
   0.86127852  0.31996154  0.51172936
   0.36127877  0.68004255  0.48826973

 position of ions in cartesian coordinates  (Angst):
   2.37238002  0.70669445  2.61975653
   6.46740079 11.88136297  4.15317427
   2.37238143  5.58728983  6.00626851
   6.46741482  7.00067670  0.76670599
   3.21047888  1.47171391  3.45257555
   7.30547541 11.11630143  3.32038996
   3.21047705  4.82226682  0.06609731
   7.30549435  7.76570929  6.70689087
   2.40361542  2.50055385  3.92012162
   6.49859529 10.08747247  2.85283860
   2.40359389  3.79344635  0.53364899
   6.49862009  8.79453972  6.23933801
   5.84191897  2.35717102  6.27863951
   1.74697328 10.23080098  0.49432366
   5.84197608  3.93683676  2.89216567
   1.74695457  8.65119192  3.88083817
   4.97070673  1.37375737  0.00735274
   0.87575907 11.21423689  6.76562552
   4.97073282  4.92023648  3.39386440
   0.87573932  7.66777188  3.37913752
   5.72638851  0.66428786  0.93058490
   1.63142600 11.92369465  5.84237652
   5.72638587  5.62971737  4.31711583
   1.63140643  6.95829964  2.45589283
   0.33388181  2.93712774  3.45397007
   4.42886289  9.65094960  3.31899726
   0.33386317  3.35688868  0.06747992
   4.42888190  9.23108750  6.70550917
   2.61802416  3.33652591  4.57458815
   6.71300070  9.25149511  2.19839955
   2.61800175  2.95747968  1.18811801
   6.71301638  9.63051141  5.58487978
   4.25276812  1.29728668  3.68354698
   0.15778290 11.29069714  3.08943542
   4.25275750  4.99668989  0.29705761
   0.15778243  7.59129527  6.47591908
   2.60116941 12.39469471  2.05639446
   6.69619278  0.19337261  4.71653156
   2.60118260  6.48727935  5.44289084
   6.69620976  6.10068117  1.33007017
   7.78136977  1.02587574  1.55639652
   3.68640726 11.56210878  5.21654877
   7.78138623  5.26818139  4.94293013
   3.68639108  7.31987668  1.83007397
   5.48106643 12.40663292  1.56174091
   1.38611556  0.18136708  5.21124316
   5.48104473  6.47537158  4.94825894
   1.38608564  6.11263943  1.82475017
   3.93715993  1.20228245  6.51128341
   8.03221757 11.38573482  0.26171662
   3.93718864  5.09168470  3.12478479
   8.03219589  7.49628749  3.64822845
   5.64637762  3.12299610  5.53698809
   1.55141628  9.46499132  1.23597645
   5.64646070  3.17100155  2.15051939
   1.55141630  9.41701566  4.62248403
   1.17467838  2.31769763  3.38131801
   5.26966782 10.27037113  3.39162670
   1.17465631  3.97630274  6.76785316
   5.26968836  8.61166546  0.00514684
   1.13306782  1.22732131  2.57208434
   5.22807273 11.36077100  4.20083495
   1.13307041  5.06668277  5.95860370
   5.22809757  7.52128355  0.81438530
   6.96009693  1.22528901  0.94517764
   2.86512273 11.36265952  5.82776694
   6.96010156  5.06872042  4.33170964
   2.86511193  7.51932118  2.44129023
   7.05384808  2.26635459  0.07941876
   2.95888217 10.32161193  6.69353482
   7.05387107  4.02767586  3.46594293
   2.95887315  8.56037566  3.30705089



--------------------------------------------------------------------------------------------------------


 k-point   1 :   0.0000 0.0000 0.0000  plane waves:   50233
 k-point   2 :   0.3333 0.0000 0.0000  plane waves:   50178
 k-point   3 :   0.0000 0.5000 0.0000  plane waves:   50160
 k-point   4 :   0.3333 0.5000 0.0000  plane waves:   50150
 k-point   5 :   0.0000 0.0000 0.2500  plane waves:   50175
 k-point   6 :   0.3333 0.0000 0.2500  plane waves:   50130
 k-point   7 :  -0.3333 0.0000 0.2500  plane waves:   50130
 k-point   8 :   0.0000 0.5000 0.2500  plane waves:   50164
 k-point   9 :   0.3333 0.5000 0.2500  plane waves:   50138
 k-point  10 :  -0.3333 0.5000 0.2500  plane waves:   50138
 k-point  11 :   0.0000 0.0000 0.5000  plane waves:   50074
 k-point  12 :   0.3333 0.0000 0.5000  plane waves:   50168
 k-point  13 :   0.0000 0.5000 0.5000  plane waves:   50088
 k-point  14 :   0.3333 0.5000 0.5000  plane waves:   50140

 maximum and minimum number of plane-waves per node :      1596     1539

 maximum number of plane-waves:     50233
 maximum index in each direction: 
   IXMAX=   21   IYMAX=   32   IZMAX=   17
   IXMIN=  -21   IYMIN=  -32   IZMIN=  -17


 parallel 3D FFT for wavefunctions:
    minimum data exchange during FFTs selected (reduces bandwidth)
 parallel 3D FFT for charge:
    minimum data exchange during FFTs selected (reduces bandwidth)


 total amount of memory used by VASP MPI-rank0    85928. kBytes
=======================================================================

   base      :      30000. kBytes
   nonl-proj :       6051. kBytes
   fftplans  :       3332. kBytes
   grid      :       7830. kBytes
   one-center:          9. kBytes
   wavefun   :      38706. kBytes

     INWAV:  cpu time      0.0013: real time      0.0015
 Broyden mixing: mesh for mixing (old mesh)
   NGX = 43   NGY = 65   NGZ = 35
  (NGX  =168   NGY  =280   NGZ  =140)
  gives a total of  97825 points

 initial charge density was supplied:
 charge density of overlapping atoms calculated
 number of electron     208.0000000 magnetization 
 keeping initial charge density in first step


--------------------------------------------------------------------------------------------------------


 Maximum index for augmentation-charges          407 (set IRDMAX)


--------------------------------------------------------------------------------------------------------


 First call to EWALD:  gamma=   0.200
 Maximum number of real-space cells 3x 2x 3
 Maximum number of reciprocal cells 3x 4x 2

    FEWALD:  cpu time      0.0040: real time      0.0040


--------------------------------------- Ionic step        1  -------------------------------------------




--------------------------------------- Iteration      1(   1)  ---------------------------------------


    POTLOK:  cpu time      0.1829: real time      0.1838
    SETDIJ:  cpu time      0.2733: real time      0.2741
    TRIAL :  cpu time      8.8791: real time      8.8900
    CORREC:  cpu time      0.0011: real time      0.0011
    --------------------------------------------
      LOOP:  cpu time      9.3612: real time      9.3740

 eigenvalue-minimisations  :  4032
 total energy-change (2. order) : 0.1614934E+04  (-0.1541030E+05)
 number of electron     208.0000000 magnetization 
 augmentation part      208.0000000 magnetization 

 Free energy of the ion-electron system (eV)
  ---------------------------------------------------
  alpha Z        PSCENC =       191.88443493
  Ewald energy   TEWEN  =     -3572.32588850
  -Hartree energ DENC   =     -3777.21485326
  -exchange      EXHF   =         0.00000000
  -V(xc)+E(xc)   XCENC  =       684.18057954
  PAW double counting   =      5928.76054911    -5875.26247917
  entropy T*S    EENTRO =        -0.00012165
  eigenvalues    EBANDS =      -129.01507345
  atomic energy  EATOM  =      8163.92692374
  ---------------------------------------------------
  free energy    TOTEN  =      1614.93407129 eV

  energy without entropy =     1614.93419293  energy(sigma->0) =     1614.93413211


--------------------------------------------------------------------------------------------------------




--------------------------------------- Iteration      1(   2)  ---------------------------------------


    TRIAL :  cpu time     10.5646: real time     10.5713
    CORREC:  cpu time      0.0005: real time      0.0005
    --------------------------------------------
      LOOP:  cpu time     10.5858: real time     10.6041

 eigenvalue-minimisations  :  5304
 total energy-change (2. order) :-0.1903052E+04  (-0.1815642E+04)
 number of electron     208.0000000 magnetization 
 augmentation part      208.0000000 magnetization 

 Free energy of the ion-electron system (eV)
  ---------------------------------------------------
  alpha Z        PSCENC =       191.88443493
  Ewald energy   TEWEN  =     -3572.32588850
  -Hartree energ DENC   =     -3777.21485326
  -exchange      EXHF   =         0.00000000
  -V(xc)+E(xc)   XCENC  =       684.18057954
  PAW double counting   =      5928.76054911    -5875.26247917
  entropy T*S    EENTRO =        -0.00000000
  eigenvalues    EBANDS =     -2032.06701844
  atomic energy  EATOM  =      8163.92692374
  ---------------------------------------------------
  free energy    TOTEN  =      -288.11775206 eV

  energy without entropy =     -288.11775206  energy(sigma->0) =     -288.11775206


--------------------------------------------------------------------------------------------------------




--------------------------------------- Iteration      1(   3)  ---------------------------------------


    TRIAL :  cpu time     10.0837: real time     10.0906
    CORREC:  cpu time      0.0005: real time      0.0005
    --------------------------------------------
      LOOP:  cpu time     10.0984: real time     10.1211

 eigenvalue-minimisations  :  5008
 total energy-change (2. order) :-0.2836629E+03  (-0.2804012E+03)
 number of electron     208.0000000 magnetization 
 augmentation part      208.0000000 magnetization 

 Free energy of the ion-electron system (eV)
  ---------------------------------------------------
  alpha Z        PSCENC =       191.88443493
  Ewald energy   TEWEN  =     -3572.32588850
  -Hartree energ DENC   =     -3777.21485326
  -exchange      EXHF   =         0.00000000
  -V(xc)+E(xc)   XCENC  =       684.18057954
  PAW double counting   =      5928.76054911    -5875.26247917
  entropy T*S    EENTRO =        -0.00000000
  eigenvalues    EBANDS =     -2315.72987481
  atomic energy  EATOM  =      8163.92692374
  ---------------------------------------------------
  free energy    TOTEN  =      -571.78060843 eV

  energy without entropy =     -571.78060843  energy(sigma->0) =     -571.78060843


--------------------------------------------------------------------------------------------------------




--------------------------------------- Iteration      1(   4)  ---------------------------------------


    TRIAL :  cpu time      9.9715: real time      9.9787
    CORREC:  cpu time      0.0004: real time      0.0004
    --------------------------------------------
      LOOP:  cpu time     10.0022: real time     10.0096

 eigenvalue-minimisations  :  4928
 total energy-change (2. order) :-0.1125323E+02  (-0.1118451E+02)
 number of electron     208.0000000 magnetization 
 augmentation part      208.0000000 magnetization 

 Free energy of the ion-electron system (eV)
  ---------------------------------------------------
  alpha Z        PSCENC =       191.88443493
  Ewald energy   TEWEN  =     -3572.32588850
  -Hartree energ DENC   =     -3777.21485326
  -exchange      EXHF   =         0.00000000
  -V(xc)+E(xc)   XCENC  =       684.18057954
  PAW double counting   =      5928.76054911    -5875.26247917
  entropy T*S    EENTRO =        -0.00000000
  eigenvalues    EBANDS =     -2326.98310873
  atomic energy  EATOM  =      8163.92692374
  ---------------------------------------------------
  free energy    TOTEN  =      -583.03384235 eV

  energy without entropy =     -583.03384235  energy(sigma->0) =     -583.03384235


--------------------------------------------------------------------------------------------------------




--------------------------------------- Iteration      1(   5)  ---------------------------------------


    TRIAL :  cpu time     10.7371: real time     10.7454
    CORREC:  cpu time      0.0003: real time      0.0003
    CHARGE:  cpu time      0.5050: real time      0.5065
    --------------------------------------------
      LOOP:  cpu time     11.2548: real time     11.2820

 eigenvalue-minimisations  :  5520
 total energy-change (2. order) :-0.4273891E+00  (-0.4269962E+00)
 number of electron     208.0000002 magnetization 
 augmentation part       -0.6072568 magnetization 

 Free energy of the ion-electron system (eV)
  ---------------------------------------------------
  alpha Z        PSCENC =       191.88443493
  Ewald energy   TEWEN  =     -3572.32588850
  -Hartree energ DENC   =     -3777.21485326
  -exchange      EXHF   =         0.00000000
  -V(xc)+E(xc)   XCENC  =       684.18057954
  PAW double counting   =      5928.76054911    -5875.26247917
  entropy T*S    EENTRO =        -0.00000000
  eigenvalues    EBANDS =     -2327.41049787
  atomic energy  EATOM  =      8163.92692374
  ---------------------------------------------------
  free energy    TOTEN  =      -583.46123150 eV

  energy without entropy =     -583.46123150  energy(sigma->0) =     -583.46123150


--------------------------------------------------------------------------------------------------------




--------------------------------------- Iteration      1(   6)  ---------------------------------------


    POTLOK:  cpu time      0.1809: real time      0.1817
    SETDIJ:  cpu time      0.2572: real time      0.2577
    TRIAL :  cpu time      7.2910: real time      7.2964
    CORREC:  cpu time      2.6790: real time      2.6818
    CHARGE:  cpu time      0.4685: real time      0.4691
    --------------------------------------------
      LOOP:  cpu time     10.8886: real time     10.9150

 eigenvalue-minimisations  :     0
 total energy-change (2. order) : 0.1105298E+03  (-0.1996925E+02)
 number of electron     208.0000002 magnetization 
 augmentation part       -0.6376695 magnetization 

 Free energy of the ion-electron system (eV)
  ---------------------------------------------------
  alpha Z        PSCENC =       191.88443493
  Ewald energy   TEWEN  =     -3572.32588850
  -Hartree energ DENC   =     -4725.18944839
  -exchange      EXHF   =         0.00000000
  -V(xc)+E(xc)   XCENC  =       766.68381667
  PAW double counting   =     81587.26507214   -81537.94780459
  entropy T*S    EENTRO =        -0.00000000
  eigenvalues    EBANDS =     -1347.22853658
  atomic energy  EATOM  =      8163.92692374
  ---------------------------------------------------
  free energy    TOTEN  =      -472.93143058 eV

  energy without entropy =     -472.93143058  energy(sigma->0) =     -472.93143058


--------------------------------------------------------------------------------------------------------




--------------------------------------- Iteration      1(   7)  ---------------------------------------


    POTLOK:  cpu time      0.1693: real time      0.1693
    SETDIJ:  cpu time      0.2661: real time      0.2661
    TRIAL :  cpu time      7.2484: real time      7.2534
    CORREC:  cpu time      2.6762: real time      2.6780
    CHARGE:  cpu time      0.4926: real time      0.4926
    --------------------------------------------
      LOOP:  cpu time     10.8649: real time     10.8885

 eigenvalue-minimisations  :     0
 total energy-change (2. order) :-0.1997364E+02  (-0.2105239E+01)
 number of electron     208.0000002 magnetization 
 augmentation part       -0.6707414 magnetization 

 Free energy of the ion-electron system (eV)
  ---------------------------------------------------
  alpha Z        PSCENC =       191.88443493
  Ewald energy   TEWEN  =     -3572.32588850
  -Hartree energ DENC   =     -4342.52716488
  -exchange      EXHF   =         0.00000000
  -V(xc)+E(xc)   XCENC  =       741.14682409
  PAW double counting   =    103660.58032125  -103608.15675153
  entropy T*S    EENTRO =        -0.00000000
  eigenvalues    EBANDS =     -1727.43377413
  atomic energy  EATOM  =      8163.92692374
  ---------------------------------------------------
  free energy    TOTEN  =      -492.90507503 eV

  energy without entropy =     -492.90507503  energy(sigma->0) =     -492.90507503


--------------------------------------------------------------------------------------------------------




--------------------------------------- Iteration      1(   8)  ---------------------------------------


    POTLOK:  cpu time      0.1681: real time      0.1686
    SETDIJ:  cpu time      0.2655: real time      0.2655
    TRIAL :  cpu time      7.2322: real time      7.2368
    CORREC:  cpu time      2.6650: real time      2.6668
    CHARGE:  cpu time      0.4696: real time      0.4696
    --------------------------------------------
      LOOP:  cpu time     10.8143: real time     10.8362

 eigenvalue-minimisations  :     0
 total energy-change (2. order) :-0.2107678E+01  (-0.6775422E+00)
 number of electron     208.0000002 magnetization 
 augmentation part       -0.6604144 magnetization 

 Free energy of the ion-electron system (eV)
  ---------------------------------------------------
  alpha Z        PSCENC =       191.88443493
  Ewald energy   TEWEN  =     -3572.32588850
  -Hartree energ DENC   =     -4340.09115566
  -exchange      EXHF   =         0.00000000
  -V(xc)+E(xc)   XCENC  =       741.14939158
  PAW double counting   =    115138.72618075  -115086.07483113
  entropy T*S    EENTRO =        -0.00000000
  eigenvalues    EBANDS =     -1732.20780884
  atomic energy  EATOM  =      8163.92692374
  ---------------------------------------------------
  free energy    TOTEN  =      -495.01275314 eV

  energy without entropy =     -495.01275314  energy(sigma->0) =     -495.01275314


--------------------------------------------------------------------------------------------------------




--------------------------------------- Iteration      1(   9)  ---------------------------------------


    POTLOK:  cpu time      0.1688: real time      0.1688
    SETDIJ:  cpu time      0.2645: real time      0.2649
    TRIAL :  cpu time      7.3049: real time      7.3097
    CORREC:  cpu time      2.6836: real time      2.6852
    CHARGE:  cpu time      0.4703: real time      0.4704
    --------------------------------------------
      LOOP:  cpu time     10.9056: real time     10.9283

 eigenvalue-minimisations  :     0
 total energy-change (2. order) :-0.6756375E+00  (-0.2343541E+00)
 number of electron     208.0000002 magnetization 
 augmentation part       -0.6545630 magnetization 

 Free energy of the ion-electron system (eV)
  ---------------------------------------------------
  alpha Z        PSCENC =       191.88443493
  Ewald energy   TEWEN  =     -3572.32588850
  -Hartree energ DENC   =     -4323.55373423
  -exchange      EXHF   =         0.00000000
  -V(xc)+E(xc)   XCENC  =       740.26738962
  PAW double counting   =    121327.77058060  -121274.86007141
  entropy T*S    EENTRO =        -0.00000000
  eigenvalues    EBANDS =     -1748.79802536
  atomic energy  EATOM  =      8163.92692374
  ---------------------------------------------------
  free energy    TOTEN  =      -495.68839062 eV

  energy without entropy =     -495.68839062  energy(sigma->0) =     -495.68839062


--------------------------------------------------------------------------------------------------------




--------------------------------------- Iteration      1(  10)  ---------------------------------------


    POTLOK:  cpu time      0.1680: real time      0.1680
    SETDIJ:  cpu time      0.2652: real time      0.2656
    TRIAL :  cpu time      7.2301: real time      7.2342
    CORREC:  cpu time      2.7098: real time      2.7114
    CHARGE:  cpu time      0.4685: real time      0.4685
    --------------------------------------------
      LOOP:  cpu time     10.8705: real time     10.8768

 eigenvalue-minimisations  :     0
 total energy-change (2. order) :-0.2338454E+00  (-0.6795781E-01)
 number of electron     208.0000002 magnetization 
 augmentation part       -0.6527816 magnetization 

 Free energy of the ion-electron system (eV)
  ---------------------------------------------------
  alpha Z        PSCENC =       191.88443493
  Ewald energy   TEWEN  =     -3572.32588850
  -Hartree energ DENC   =     -4316.12405419
  -exchange      EXHF   =         0.00000000
  -V(xc)+E(xc)   XCENC  =       739.87001587
  PAW double counting   =    121270.51884455  -121217.62194247
  entropy T*S    EENTRO =        -0.00000000
  eigenvalues    EBANDS =     -1756.05056994
  atomic energy  EATOM  =      8163.92692374
  ---------------------------------------------------
  free energy    TOTEN  =      -495.92223603 eV

  energy without entropy =     -495.92223603  energy(sigma->0) =     -495.92223603


--------------------------------------------------------------------------------------------------------




--------------------------------------- Iteration      1(  11)  ---------------------------------------


    POTLOK:  cpu time      0.1682: real time      0.1682
    SETDIJ:  cpu time      0.2647: real time      0.2651
    TRIAL :  cpu time      7.2332: real time      7.2375
    CORREC:  cpu time      2.6679: real time      2.6692
    CHARGE:  cpu time      0.4665: real time      0.4670
    --------------------------------------------
      LOOP:  cpu time     10.8139: real time     10.8370

 eigenvalue-minimisations  :     0
 total energy-change (2. order) :-0.6786246E-01  (-0.1634815E-01)
 number of electron     208.0000002 magnetization 
 augmentation part       -0.6527525 magnetization 

 Free energy of the ion-electron system (eV)
  ---------------------------------------------------
  alpha Z        PSCENC =       191.88443493
  Ewald energy   TEWEN  =     -3572.32588850
  -Hartree energ DENC   =     -4315.60103208
  -exchange      EXHF   =         0.00000000
  -V(xc)+E(xc)   XCENC  =       739.83772130
  PAW double counting   =    119526.88792836  -119474.06335969
  entropy T*S    EENTRO =        -0.00000000
  eigenvalues    EBANDS =     -1756.53682654
  atomic energy  EATOM  =      8163.92692374
  ---------------------------------------------------
  free energy    TOTEN  =      -495.99009849 eV

  energy without entropy =     -495.99009849  energy(sigma->0) =     -495.99009849


--------------------------------------------------------------------------------------------------------




--------------------------------------- Iteration      1(  12)  ---------------------------------------


    POTLOK:  cpu time      0.1670: real time      0.1670
    SETDIJ:  cpu time      0.2666: real time      0.2666
    TRIAL :  cpu time      7.2475: real time      7.2530
    CORREC:  cpu time      2.6679: real time      2.6689
    CHARGE:  cpu time      0.4710: real time      0.4715
    --------------------------------------------
      LOOP:  cpu time     10.8321: real time     10.8559

 eigenvalue-minimisations  :     0
 total energy-change (2. order) :-0.1632101E-01  (-0.3729068E-02)
 number of electron     208.0000002 magnetization 
 augmentation part       -0.6533286 magnetization 

 Free energy of the ion-electron system (eV)
  ---------------------------------------------------
  alpha Z        PSCENC =       191.88443493
  Ewald energy   TEWEN  =     -3572.32588850
  -Hartree energ DENC   =     -4313.55225543
  -exchange      EXHF   =         0.00000000
  -V(xc)+E(xc)   XCENC  =       739.67801530
  PAW double counting   =    118652.98362911  -118600.16362369
  entropy T*S    EENTRO =        -0.00000000
  eigenvalues    EBANDS =     -1758.43765495
  atomic energy  EATOM  =      8163.92692374
  ---------------------------------------------------
  free energy    TOTEN  =      -496.00641950 eV

  energy without entropy =     -496.00641950  energy(sigma->0) =     -496.00641950


--------------------------------------------------------------------------------------------------------




--------------------------------------- Iteration      1(  13)  ---------------------------------------


    POTLOK:  cpu time      0.1681: real time      0.1682
    SETDIJ:  cpu time      0.2650: real time      0.2650
    TRIAL :  cpu time      7.2696: real time      7.2752
    CORREC:  cpu time      2.7316: real time      2.7329
    CHARGE:  cpu time      0.5072: real time      0.5078
    --------------------------------------------
      LOOP:  cpu time     10.9586: real time     10.9783

 eigenvalue-minimisations  :     0
 total energy-change (2. order) :-0.3721786E-02  (-0.8827979E-03)
 number of electron     208.0000002 magnetization 
 augmentation part       -0.6538618 magnetization 

 Free energy of the ion-electron system (eV)
  ---------------------------------------------------
  alpha Z        PSCENC =       191.88443493
  Ewald energy   TEWEN  =     -3572.32588850
  -Hartree energ DENC   =     -4313.50396199
  -exchange      EXHF   =         0.00000000
  -V(xc)+E(xc)   XCENC  =       739.64505344
  PAW double counting   =    118346.34231356  -118293.52797527
  entropy T*S    EENTRO =        -0.00000000
  eigenvalues    EBANDS =     -1758.45104119
  atomic energy  EATOM  =      8163.92692374
  ---------------------------------------------------
  free energy    TOTEN  =      -496.01014128 eV

  energy without entropy =     -496.01014128  energy(sigma->0) =     -496.01014128


--------------------------------------------------------------------------------------------------------




--------------------------------------- Iteration      1(  14)  ---------------------------------------


    POTLOK:  cpu time      0.1672: real time      0.1672
    SETDIJ:  cpu time      0.2663: real time      0.2663
    TRIAL :  cpu time      7.2352: real time      7.2399
    CORREC:  cpu time      2.6610: real time      2.6627
    CHARGE:  cpu time      0.4693: real time      0.4698
    --------------------------------------------
      LOOP:  cpu time     10.8104: real time     10.8357

 eigenvalue-minimisations  :     0
 total energy-change (2. order) :-0.8792221E-03  (-0.2369368E-03)
 number of electron     208.0000002 magnetization 
 augmentation part       -0.6539478 magnetization 

 Free energy of the ion-electron system (eV)
  ---------------------------------------------------
  alpha Z        PSCENC =       191.88443493
  Ewald energy   TEWEN  =     -3572.32588850
  -Hartree energ DENC   =     -4313.52797550
  -exchange      EXHF   =         0.00000000
  -V(xc)+E(xc)   XCENC  =       739.63796677
  PAW double counting   =    118273.52643667  -118220.70960079
  entropy T*S    EENTRO =        -0.00000000
  eigenvalues    EBANDS =     -1758.42331781
  atomic energy  EATOM  =      8163.92692374
  ---------------------------------------------------
  free energy    TOTEN  =      -496.01102051 eV

  energy without entropy =     -496.01102051  energy(sigma->0) =     -496.01102051


--------------------------------------------------------------------------------------------------------




--------------------------------------- Iteration      1(  15)  ---------------------------------------


    POTLOK:  cpu time      0.1682: real time      0.1682
    SETDIJ:  cpu time      0.2649: real time      0.2649
    TRIAL :  cpu time      7.2660: real time      7.2710
    CORREC:  cpu time      2.6590: real time      2.6608
    CHARGE:  cpu time      0.4716: real time      0.4716
    --------------------------------------------
      LOOP:  cpu time     10.8459: real time     10.8657

 eigenvalue-minimisations  :     0
 total energy-change (2. order) :-0.2364702E-03  (-0.6731003E-04)
 number of electron     208.0000002 magnetization 
 augmentation part       -0.6538016 magnetization 

 Free energy of the ion-electron system (eV)
  ---------------------------------------------------
  alpha Z        PSCENC =       191.88443493
  Ewald energy   TEWEN  =     -3572.32588850
  -Hartree energ DENC   =     -4313.65333975
  -exchange      EXHF   =         0.00000000
  -V(xc)+E(xc)   XCENC  =       739.64350950
  PAW double counting   =    118240.77219887  -118187.95494796
  entropy T*S    EENTRO =        -0.00000000
  eigenvalues    EBANDS =     -1758.30414781
  atomic energy  EATOM  =      8163.92692374
  ---------------------------------------------------
  free energy    TOTEN  =      -496.01125698 eV

  energy without entropy =     -496.01125698  energy(sigma->0) =     -496.01125698


--------------------------------------------------------------------------------------------------------




--------------------------------------- Iteration      1(  16)  ---------------------------------------


    POTLOK:  cpu time      0.1675: real time      0.1680
    SETDIJ:  cpu time      0.2653: real time      0.2653
    TRIAL :  cpu time      7.2687: real time      7.2735
    CORREC:  cpu time      2.6911: real time      2.6927
    CHARGE:  cpu time      0.4737: real time      0.4737
    --------------------------------------------
      LOOP:  cpu time     10.8795: real time     10.9033

 eigenvalue-minimisations  :     0
 total energy-change (2. order) :-0.6883263E-04  (-0.2060221E-04)
 number of electron     208.0000002 magnetization 
 augmentation part       -0.6537183 magnetization 

 Free energy of the ion-electron system (eV)
  ---------------------------------------------------
  alpha Z        PSCENC =       191.88443493
  Ewald energy   TEWEN  =     -3572.32588850
  -Hartree energ DENC   =     -4313.68462252
  -exchange      EXHF   =         0.00000000
  -V(xc)+E(xc)   XCENC  =       739.64435023
  PAW double counting   =    118227.31323273  -118174.49647502
  entropy T*S    EENTRO =        -0.00000000
  eigenvalues    EBANDS =     -1758.27328139
  atomic energy  EATOM  =      8163.92692374
  ---------------------------------------------------
  free energy    TOTEN  =      -496.01132581 eV

  energy without entropy =     -496.01132581  energy(sigma->0) =     -496.01132581


--------------------------------------------------------------------------------------------------------




--------------------------------------- Iteration      1(  17)  ---------------------------------------


    POTLOK:  cpu time      0.1676: real time      0.1681
    SETDIJ:  cpu time      0.2646: real time      0.2647
    TRIAL :  cpu time      7.2385: real time      7.2433
    CORREC:  cpu time      2.6670: real time      2.6687
    CHARGE:  cpu time      0.4722: real time      0.4722
    --------------------------------------------
      LOOP:  cpu time     10.8226: real time     10.8462

 eigenvalue-minimisations  :     0
 total energy-change (2. order) :-0.2113555E-04  (-0.6496829E-05)
 number of electron     208.0000002 magnetization 
 augmentation part       -0.6536734 magnetization 

 Free energy of the ion-electron system (eV)
  ---------------------------------------------------
  alpha Z        PSCENC =       191.88443493
  Ewald energy   TEWEN  =     -3572.32588850
  -Hartree energ DENC   =     -4313.69590690
  -exchange      EXHF   =         0.00000000
  -V(xc)+E(xc)   XCENC  =       739.64567610
  PAW double counting   =    118231.64665886  -118178.82968773
  entropy T*S    EENTRO =        -0.00000000
  eigenvalues    EBANDS =     -1758.26355743
  atomic energy  EATOM  =      8163.92692374
  ---------------------------------------------------
  free energy    TOTEN  =      -496.01134694 eV

  energy without entropy =     -496.01134694  energy(sigma->0) =     -496.01134694


--------------------------------------------------------------------------------------------------------




--------------------------------------- Iteration      1(  18)  ---------------------------------------


    POTLOK:  cpu time      0.1680: real time      0.1680
    SETDIJ:  cpu time      0.2641: real time      0.2646
    TRIAL :  cpu time      7.2316: real time      7.2359
    CORREC:  cpu time      2.6697: real time      2.6714
    CHARGE:  cpu time      0.4717: real time      0.4717
    --------------------------------------------
      LOOP:  cpu time     10.8346: real time     10.8412

 eigenvalue-minimisations  :     0
 total energy-change (2. order) :-0.6672664E-05  (-0.1792986E-05)
 number of electron     208.0000002 magnetization 
 augmentation part       -0.6536662 magnetization 

 Free energy of the ion-electron system (eV)
  ---------------------------------------------------
  alpha Z        PSCENC =       191.88443493
  Ewald energy   TEWEN  =     -3572.32588850
  -Hartree energ DENC   =     -4313.73579956
  -exchange      EXHF   =         0.00000000
  -V(xc)+E(xc)   XCENC  =       739.64852693
  PAW double counting   =    118240.98375256  -118188.16709725
  entropy T*S    EENTRO =        -0.00000000
  eigenvalues    EBANDS =     -1758.22620646
  atomic energy  EATOM  =      8163.92692374
  ---------------------------------------------------
  free energy    TOTEN  =      -496.01135362 eV

  energy without entropy =     -496.01135362  energy(sigma->0) =     -496.01135362


--------------------------------------------------------------------------------------------------------




--------------------------------------- Iteration      1(  19)  ---------------------------------------


    POTLOK:  cpu time      0.1675: real time      0.1676
    SETDIJ:  cpu time      0.2668: real time      0.2669
    TRIAL :  cpu time      7.2289: real time      7.2344
    CORREC:  cpu time      2.6653: real time      2.6664
    CHARGE:  cpu time      0.4717: real time      0.4723
    --------------------------------------------
      LOOP:  cpu time     10.8141: real time     10.8378

 eigenvalue-minimisations  :     0
 total energy-change (2. order) :-0.1889668E-05  (-0.8223242E-06)
 number of electron     208.0000002 magnetization 
 augmentation part       -0.6536538 magnetization 

 Free energy of the ion-electron system (eV)
  ---------------------------------------------------
  alpha Z        PSCENC =       191.88443493
  Ewald energy   TEWEN  =     -3572.32588850
  -Hartree energ DENC   =     -4313.71537177
  -exchange      EXHF   =         0.00000000
  -V(xc)+E(xc)   XCENC  =       739.64746012
  PAW double counting   =    118248.37521251  -118195.55837674
  entropy T*S    EENTRO =        -0.00000000
  eigenvalues    EBANDS =     -1758.24574978
  atomic energy  EATOM  =      8163.92692374
  ---------------------------------------------------
  free energy    TOTEN  =      -496.01135551 eV

  energy without entropy =     -496.01135551  energy(sigma->0) =     -496.01135551


--------------------------------------------------------------------------------------------------------




--------------------------------------- Iteration      1(  20)  ---------------------------------------


    POTLOK:  cpu time      0.1682: real time      0.1682
    SETDIJ:  cpu time      0.2652: real time      0.2652
    TRIAL :  cpu time      7.2444: real time      7.2493
    CORREC:  cpu time      2.6694: real time      2.6709
    CHARGE:  cpu time      0.4724: real time      0.4729
    --------------------------------------------
      LOOP:  cpu time     10.8319: real time     10.8559

 eigenvalue-minimisations  :     0
 total energy-change (2. order) :-0.7528724E-06  (-0.2237791E-06)
 number of electron     208.0000002 magnetization 
 augmentation part       -0.6536526 magnetization 

 Free energy of the ion-electron system (eV)
  ---------------------------------------------------
  alpha Z        PSCENC =       191.88443493
  Ewald energy   TEWEN  =     -3572.32588850
  -Hartree energ DENC   =     -4313.72315585
  -exchange      EXHF   =         0.00000000
  -V(xc)+E(xc)   XCENC  =       739.64811012
  PAW double counting   =    118252.18963691  -118199.37286401
  entropy T*S    EENTRO =        -0.00000000
  eigenvalues    EBANDS =     -1758.23855360
  atomic energy  EATOM  =      8163.92692374
  ---------------------------------------------------
  free energy    TOTEN  =      -496.01135626 eV

  energy without entropy =     -496.01135626  energy(sigma->0) =     -496.01135626


--------------------------------------------------------------------------------------------------------




--------------------------------------- Iteration      1(  21)  ---------------------------------------


    POTLOK:  cpu time      0.1679: real time      0.1679
    SETDIJ:  cpu time      0.2647: real time      0.2647
    TRIAL :  cpu time      7.2325: real time      7.2379
    CORREC:  cpu time      2.6704: real time      2.6721
    CHARGE:  cpu time      0.4692: real time      0.4696
    --------------------------------------------
      LOOP:  cpu time     10.8346: real time     10.8423

 eigenvalue-minimisations  :     0
 total energy-change (2. order) :-0.2202723E-06  (-0.8374136E-07)
 number of electron     208.0000002 magnetization 
 augmentation part       -0.6536556 magnetization 

 Free energy of the ion-electron system (eV)
  ---------------------------------------------------
  alpha Z        PSCENC =       191.88443493
  Ewald energy   TEWEN  =     -3572.32588850
  -Hartree energ DENC   =     -4313.71964646
  -exchange      EXHF   =         0.00000000
  -V(xc)+E(xc)   XCENC  =       739.64787233
  PAW double counting   =    118253.08729406  -118200.27053808
  entropy T*S    EENTRO =        -0.00000000
  eigenvalues    EBANDS =     -1758.24180849
  atomic energy  EATOM  =      8163.92692374
  ---------------------------------------------------
  free energy    TOTEN  =      -496.01135648 eV

  energy without entropy =     -496.01135648  energy(sigma->0) =     -496.01135648


--------------------------------------------------------------------------------------------------------




--------------------------------------- Iteration      1(  22)  ---------------------------------------


    POTLOK:  cpu time      0.1678: real time      0.1678
    SETDIJ:  cpu time      0.2785: real time      0.2786
    TRIAL :  cpu time      7.2379: real time      7.2424
    CORREC:  cpu time      2.6623: real time      2.6639
    EDDIAG:  cpu time      1.6941: real time      1.6965
    CHARGE:  cpu time      0.4718: real time      0.4719
    --------------------------------------------
      LOOP:  cpu time     12.5261: real time     12.5519

 eigenvalue-minimisations  :     0
 total energy-change (2. order) :-0.8064671E-07  (-0.5304167E-07)
 number of electron     208.0000002 magnetization 
 augmentation part       -0.6536573 magnetization 

 Free energy of the ion-electron system (eV)
  ---------------------------------------------------
  alpha Z        PSCENC =       191.88443493
  Ewald energy   TEWEN  =     -3572.32588850
  -Hartree energ DENC   =     -4313.71670952
  -exchange      EXHF   =         0.00000000
  -V(xc)+E(xc)   XCENC  =       739.64767044
  PAW double counting   =    118252.76670146  -118199.94992635
  entropy T*S    EENTRO =        -0.00000000
  eigenvalues    EBANDS =     -1758.24456275
  atomic energy  EATOM  =      8163.92692374
  ---------------------------------------------------
  free energy    TOTEN  =      -496.01135656 eV

  energy without entropy =     -496.01135656  energy(sigma->0) =     -496.01135656


--------------------------------------------------------------------------------------------------------


  average scaling for gradient   0.8900


[...]
     96      -1.4610      2.00000
     97      -1.2807      2.00000
     98      -1.2555      2.00000
     99      -1.2356      2.00000
    100      -1.2090      2.00000
    101      -1.0854      2.00000
    102      -1.0699      2.00000
    103      -1.0596      2.00000
    104      -1.0424      2.00000
    105       4.2992      0.00000
    106       4.3710      0.00000
    107       4.3796      0.00000
    108       4.4056      0.00000
    109       4.5322      0.00000
    110       4.6085      0.00000
    111       4.6229      0.00000
    112       4.6271      0.00000
    113       5.4617      0.00000
    114       5.4766      0.00000
    115       5.4874      0.00000
    116       5.6126      0.00000
    117       5.9189      0.00000
    118       6.0173      0.00000
    119       6.0458      0.00000
    120       6.0740      0.00000
    121       6.6147      0.00000
    122       6.6277      0.00000
    123       6.7553      0.00000
    124       6.8356      0.00000
    125       7.0849      0.00000
    126       7.0966      0.00000
    127       7.3342      0.00000
    128       7.3436      0.00000
    129       7.5428      0.00000
    130       7.5688      0.00000
    131       7.6210      0.00000
    132       7.6290      0.00000
    133       7.8472      0.00000
    134       7.8960      0.00000
    135       7.9664      0.00000
    136       7.9861      0.00000
    137       8.2602      0.00000
    138       8.3284      0.00000
    139       8.3628      0.00000
    140       8.4882      0.00000
    141       8.8091      0.00000
    142       8.8417      0.00000
    143       8.9142      0.00000
    144       9.3701      0.00000


--------------------------------------------------------------------------------------------------------


 soft charge-density along one line, spin component           1
         0         1         2         3         4         5         6         7         8         9
 total charge-density along one line

 pseudopotential strength for first ion, spin component:           1
 12.475  20.987   0.003  -0.001  -0.009   0.005  -0.001  -0.016
 20.987  35.306   0.005  -0.001  -0.015   0.008  -0.002  -0.027
  0.003   0.005  -3.171   0.000   0.000  -5.674  -0.000   0.001
 -0.001  -0.001   0.000  -3.171   0.000  -0.000  -5.673   0.000
 -0.009  -0.015   0.000   0.000  -3.171   0.001   0.000  -5.675
  0.005   0.008  -5.674  -0.000   0.001 -10.130  -0.001   0.001
 -0.001  -0.002  -0.000  -5.673   0.000  -0.001 -10.129  -0.000
 -0.016  -0.027   0.001   0.000  -5.675   0.001  -0.000 -10.132
 total augmentation occupancy for first ion, spin component:           1
 10.224  -3.886   1.086   0.431  -1.064  -0.519  -0.198   0.531
 -3.886   1.518  -0.558  -0.207   0.594   0.260   0.094  -0.282
  1.086  -0.558   6.868   1.833  -0.823  -2.350  -0.733   0.370
  0.431  -0.207   1.833   5.532   0.933  -0.733  -1.802  -0.390
 -1.064   0.594  -0.823   0.933   8.382   0.370  -0.390  -3.076
 -0.519   0.260  -2.350  -0.733   0.370   0.818   0.286  -0.160
 -0.198   0.094  -0.733  -1.802  -0.390   0.286   0.599   0.158
  0.531  -0.282   0.370  -0.390  -3.076  -0.160   0.158   1.147


------------------------ aborting loop because EDIFF is reached ----------------------------------------


    FORLOC:  cpu time      0.0210: real time      0.0210
    FORNL :  cpu time      2.0535: real time      2.0543
    FORCOR:  cpu time      0.4339: real time      0.4351
    OFIELD:  cpu time      0.0017: real time      0.0020

 VOLUME and BASIS-vectors are now :
 -----------------------------------------------------------------------------
  energy-cutoff  :     1000.00
  volume of cell :      698.27
      direct lattice vectors                 reciprocal lattice vectors
     8.190000000  0.000000000  0.000000000     0.122100122  0.000000000  0.000000000
     0.000000000 12.588000000  0.000000000     0.000000000  0.079440737  0.000000000
     0.000000000  0.000000000  6.773000000     0.000000000  0.000000000  0.147645061

  length of vectors
     8.190000000 12.588000000  6.773000000     0.122100122  0.079440737  0.147645061


 FORCES acting on ions:
    Electron-Ion                     Ewald-Force                    Non-Local-Force
 -----------------------------------------------------------------------------------------------
   -.812E+02 0.130E+03 0.656E+02   0.855E+02 -.131E+03 -.652E+02   -.443E+01 0.137E+01 -.304E+00
   -.812E+02 -.130E+03 -.656E+02   0.855E+02 0.131E+03 0.652E+02   -.443E+01 -.137E+01 0.304E+00
   -.812E+02 -.130E+03 0.656E+02   0.855E+02 0.131E+03 -.652E+02   -.443E+01 -.137E+01 -.303E+00
   -.812E+02 0.130E+03 -.656E+02   0.855E+02 -.131E+03 0.652E+02   -.443E+01 0.137E+01 0.304E+00
   -.147E+03 0.210E+02 -.274E+02   0.148E+03 -.214E+02 0.273E+02   -.127E+01 0.478E+00 0.112E+00
   -.147E+03 -.210E+02 0.274E+02   0.148E+03 0.214E+02 -.273E+02   -.127E+01 -.478E+00 -.113E+00
   -.147E+03 -.210E+02 -.274E+02   0.148E+03 0.214E+02 0.273E+02   -.127E+01 -.478E+00 0.112E+00
   -.147E+03 0.210E+02 0.274E+02   0.148E+03 -.214E+02 -.273E+02   -.127E+01 0.478E+00 -.113E+00
   -.811E+02 -.983E+02 -.956E+02   0.885E+02 0.987E+02 0.979E+02   -.759E+01 -.499E+00 -.249E+01
   -.811E+02 0.984E+02 0.956E+02   0.885E+02 -.987E+02 -.979E+02   -.759E+01 0.500E+00 0.249E+01
   -.811E+02 0.983E+02 -.956E+02   0.885E+02 -.987E+02 0.979E+02   -.759E+01 0.499E+00 -.249E+01
   -.811E+02 -.984E+02 0.956E+02   0.885E+02 0.987E+02 -.979E+02   -.759E+01 -.499E+00 0.249E+01
   0.780E+02 -.863E+02 0.108E+03   -.822E+02 0.865E+02 -.110E+03   0.437E+01 -.281E+00 0.177E+01
   0.780E+02 0.863E+02 -.108E+03   -.823E+02 -.865E+02 0.110E+03   0.437E+01 0.281E+00 -.177E+01
   0.780E+02 0.863E+02 0.108E+03   -.823E+02 -.865E+02 -.110E+03   0.437E+01 0.281E+00 0.177E+01
   0.780E+02 -.863E+02 -.108E+03   -.822E+02 0.865E+02 0.110E+03   0.437E+01 -.281E+00 -.177E+01
   0.143E+03 0.185E+02 0.380E+02   -.144E+03 -.182E+02 -.385E+02   0.922E+00 -.293E+00 0.487E+00
   0.143E+03 -.185E+02 -.380E+02   -.144E+03 0.182E+02 0.385E+02   0.921E+00 0.292E+00 -.487E+00
   0.143E+03 -.185E+02 0.380E+02   -.144E+03 0.182E+02 -.385E+02   0.921E+00 0.292E+00 0.487E+00
   0.143E+03 0.185E+02 -.380E+02   -.144E+03 -.182E+02 0.385E+02   0.921E+00 -.293E+00 -.487E+00
   0.814E+02 0.123E+03 -.668E+02   -.888E+02 -.125E+03 0.660E+02   0.764E+01 0.231E+01 0.759E+00
   0.814E+02 -.123E+03 0.668E+02   -.888E+02 0.125E+03 -.660E+02   0.764E+01 -.231E+01 -.759E+00
   0.814E+02 -.123E+03 -.668E+02   -.888E+02 0.125E+03 0.660E+02   0.764E+01 -.231E+01 0.759E+00
   0.814E+02 0.123E+03 0.668E+02   -.888E+02 -.125E+03 -.660E+02   0.764E+01 0.231E+01 -.759E+00
   0.412E+02 -.311E+02 -.654E+01   -.465E+02 0.350E+02 0.698E+01   0.552E+01 -.407E+01 -.463E+00
   0.412E+02 0.311E+02 0.654E+01   -.465E+02 -.350E+02 -.697E+01   0.552E+01 0.407E+01 0.463E+00
   0.412E+02 0.311E+02 -.654E+01   -.465E+02 -.350E+02 0.697E+01   0.552E+01 0.407E+01 -.463E+00
   0.412E+02 -.311E+02 0.654E+01   -.465E+02 0.350E+02 -.697E+01   0.552E+01 -.407E+01 0.463E+00
   -.190E+02 -.337E+02 -.229E+02   0.203E+02 0.383E+02 0.265E+02   -.129E+01 -.475E+01 -.373E+01
   -.190E+02 0.337E+02 0.229E+02   0.203E+02 -.383E+02 -.265E+02   -.129E+01 0.475E+01 0.373E+01
   -.190E+02 0.337E+02 -.229E+02   0.203E+02 -.383E+02 0.265E+02   -.129E+01 0.475E+01 -.373E+01
   -.190E+02 -.337E+02 0.229E+02   0.203E+02 0.383E+02 -.265E+02   -.129E+01 -.475E+01 0.373E+01
   -.487E+02 0.404E+01 -.983E+01   0.543E+02 -.502E+01 0.111E+02   -.585E+01 0.101E+01 -.129E+01
   -.487E+02 -.404E+01 0.983E+01   0.543E+02 0.502E+01 -.111E+02   -.585E+01 -.101E+01 0.129E+01
   -.487E+02 -.404E+01 -.983E+01   0.543E+02 0.502E+01 0.111E+02   -.586E+01 -.101E+01 -.129E+01
   -.487E+02 0.404E+01 0.983E+01   0.543E+02 -.502E+01 -.111E+02   -.585E+01 0.101E+01 0.129E+01
   -.155E+02 0.425E+02 0.223E+02   0.168E+02 -.474E+02 -.253E+02   -.128E+01 0.504E+01 0.316E+01
   -.155E+02 -.425E+02 -.223E+02   0.168E+02 0.474E+02 0.253E+02   -.128E+01 -.504E+01 -.316E+01
   -.155E+02 -.425E+02 0.223E+02   0.168E+02 0.474E+02 -.253E+02   -.128E+01 -.504E+01 0.316E+01
   -.155E+02 0.425E+02 -.223E+02   0.168E+02 -.474E+02 0.253E+02   -.128E+01 0.504E+01 -.316E+01
   -.397E+02 0.201E+02 -.314E+02   0.450E+02 -.214E+02 0.354E+02   -.554E+01 0.131E+01 -.408E+01
   -.397E+02 -.201E+02 0.314E+02   0.450E+02 0.214E+02 -.354E+02   -.554E+01 -.131E+01 0.408E+01
   -.397E+02 -.201E+02 -.314E+02   0.450E+02 0.214E+02 0.354E+02   -.554E+01 -.131E+01 -.408E+01
   -.397E+02 0.201E+02 0.314E+02   0.450E+02 -.214E+02 -.354E+02   -.554E+01 0.131E+01 0.408E+01
   0.179E+02 0.378E+02 -.213E+02   -.192E+02 -.424E+02 0.248E+02   0.144E+01 0.481E+01 -.357E+01
   0.179E+02 -.378E+02 0.213E+02   -.192E+02 0.424E+02 -.248E+02   0.144E+01 -.481E+01 0.357E+01
   0.179E+02 -.378E+02 -.213E+02   -.192E+02 0.424E+02 0.248E+02   0.144E+01 -.481E+01 -.357E+01
   0.179E+02 0.378E+02 0.213E+02   -.192E+02 -.424E+02 -.248E+02   0.144E+01 0.481E+01 0.357E+01
   0.474E+02 0.418E+01 0.110E+02   -.530E+02 -.510E+01 -.124E+02   0.579E+01 0.957E+00 0.150E+01
   0.474E+02 -.418E+01 -.110E+02   -.530E+02 0.510E+01 0.124E+02   0.579E+01 -.957E+00 -.150E+01
   0.474E+02 -.418E+01 0.110E+02   -.530E+02 0.510E+01 -.124E+02   0.579E+01 -.957E+00 0.150E+01
   0.474E+02 0.418E+01 -.110E+02   -.530E+02 -.510E+01 0.124E+02   0.579E+01 0.957E+00 -.150E+01
   0.176E+02 -.288E+02 0.286E+02   -.187E+02 0.330E+02 -.327E+02   0.113E+01 -.433E+01 0.421E+01
   0.176E+02 0.288E+02 -.286E+02   -.187E+02 -.330E+02 0.327E+02   0.113E+01 0.433E+01 -.421E+01
   0.176E+02 0.288E+02 0.286E+02   -.187E+02 -.330E+02 -.327E+02   0.113E+01 0.433E+01 0.421E+01
   0.176E+02 -.288E+02 -.286E+02   -.187E+02 0.330E+02 0.327E+02   0.113E+01 -.433E+01 -.421E+01
   0.108E+03 -.103E+03 -.567E+02   -.113E+03 0.110E+03 0.617E+02   0.537E+01 -.737E+01 -.499E+01
   0.108E+03 0.103E+03 0.567E+02   -.113E+03 -.110E+03 -.617E+02   0.537E+01 0.737E+01 0.499E+01
   0.108E+03 0.103E+03 -.567E+02   -.113E+03 -.110E+03 0.617E+02   0.537E+01 0.737E+01 -.499E+01
   0.108E+03 -.103E+03 0.567E+02   -.113E+03 0.110E+03 -.617E+02   0.537E+01 -.737E+01 0.499E+01
   0.127E+03 0.101E+03 0.982E+02   -.153E+03 -.117E+03 -.119E+03   0.265E+02 0.169E+02 0.214E+02
   0.127E+03 -.101E+03 -.982E+02   -.153E+03 0.117E+03 0.119E+03   0.265E+02 -.169E+02 -.214E+02
   0.127E+03 -.101E+03 0.982E+02   -.153E+03 0.117E+03 -.119E+03   0.265E+02 -.169E+02 0.214E+02
   0.127E+03 0.101E+03 -.982E+02   -.153E+03 -.117E+03 0.119E+03   0.265E+02 0.169E+02 -.214E+02
   -.962E+02 0.855E+02 -.900E+02   0.101E+03 -.920E+02 0.960E+02   -.469E+01 0.663E+01 -.604E+01
   -.962E+02 -.855E+02 0.901E+02   0.101E+03 0.920E+02 -.960E+02   -.468E+01 -.663E+01 0.604E+01
   -.962E+02 -.855E+02 -.901E+02   0.101E+03 0.920E+02 0.960E+02   -.469E+01 -.663E+01 -.604E+01
   -.962E+02 0.855E+02 0.901E+02   0.101E+03 -.920E+02 -.960E+02   -.468E+01 0.663E+01 0.604E+01
   -.132E+03 -.113E+03 0.639E+02   0.159E+03 0.137E+03 -.739E+02   -.270E+02 -.243E+02 0.100E+02
   -.132E+03 0.113E+03 -.639E+02   0.159E+03 -.137E+03 0.739E+02   -.270E+02 0.243E+02 -.100E+02
   -.132E+03 0.113E+03 0.639E+02   0.159E+03 -.137E+03 -.739E+02   -.270E+02 0.243E+02 0.100E+02
   -.132E+03 -.113E+03 -.639E+02   0.159E+03 0.137E+03 0.739E+02   -.270E+02 -.243E+02 -.100E+02
 -----------------------------------------------------------------------------------------------
   0.978E+00 -.346E-03 0.532E-03   -.796E-12 0.114E-12 0.142E-13   -.976E+00 0.313E-03 -.493E-03


 POSITION                                       TOTAL-FORCE (eV/Angst)
 -----------------------------------------------------------------------------------
      2.37238      0.70669      2.61976        -0.177614      0.208622      0.091801
      6.46740     11.88136      4.15317        -0.177949     -0.208425     -0.091516
      2.37238      5.58729      6.00627        -0.177326     -0.208598      0.091895
      6.46741      7.00068      0.76671        -0.177761      0.208566     -0.091661
      3.21048      1.47171      3.45258        -0.165886      0.042739     -0.018168
      7.30548     11.11630      3.32039        -0.165084     -0.042759      0.017784
      3.21048      4.82227      0.06610        -0.166500     -0.042629     -0.018420
      7.30549      7.76571      6.70689        -0.165711      0.042814      0.017972
      2.40362      2.50055      3.92012        -0.149408     -0.161285     -0.183599
      6.49860     10.08747      2.85284        -0.149125      0.161756      0.183990
      2.40359      3.79345      0.53365        -0.149248      0.161135     -0.183485
      6.49862      8.79454      6.23934        -0.149503     -0.161590      0.183932
      5.84192      2.35717      6.27864         0.173041     -0.140131      0.207424
      1.74697     10.23080      0.49432         0.172231      0.140628     -0.207377
      5.84198      3.93684      2.89217         0.171915      0.140092      0.206885
      1.74695      8.65119      3.88084         0.172772     -0.140295     -0.207403
      4.97071      1.37376      0.00735         0.161884      0.006310      0.054267
      0.87576     11.21424      6.76563         0.161727     -0.006511     -0.054130
      4.97073      4.92024      3.39386         0.161925     -0.006280      0.054426
      0.87574      7.66777      3.37914         0.161687      0.006241     -0.054268
      5.72639      0.66429      0.93058         0.153296      0.206451     -0.112024
      1.63143     11.92369      5.84238         0.153476     -0.206759      0.112281
      5.72639      5.62972      4.31712         0.153363     -0.206879     -0.112474
      1.63141      6.95830      2.45589         0.153517      0.206893      0.112335
      0.33388      2.93713      3.45397         0.212876     -0.161741     -0.027006
      4.42886      9.65095      3.31900         0.212871      0.161748      0.026970
      0.33386      3.35689      0.06748         0.212535      0.161464     -0.026924
      4.42888      9.23109      6.70551         0.212895     -0.161774      0.026984
      2.61802      3.33653      4.57459        -0.057337     -0.159717     -0.120079
      6.71300      9.25150      2.19840        -0.057276      0.159358      0.119811
      2.61800      2.95748      1.18812        -0.057325      0.159634     -0.120022
      6.71302      9.63051      5.58488        -0.057270     -0.159508      0.119903
      4.25277      1.29729      3.68355        -0.221446      0.037633     -0.046226
      0.15778     11.29070      3.08944        -0.221722     -0.037690      0.046245
      4.25276      4.99669      0.29706        -0.221052     -0.037621     -0.046098
      0.15778      7.59130      6.47592        -0.221312      0.037619      0.046192
      2.60117     12.39469      2.05639        -0.066337      0.196636      0.110613
      6.69619      0.19337      4.71653        -0.066296     -0.196813     -0.110756
      2.60118      6.48728      5.44289        -0.066352     -0.196667      0.110664
      6.69621      6.10068      1.33007        -0.066270      0.196596     -0.110613
      7.78137      1.02588      1.55640        -0.214397      0.058088     -0.167351
      3.68641     11.56211      5.21655        -0.214721     -0.058257      0.167647
      7.78139      5.26818      4.94293        -0.214844     -0.058445     -0.167744
      3.68639      7.31988      1.83007        -0.214607      0.058234      0.167568
      5.48107     12.40663      1.56174         0.069484      0.177230     -0.115273
      1.38612      0.18137      5.21124         0.069478     -0.177216      0.115176
      5.48104      6.47537      4.94826         0.069504     -0.177156     -0.115163
      1.38609      6.11264      1.82475         0.069477      0.177143      0.115170
      3.93716      1.20228      6.51128         0.225454      0.033449      0.056900
      8.03222     11.38573      0.26172         0.225575     -0.033530     -0.056918
      3.93719      5.09168      3.12478         0.225314     -0.033414      0.056852
      8.03220      7.49629      3.64823         0.225556      0.033499     -0.056945
      5.64638      3.12300      5.53699         0.054306     -0.148958      0.140282
      1.55142      9.46499      1.23598         0.054344      0.148769     -0.140125
      5.64646      3.17100      2.15052         0.054232      0.148971      0.140215
      1.55142      9.41702      4.62248         0.054270     -0.148856     -0.140154
      1.17468      2.31770      3.38132         0.183322     -0.153268     -0.094081
      5.26967     10.27037      3.39163         0.182919      0.153353      0.094227
      1.17466      3.97630      6.76785         0.183885      0.154067     -0.094481
      5.26969      8.61167      0.00515         0.183246     -0.153404      0.094229
      1.13307      1.22732      2.57208         0.363636      0.198131      0.253138
      5.22807     11.36077      4.20083         0.363510     -0.198338     -0.253054
      1.13307      5.06668      5.95860         0.363259     -0.198384      0.253188
      5.22810      7.52128      0.81439         0.363456      0.198379     -0.253289
      6.96010      1.22529      0.94518        -0.168205      0.135848     -0.143602
      2.86512     11.36266      5.82777        -0.167609     -0.135202      0.143030
      6.96010      5.06872      4.33171        -0.167680     -0.135048     -0.142829
      2.86511      7.51932      2.44129        -0.167922      0.135289      0.143144
      7.05385      2.26635      0.07942        -0.376704     -0.277719      0.106077
      2.95888     10.32161      6.69353        -0.376327      0.277550     -0.106315
      7.05387      4.02768      3.46594        -0.375566      0.277552      0.106543
      2.95887      8.56038      3.30705        -0.376541     -0.277620     -0.106186
 -----------------------------------------------------------------------------------
    total drift:                                0.001977     -0.000033      0.000039


--------------------------------------------------------------------------------------------------------



  FREE ENERGIE OF THE ION-ELECTRON SYSTEM (eV)
  ---------------------------------------------------
  free  energy   TOTEN  =      -496.01135656 eV

  energy  without entropy=     -496.01135656  energy(sigma->0) =     -496.01135656



--------------------------------------------------------------------------------------------------------


    POTLOK:  cpu time      0.4385: real time      0.4386


--------------------------------------------------------------------------------------------------------


 stress matrix after NEB project (eV)
      0.00000      0.00000      0.00000
      0.00000      0.00000      0.00000
      0.00000      0.00000      0.00000
  FORCES: max atom, RMS     0.485396    0.283274
  FORCE total and by dimension    2.403658    0.376704
  Stress total and by dimension    0.000000    0.000000
     LOOP+:  cpu time    240.4504: real time    240.8940
    4ORBIT:  cpu time      0.0000: real time      0.0000

 total amount of memory used by VASP MPI-rank0    85928. kBytes
=======================================================================

   base      :      30000. kBytes
   nonl-proj :       6051. kBytes
   fftplans  :       3332. kBytes
   grid      :       7830. kBytes
   one-center:          9. kBytes
   wavefun   :      38706. kBytes

  
  
 General timing and accounting informations for this job:
 ========================================================
  
                  Total CPU time used (sec):      252.921
                            User time (sec):      249.843
                          System time (sec):        3.078
                         Elapsed time (sec):      256.483
  
                   Maximum memory used (kb):      287528.
                   Average memory used (kb):          N/A
  
                          Minor page faults:       128364
                          Major page faults:         1175
                 Voluntary context switches:         3635
