 vasp.6.4.1 05Apr23 (build Jun  6 2023 14:36:51) complex                         
 executed on        HPECrayEX_GCC date 2024.08.20  15:13:02
 running  256 mpi-ranks, with    1 threads/rank, on    2 nodes
 distrk:  each k-point on  256 cores,    1 groups
 distr:  one band on NCORE=  64 cores,    4 groups


--------------------------------------------------------------------------------------------------------


 INCAR:
   ALGO = Conjugate
   NPAR = 4
   ISMEAR = 0
   SIGMA = 0.01
   PREC = Accurate
   EDIFF = 1E-7
   ENCUT = 1000
   ISIF = 0
   GGA = OR
   LUSE_VDW = .TRUE.
   AGGAC = 0.0000
   LASPH = .TRUE.
   LWAVE = .FALSE.
   LCHARGE = .FALSE.

 POTCAR:    PAW_PBE C_h 06Feb2004                 
 POTCAR:    PAW_PBE H_h 06Feb2004                 
 POTCAR:    PAW_PBE N_h 06Feb2004                 
 -----------------------------------------------------------------------------
|                                                                             |
|               ----> ADVICE to this user running VASP <----                  |
|                                                                             |
|     You have switched on vdW-DFT.                                           |
|     This routine was written and supplied by Jiri Klimes. We recommend      |
|     that you carefully read and cite the following publications:            |
|       J. Klimes, D.R. Bowler, A. Michelides                                 |
|          J. Phys.: Cond Matt. 22 022201 (2010)                              |
|       J. Klimes, D.R. Bowler, A. Michelides                                 |
|          Phys. Rev. B. 83, 195131 (2011)                                    |
|     and references therein.                                                 |
|                                                                             |
 -----------------------------------------------------------------------------

 POTCAR:    PAW_PBE C_h 06Feb2004                 
   VRHFIN =C: s2p2                                                                                  
   LEXCH  = PE                                                                                      
   EATOM  =   147.1560 eV,   10.8157 Ry                                                             
                                                                                                    
   TITEL  = PAW_PBE C_h 06Feb2004                                                                   
   LULTRA =        F    use ultrasoft PP ?                                                          
   IUNSCR =        1    unscreen: 0-lin 1-nonlin 2-no                                               
   RPACOR =    0.800    partial core radius                                                         
   POMASS =   12.011; ZVAL   =    4.000    mass and valenz                                          
   RCORE  =    1.100    outmost cutoff radius                                                       
   RWIGS  =    1.630; RWIGS  =    0.863    wigner-seitz radius (au A)                               
   ENMAX  =  700.000; ENMIN  =  500.000 eV                                                          
   ICORE  =        2    local potential                                                             
   LCOR   =        T    correct aug charges                                                         
   LPAW   =        T    paw PP                                                                      
   EAUG   =  946.768                                                                                
   DEXC   =    0.000                                                                                
   RMAX   =    1.128    core radius for proj-oper                                                   
   RAUG   =    1.300    factor for augmentation sphere                                              
   RDEP   =    1.162    radius for radial grids                                                     
   RDEPT  =    1.088    core radius for aug-charge                                                  
                                                                                                    
   Atomic configuration                                                                             
    4 entries                                                                                       
     n  l   j            E        occ.                                                              
     1  0  0.50      -273.3789   2.0000                                                             
     2  0  0.50       -13.7508   2.0000                                                             
     2  1  0.50        -5.2854   2.0000                                                             
     3  2  1.50        -5.4423   0.0000                                                             
   Description                                                                                      
     l       E           TYP  RCUT    TYP  RCUT                                                     
     0    -13.7508458     23  1.100                                                                 
     0     -8.2022199     23  1.100                                                                 
     1     -5.2854383     23  1.100                                                                 
     1      1.1560700     23  1.100                                                                 
     2     -5.4423304      7  1.100                                                                 
  local pseudopotential read in
  partial core-charges read in
  partial kinetic energy density read in
  atomic valenz-charges read in
  non local Contribution for L=           0  read in
    real space projection operators read in
  non local Contribution for L=           0  read in
    real space projection operators read in
  non local Contribution for L=           1  read in
    real space projection operators read in
  non local Contribution for L=           1  read in
    real space projection operators read in
    PAW grid and wavefunctions read in

   number of l-projection  operators is LMAX  =           4
   number of lm-projection operators is LMMAX =           8

 POTCAR:    PAW_PBE H_h 06Feb2004                 
   VRHFIN =H: ultrasoft test                                                                        
   LEXCH  = PE                                                                                      
   EATOM  =    12.4884 eV,    0.9179 Ry                                                             
                                                                                                    
   TITEL  = PAW_PBE H_h 06Feb2004                                                                   
   LULTRA =        F    use ultrasoft PP ?                                                          
   IUNSCR =        0    unscreen: 0-lin 1-nonlin 2-no                                               
   RPACOR =    0.000    partial core radius                                                         
   POMASS =    1.000; ZVAL   =    1.000    mass and valenz                                          
   RCORE  =    0.800    outmost cutoff radius                                                       
   RWIGS  =    0.700; RWIGS  =    0.370    wigner-seitz radius (au A)                               
   ENMAX  =  700.000; ENMIN  =  350.000 eV                                                          
   RCLOC  =    0.701    cutoff for local pot                                                        
   LCOR   =        T    correct aug charges                                                         
   LPAW   =        T    paw PP                                                                      
   EAUG   = 1000.000                                                                                
   RMAX   =    0.819    core radius for proj-oper                                                   
   RAUG   =    1.000    factor for augmentation sphere                                              
   RDEP   =    0.817    radius for radial grids                                                     
   RDEPT  =    0.817    core radius for aug-charge                                                  
                                                                                                    
   Atomic configuration                                                                             
    2 entries                                                                                       
     n  l   j            E        occ.                                                              
     1  0  0.50        -6.4927   1.0000                                                             
     2  1  0.50        -3.4015   0.0000                                                             
   Description                                                                                      
     l       E           TYP  RCUT    TYP  RCUT                                                     
     0     -6.4927493     23  0.800                                                                 
     0      6.8029130     23  0.800                                                                 
     1     -6.8029130     23  0.800                                                                 
  local pseudopotential read in
  atomic valenz-charges read in
  non local Contribution for L=           0  read in
    real space projection operators read in
  non local Contribution for L=           0  read in
    real space projection operators read in
  non local Contribution for L=           1  read in
    real space projection operators read in
    PAW grid and wavefunctions read in

   number of l-projection  operators is LMAX  =           3
   number of lm-projection operators is LMMAX =           5

 POTCAR:    PAW_PBE N_h 06Feb2004                 
   VRHFIN =N: s2p3                                                                                  
   LEXCH  = PE                                                                                      
   EATOM  =   264.5486 eV,   19.4438 Ry                                                             
                                                                                                    
   TITEL  = PAW_PBE N_h 06Feb2004                                                                   
   LULTRA =        F    use ultrasoft PP ?                                                          
   IUNSCR =        1    unscreen: 0-lin 1-nonlin 2-no                                               
   RPACOR =    0.800    partial core radius                                                         
   POMASS =   14.001; ZVAL   =    5.000    mass and valenz                                          
   RCORE  =    1.100    outmost cutoff radius                                                       
   RWIGS  =    1.480; RWIGS  =    0.783    wigner-seitz radius (au A)                               
   ENMAX  =  700.000; ENMIN  =  500.000 eV                                                          
   ICORE  =        2    local potential                                                             
   LCOR   =        T    correct aug charges                                                         
   LPAW   =        T    paw PP                                                                      
   EAUG   =  904.640                                                                                
   DEXC   =    0.000                                                                                
   RMAX   =    1.127    core radius for proj-oper                                                   
   RAUG   =    1.300    factor for augmentation sphere                                              
   RDEP   =    1.115    radius for radial grids                                                     
   RDEPT  =    1.106    core radius for aug-charge                                                  
                                                                                                    
   Atomic configuration                                                                             
    4 entries                                                                                       
     n  l   j            E        occ.                                                              
     1  0  0.50      -384.7179   2.0000                                                             
     2  0  0.50       -18.5828   2.0000                                                             
     2  1  0.50        -7.0898   3.0000                                                             
     3  2  1.50        -6.8029   0.0000                                                             
   Description                                                                                      
     l       E           TYP  RCUT    TYP  RCUT                                                     
     0    -18.5828117     23  1.100                                                                 
     0    -15.0750597     23  1.100                                                                 
     1     -7.0897851     23  1.100                                                                 
     1     -1.9663412     23  1.100                                                                 
     2     -6.8029130      7  1.100                                                                 
  local pseudopotential read in
  partial core-charges read in
  partial kinetic energy density read in
  kinetic energy density of atom read in
  atomic valenz-charges read in
  non local Contribution for L=           0  read in
    real space projection operators read in
  non local Contribution for L=           0  read in
    real space projection operators read in
  non local Contribution for L=           1  read in
    real space projection operators read in
  non local Contribution for L=           1  read in
    real space projection operators read in
    PAW grid and wavefunctions read in

   number of l-projection  operators is LMAX  =           4
   number of lm-projection operators is LMMAX =           8

 -----------------------------------------------------------------------------
|                                                                             |
|               ----> ADVICE to this user running VASP <----                  |
|                                                                             |
|     You have a (more or less) 'large supercell' and for larger cells it     |
|     might be more efficient to use real-space projection operators.         |
|     Therefore, try LREAL= Auto in the INCAR file.                           |
|     Mind: For very accurate calculation, you might also keep the            |
|     reciprocal projection scheme (i.e. LREAL=.FALSE.).                      |
|                                                                             |
 -----------------------------------------------------------------------------

 -----------------------------------------------------------------------------
|                                                                             |
|               ----> ADVICE to this user running VASP <----                  |
|                                                                             |
|     You enforced a specific xc type in the INCAR file but a different       |
|     type was found in the POTCAR file.                                      |
|     I HOPE YOU KNOW WHAT YOU ARE DOING!                                     |
|                                                                             |
 -----------------------------------------------------------------------------

  PAW_PBE C_h 06Feb2004                 :
 energy of atom  1       EATOM= -147.1560
 kinetic energy error for atom=    0.0031 (will be added to EATOM!!)
  PAW_PBE H_h 06Feb2004                 :
 energy of atom  2       EATOM=  -12.4884
 kinetic energy error for atom=    0.0006 (will be added to EATOM!!)
  PAW_PBE N_h 06Feb2004                 :
 energy of atom  3       EATOM= -264.5486
 kinetic energy error for atom=    0.0081 (will be added to EATOM!!)


 POSCAR:  C  H  N
  positions in cartesian coordinates
  No initial velocities read in
 exchange correlation table for  LEXCH =       41
   RHO(1)=    0.500       N(1)  =     2000
   RHO(2)=  100.500       N(2)  =     4000

 VTST: version 4.1, (05/19/21)

 CHAIN: initializing optimizer
 
 OPT: Using VASP Dynamics algorithm
 CHAIN: Read ICHAIN            0

 POSCAR:  C  H  N
  positions in cartesian coordinates
  No initial velocities read in



--------------------------------------------------------------------------------------------------------


 ion  position               nearest neighbor table
   1  0.290  0.056  0.387-  37 1.09  61 1.35   5 1.41
   2  0.790  0.944  0.613-  38 1.09  62 1.35   6 1.41
   3  0.290  0.444  0.887-  39 1.09  63 1.35   7 1.41
   4  0.790  0.556  0.113-  40 1.09  64 1.35   8 1.41
   5  0.392  0.117  0.510-  33 1.08   9 1.39   1 1.41
   6  0.892  0.883  0.490-  34 1.08  10 1.39   2 1.41
   7  0.392  0.383  0.010-  35 1.08  11 1.39   3 1.41
   8  0.892  0.617  0.990-  36 1.08  12 1.39   4 1.41
   9  0.293  0.199  0.579-  29 1.08  57 1.35   5 1.39
  10  0.793  0.801  0.421-  30 1.08  58 1.35   6 1.39
  11  0.293  0.301  0.079-  31 1.08  59 1.35   7 1.39
  12  0.793  0.699  0.921-  32 1.08  60 1.35   8 1.39
  13  0.713  0.187  0.927-  53 1.08  69 1.34  17 1.41
  14  0.213  0.813  0.073-  54 1.08  70 1.34  18 1.41
  15  0.713  0.313  0.427-  55 1.08  71 1.34  19 1.41
  16  0.213  0.687  0.573-  56 1.08  72 1.34  20 1.41
  17  0.607  0.109  0.001-  49 1.08  21 1.39  13 1.41
  18  0.107  0.891  0.999-  50 1.08  22 1.39  14 1.41
  19  0.607  0.391  0.501-  51 1.08  23 1.39  15 1.41
  20  0.107  0.609  0.499-  52 1.08  24 1.39  16 1.41
  21  0.699  0.053  0.137-  45 1.08  65 1.36  17 1.39
  22  0.199  0.947  0.863-  46 1.08  66 1.36  18 1.39
  23  0.699  0.447  0.637-  47 1.08  67 1.36  19 1.39
  24  0.199  0.553  0.363-  48 1.08  68 1.36  20 1.39
  25  0.041  0.233  0.510-  57 1.05
  26  0.541  0.767  0.490-  58 1.05
  27  0.041  0.267  0.010-  59 1.05
  28  0.541  0.733  0.990-  60 1.05
  29  0.320  0.265  0.675-   9 1.08
  30  0.820  0.735  0.325-  10 1.08
  31  0.320  0.235  0.175-  11 1.08
  32  0.820  0.765  0.825-  12 1.08
  33  0.519  0.103  0.544-   5 1.08
  34  0.019  0.897  0.456-   6 1.08
  35  0.519  0.397  0.044-   7 1.08
  36  0.019  0.603  0.956-   8 1.08
  37  0.318  0.985  0.304-   1 1.09
  38  0.818  0.015  0.696-   2 1.09
  39  0.318  0.515  0.804-   3 1.09
  40  0.818  0.485  0.196-   4 1.09
  41  0.950  0.081  0.230-  65 1.04
  42  0.450  0.919  0.770-  66 1.04
  43  0.950  0.419  0.730-  67 1.04
  44  0.450  0.581  0.270-  68 1.04
  45  0.669  0.986  0.231-  21 1.08
  46  0.169  0.014  0.769-  22 1.08
  47  0.669  0.514  0.731-  23 1.08
  48  0.169  0.486  0.269-  24 1.08
  49  0.481  0.096  0.961-  17 1.08
  50  0.981  0.904  0.039-  18 1.08
  51  0.481  0.404  0.461-  19 1.08
  52  0.981  0.596  0.539-  20 1.08
  53  0.689  0.248  0.818-  13 1.08
  54  0.189  0.752  0.182-  14 1.08
  55  0.689  0.252  0.318-  15 1.08
  56  0.189  0.748  0.682-  16 1.08
  57  0.143  0.184  0.499-  25 1.05   9 1.35  61 1.36
  58  0.643  0.816  0.501-  26 1.05  10 1.35  62 1.36
  59  0.143  0.316  0.999-  27 1.05  11 1.35  63 1.36
  60  0.643  0.684  0.001-  28 1.05  12 1.35  64 1.36
  61  0.138  0.097  0.380-   1 1.35  57 1.36
  62  0.638  0.903  0.620-   2 1.35  58 1.36
  63  0.138  0.403  0.880-   3 1.35  59 1.36
  64  0.638  0.597  0.120-   4 1.35  60 1.36
  65  0.850  0.097  0.140-  41 1.04  21 1.36  69 1.36
  66  0.350  0.903  0.860-  42 1.04  22 1.36  70 1.36
  67  0.850  0.403  0.640-  43 1.04  23 1.36  71 1.36
  68  0.350  0.597  0.360-  44 1.04  24 1.36  72 1.36
  69  0.861  0.180  0.012-  13 1.34  65 1.36
  70  0.361  0.820  0.988-  14 1.34  66 1.36
  71  0.861  0.320  0.512-  15 1.34  67 1.36
  72  0.361  0.680  0.488-  16 1.34  68 1.36

  LATTYP: Found a simple orthorhombic cell.
 ALAT       =     6.7730000000
 B/A-ratio  =     1.2092130518
 C/A-ratio  =     1.8585560313
  
  Lattice vectors:
  
 A1 = (   0.0000000000,   0.0000000000,   6.7730000000)
 A2 = (   8.1900000000,   0.0000000000,   0.0000000000)
 A3 = (   0.0000000000,  12.5880000000,   0.0000000000)


Analysis of symmetry for initial positions (statically):
=====================================================================
 Subroutine PRICEL returns:
 Original cell was already a primitive cell.
 

 Routine SETGRP: Setting up the symmetry group for a 
 simple orthorhombic supercell.


 Subroutine GETGRP returns: Found  1 space group operations
 (whereof  1 operations were pure point group operations)
 out of a pool of  8 trial point group operations.


The static configuration has the point symmetry C_1 .


Analysis of symmetry for dynamics (positions and initial velocities):
=====================================================================
 Subroutine PRICEL returns:
 Original cell was already a primitive cell.
 

 Routine SETGRP: Setting up the symmetry group for a 
 simple orthorhombic supercell.


 Subroutine GETGRP returns: Found  1 space group operations
 (whereof  1 operations were pure point group operations)
 out of a pool of  8 trial point group operations.


The dynamic configuration has the point symmetry C_1 .


 Subroutine INISYM returns: Found  1 space group operations
 (whereof  1 operations are pure point group operations),
 and found     1 'primitive' translations


----------------------------------------------------------------------------------------

                                     Primitive cell                                     

  volume of cell :     698.2673

  direct lattice vectors                    reciprocal lattice vectors
     8.190000000  0.000000000  0.000000000     0.122100122  0.000000000  0.000000000
     0.000000000 12.588000000  0.000000000     0.000000000  0.079440737  0.000000000
     0.000000000  0.000000000  6.773000000     0.000000000  0.000000000  0.147645061

  length of vectors
     8.190000000 12.588000000  6.773000000     0.122100122  0.079440737  0.147645061

  position of ions in fractional coordinates (direct lattice)
     0.289667890  0.056140328  0.386794113
     0.789670427  0.943864233  0.613195669
     0.289668062  0.443858423  0.886795883
     0.789672139  0.556138918  0.113200352
     0.391999864  0.116914038  0.509755729
     0.891999440  0.883087180  0.490239179
     0.391999639  0.383084431  0.009758941
     0.892001753  0.616913671  0.990239313
     0.293481737  0.198645841  0.578786597
     0.793479278  0.801356250  0.421207530
     0.293479107  0.301354175  0.078790637
     0.793482306  0.698644718  0.921207443
     0.713299019  0.187255403  0.927010116
     0.213305651  0.812742372  0.072984447
     0.713305993  0.312745215  0.427013977
     0.213303367  0.687257064  0.572986590
     0.606923898  0.109132299  0.001085596
     0.106930290  0.890867246  0.998911194
     0.606927084  0.390867213  0.501087317
     0.106927878  0.609133451  0.498912967
     0.699192737  0.052771517  0.137396265
     0.199197313  0.947227094  0.862598039
     0.699192414  0.447228898  0.637400831
     0.199194925  0.552772453  0.362600447
     0.040767009  0.233327593  0.509961622
     0.540764700  0.766678551  0.490033553
     0.040764734  0.266673711  0.009963077
     0.540767021  0.733324396  0.990035312
     0.319661070  0.265056078  0.675415347
     0.819658205  0.734945592  0.324582836
     0.319658333  0.234944366  0.175419756
     0.819660120  0.765054926  0.824579918
     0.519263507  0.103057410  0.543857519
     0.019265312  0.896941305  0.456139881
     0.519262211  0.396940728  0.043859089
     0.019265254  0.603058093  0.956137470
     0.317603103  0.984643685  0.303616487
     0.817605956  0.015361663  0.696372591
     0.317604713  0.515354254  0.803615951
     0.817608029  0.484642610  0.196378292
     0.950106200  0.081496325  0.229794259
     0.450110776  0.918502445  0.770197663
     0.950108209  0.418508214  0.729799223
     0.450108800  0.581496400  0.270201383
     0.669238880  0.985592066  0.230583332
     0.169244879  0.014407934  0.769414316
     0.669236230  0.514408292  0.730585995
     0.169241226  0.485592583  0.269415350
     0.480727708  0.095510204  0.961358839
     0.980734746  0.904491168  0.038641166
     0.480731213  0.404487186  0.461359042
     0.980732099  0.595510605  0.538642914
     0.689423397  0.248093113  0.817508945
     0.189428117  0.751905888  0.182485819
     0.689433541  0.251906701  0.317513568
     0.189428119  0.748094666  0.682486937
     0.143428374  0.184119608  0.499234905
     0.643427085  0.815885854  0.500756932
     0.143425679  0.315880421  0.999240094
     0.643429592  0.684117053  0.000759906
     0.138347720  0.097499310  0.379755550
     0.638348319  0.902508024  0.620232534
     0.138348036  0.402501014  0.879758408
     0.638351351  0.597496310  0.120239967
     0.849828685  0.097337862  0.139550811
     0.349831836  0.902658049  0.860441007
     0.849829250  0.402662887  0.639555536
     0.349830517  0.597340418  0.360444446
     0.861275712  0.180040879  0.011725788
     0.361279874  0.819956461  0.988267359
     0.861278519  0.319961540  0.511729356
     0.361278773  0.680042553  0.488269731

  ion indices of the primitive-cell ions
   primitive index   ion index
                 1           1
                 2           2
                 3           3
                 4           4
                 5           5
                 6           6
                 7           7
                 8           8
                 9           9
                10          10
                11          11
                12          12
                13          13
                14          14
                15          15
                16          16
                17          17
                18          18
                19          19
                20          20
                21          21
                22          22
                23          23
                24          24
                25          25
                26          26
                27          27
                28          28
                29          29
                30          30
                31          31
                32          32
                33          33
                34          34
                35          35
                36          36
                37          37
                38          38
                39          39
                40          40
                41          41
                42          42
                43          43
                44          44
                45          45
                46          46
                47          47
                48          48
                49          49
                50          50
                51          51
                52          52
                53          53
                54          54
                55          55
                56          56
                57          57
                58          58
                59          59
                60          60
                61          61
                62          62
                63          63
                64          64
                65          65
                66          66
                67          67
                68          68
                69          69
                70          70
                71          71
                72          72

----------------------------------------------------------------------------------------



 KPOINTS: auto                                    

Automatic generation of k-mesh.
 Grid dimensions read from file:
 generate k-points for:    3    2    4

 Generating k-lattice:

  Cartesian coordinates                     Fractional coordinates (reciprocal lattice)
     0.040700041  0.000000000  0.000000000     0.333333333  0.000000000  0.000000000
     0.000000000  0.039720369  0.000000000     0.000000000  0.500000000  0.000000000
     0.000000000  0.000000000  0.036911265     0.000000000  0.000000000  0.250000000

  Length of vectors
     0.040700041  0.039720369  0.036911265

  Shift w.r.t. Gamma in fractional coordinates (k-lattice)
     0.000000000  0.000000000  0.000000000

 
 Subroutine IBZKPT returns following result:
 ===========================================
 
 Found     14 irreducible k-points:
 
 Following reciprocal coordinates:
            Coordinates               Weight
  0.000000  0.000000  0.000000      1.000000
  0.333333  0.000000  0.000000      2.000000
  0.000000  0.500000  0.000000      1.000000
  0.333333  0.500000  0.000000      2.000000
  0.000000  0.000000  0.250000      2.000000
  0.333333  0.000000  0.250000      2.000000
 -0.333333  0.000000  0.250000      2.000000
  0.000000  0.500000  0.250000      2.000000
  0.333333  0.500000  0.250000      2.000000
 -0.333333  0.500000  0.250000      2.000000
  0.000000  0.000000  0.500000      1.000000
  0.333333  0.000000  0.500000      2.000000
  0.000000  0.500000  0.500000      1.000000
  0.333333  0.500000  0.500000      2.000000
 
 Following cartesian coordinates:
            Coordinates               Weight
  0.000000  0.000000  0.000000      1.000000
  0.040700  0.000000  0.000000      2.000000
  0.000000  0.039720  0.000000      1.000000
  0.040700  0.039720  0.000000      2.000000
  0.000000  0.000000  0.036911      2.000000
  0.040700  0.000000  0.036911      2.000000
 -0.040700  0.000000  0.036911      2.000000
  0.000000  0.039720  0.036911      2.000000
  0.040700  0.039720  0.036911      2.000000
 -0.040700  0.039720  0.036911      2.000000
  0.000000  0.000000  0.073823      1.000000
  0.040700  0.000000  0.073823      2.000000
  0.000000  0.039720  0.073823      1.000000
  0.040700  0.039720  0.073823      2.000000
 


--------------------------------------------------------------------------------------------------------




 Dimension of arrays:
   k-points           NKPTS =     14   k-points in BZ     NKDIM =     14   number of bands    NBANDS=    144
   number of dos      NEDOS =    301   number of ions     NIONS =     72
   non local maximal  LDIM  =      4   non local SUM 2l+1 LMDIM =      8
   total plane-waves  NPLWV = 823200
   max r-space proj   IRMAX =      1   max aug-charges    IRDMAX=   8572
   dimension x,y,z NGX =    84 NGY =  140 NGZ =   70
   dimension x,y,z NGXF=   168 NGYF=  280 NGZF=  140
   support grid    NGXF=   168 NGYF=  280 NGZF=  140
   ions per type =              24  32  16
   NGX,Y,Z   is equivalent  to a cutoff of  17.05, 18.49, 17.18 a.u.
   NGXF,Y,Z  is equivalent  to a cutoff of  34.10, 36.98, 34.36 a.u.

 SYSTEM =  unknown system                          
 POSCAR =   C  H  N                                

 Startparameter for this run:
   NWRITE =      2    write-flag & timer
   PREC   = accura    normal or accurate (medium, high low for compatibility)
   ISTART =      0    job   : 0-new  1-cont  2-samecut
   ICHARG =      2    charge: 1-file 2-atom 10-const
   ISPIN  =      1    spin polarized calculation?
   LNONCOLLINEAR =      F non collinear calculations
   LSORBIT =      F    spin-orbit coupling
   INIWAV =      1    electr: 0-lowe 1-rand  2-diag
   LASPH  =      T    aspherical Exc in radial PAW
 Electronic Relaxation 1
   ENCUT  = 1000.0 eV  73.50 Ry    8.57 a.u.  21.12 32.46 17.46*2*pi/ulx,y,z
   ENINI  = 1000.0     initial cutoff
   ENAUG  = 1000.0 eV  augmentation charge cutoff
   NELM   =     60;   NELMIN=  2; NELMDL= -5     # of ELM steps 
   EDIFF  = 0.1E-06   stopping-criterion for ELM
   LREAL  =      F    real-space projection
   NLSPLINE    = F    spline interpolate recip. space projectors
   LCOMPAT=      F    compatible to vasp.4.4
   GGA_COMPAT  = T    GGA compatible to vasp.4.4-vasp.4.6
   LMAXPAW     = -100 max onsite density
   LMAXMIX     =    2 max onsite mixed and CHGCAR
   VOSKOWN=      0    Vosko Wilk Nusair interpolation
   ROPT   =    0.00000   0.00000   0.00000
 Ionic relaxation
   EDIFFG = 0.1E-05   stopping-criterion for IOM
   NSW    =      0    number of steps for IOM
   NBLOCK =      1;   KBLOCK =      1    inner block; outer block 
   IBRION =     -1    ionic relax: 0-MD 1-quasi-New 2-CG
   NFREE  =      0    steps in history (QN), initial steepest desc. (CG)
   ISIF   =      0    stress and relaxation
   IWAVPR =     10    prediction:  0-non 1-charg 2-wave 3-comb
   ISYM   =      2    0-nonsym 1-usesym 2-fastsym
   LCORR  =      T    Harris-Foulkes like correction to forces

   POTIM  = 0.5000    time-step for ionic-motion
   TEIN   =    0.0    initial temperature
   TEBEG  =    0.0;   TEEND  =   0.0 temperature during run
   SMASS  =  -3.00    Nose mass-parameter (am)
   estimated Nose-frequenzy (Omega)   =  0.10E-29 period in steps = 0.13E+47 mass=  -0.153E-26a.u.
   SCALEE = 1.0000    scale energy and forces
   NPACO  =    256;   APACO  = 10.0  distance and # of slots for P.C.
   PSTRESS=    0.0 pullay stress

  Mass of Ions in am
   POMASS =  12.01  1.00 14.00
  Ionic Valenz
   ZVAL   =   4.00  1.00  5.00
  Atomic Wigner-Seitz radii
   RWIGS  =  -1.00 -1.00 -1.00
  virtual crystal weights 
   VCA    =   1.00  1.00  1.00
   NELECT =     208.0000    total number of electrons
   NUPDOWN=      -1.0000    fix difference up-down

 DOS related values:
   EMIN   =  10.00;   EMAX   =-10.00  energy-range for DOS
   EFERMI =   0.00;   METHOD = LEGACY      
   ISMEAR =     0;   SIGMA  =   0.01  broadening in eV -4-tet -1-fermi 0-gaus

 Electronic relaxation 2 (details)
   IALGO  =     58    algorithm
   LDIAG  =      T    sub-space diagonalisation (order eigenvalues)
   LSUBROT=      F    optimize rotation matrix (better conditioning)
   TURBO    =      0    0=normal 1=particle mesh
   IRESTART =      0    0=no restart 2=restart with 2 vectors
   NREBOOT  =      0    no. of reboots
   NMIN     =      0    reboot dimension
   EREF     =   0.00    reference energy to select bands
   IMIX   =      4    mixing-type and parameters
     AMIX     =   0.40;   BMIX     =  1.00
     AMIX_MAG =   1.60;   BMIX_MAG =  1.00
     AMIN     =   0.10
     WC   =   100.;   INIMIX=   1;  MIXPRE=   1;  MAXMIX= -45

 Intra band minimization:
   WEIMIN = 0.0000     energy-eigenvalue tresh-hold
   EBREAK =  0.17E-09  absolut break condition
   DEPER  =   0.30     relativ break condition  

   TIME   =   0.40     timestep for ELM

  volume/ion in A,a.u.               =       9.70        65.45
  Fermi-wavevector in a.u.,A,eV,Ry     =   1.093340  2.066114 16.264310  1.195393
  Thomas-Fermi vector in A             =   2.229624

 Write flags
   LWAVE        =      F    write WAVECAR
   LDOWNSAMPLE  =      F    k-point downsampling of WAVECAR
   LCHARG       =      T    write CHGCAR
   LVTOT        =      F    write LOCPOT, total local potential
   LVHAR        =      F    write LOCPOT, Hartree potential only
   LELF         =      F    write electronic localiz. function (ELF)
   LORBIT       =      0    0 simple, 1 ext, 2 COOP (PROOUT), +10 PAW based schemes


 Dipole corrections
   LMONO  =      F    monopole corrections only (constant potential shift)
   LDIPOL =      F    correct potential (dipole corrections)
   IDIPOL =      0    1-x, 2-y, 3-z, 4-all directions 
   EPSILON=  1.0000000 bulk dielectric constant

 Exchange correlation treatment:
   GGA     =    OR    GGA type
   LEXCH   =    41    internal setting for exchange type
   LIBXC   =     F    Libxc                    
   VOSKOWN =     0    Vosko Wilk Nusair interpolation
   LHFCALC =     F    Hartree Fock is set to
   LHFONE  =     F    Hartree Fock one center treatment
   AEXX    =    0.0000 exact exchange contribution

 vdW DFT:
   LUSE_VDW   =     T    switch on vdW DFT
   IVDW_NL    =     1    kernel type
   LSPIN_VDW  =     F    use spin-polarized vdW DFT
   Zab_VDW    =-.8491    correlation parameter
   PARAM1     =0.1234
   PARAM2     =1.0000
   PARAM3     =0.0000
   -- rVV10 --
   BPARAM     = 6.3000
   CPARAM     = 0.0093

 Linear response parameters
   LEPSILON=     F    determine dielectric tensor
   LRPA    =     F    only Hartree local field effects (RPA)
   LNABLA  =     F    use nabla operator in PAW spheres
   LVEL    =     F    velocity operator in full k-point grid
   CSHIFT  =0.1000    complex shift for real part using Kramers Kronig
   OMEGAMAX=  -1.0    maximum frequency
   DEG_THRESHOLD= 0.2000000E-02 threshold for treating states as degnerate
   RTIME   =   -0.100 relaxation time in fs
  (WPLASMAI=    0.000 imaginary part of plasma frequency in eV, 0.658/RTIME)
   DFIELD  = 0.0000000 0.0000000 0.0000000 field for delta impulse in time

  Optional k-point grid parameters
   LKPOINTS_OPT  =     F    use optional k-point grid
   KPOINTS_OPT_MODE=     1    mode for optional k-point grid

 Orbital magnetization related:
   ORBITALMAG=     F  switch on orbital magnetization
   LCHIMAG   =     F  perturbation theory with respect to B field
   DQ        =  0.001000  dq finite difference perturbation B field
   LLRAUG    =     F  two centre corrections for induced B field
   LBONE     =     F  B-component reconstruction in AE one-centre
   LVGVCALC  =     T  calculate vGv susceptibility
   LVGVAPPL  =     F  apply vGv susceptibility instead of pGv for G=0

 Random number generation:
   RANDOM_GENERATOR = DEFAULT
   PCG_SEED         = not used


--------------------------------------------------------------------------------------------------------


 Static calculation
 charge density and potential will be updated during run
 non-spin polarized calculation
 Conjugate gradient for all bands (Freysoldt, et al. PRB 79, 241103 (2009))
 preconditioned conjugated gradient                                        
 perform sub-space diagonalisation
    before iterative eigenvector-optimisation
 modified Broyden-mixing scheme, WC =      100.0
 initial mixing is a Kerker type mixing with AMIX =  0.4000 and BMIX =      1.0000
 Hartree-type preconditioning will be used
 using additional bands           40
 reciprocal scheme for non local part
 use partial core corrections
 no Harris-corrections to forces 
 use gradient corrections 
 use of overlap-Matrix (Vanderbilt PP)
 Gauss-broadening in eV      SIGMA  =   0.01


--------------------------------------------------------------------------------------------------------


  energy-cutoff  :     1000.00
  volume of cell :      698.27
      direct lattice vectors                 reciprocal lattice vectors
     8.190000000  0.000000000  0.000000000     0.122100122  0.000000000  0.000000000
     0.000000000 12.588000000  0.000000000     0.000000000  0.079440737  0.000000000
     0.000000000  0.000000000  6.773000000     0.000000000  0.000000000  0.147645061

  length of vectors
     8.190000000 12.588000000  6.773000000     0.122100122  0.079440737  0.147645061



 k-points in units of 2pi/SCALE and weight: auto                                    
   0.00000000  0.00000000  0.00000000       0.042
   0.04070004  0.00000000  0.00000000       0.083
   0.00000000  0.03972037  0.00000000       0.042
   0.04070004  0.03972037  0.00000000       0.083
   0.00000000  0.00000000  0.03691127       0.083
   0.04070004  0.00000000  0.03691127       0.083
  -0.04070004  0.00000000  0.03691127       0.083
   0.00000000  0.03972037  0.03691127       0.083
   0.04070004  0.03972037  0.03691127       0.083
  -0.04070004  0.03972037  0.03691127       0.083
   0.00000000  0.00000000  0.07382253       0.042
   0.04070004  0.00000000  0.07382253       0.083
   0.00000000  0.03972037  0.07382253       0.042
   0.04070004  0.03972037  0.07382253       0.083

 k-points in reciprocal lattice and weights: auto                                    
   0.00000000  0.00000000  0.00000000       0.042
   0.33333333  0.00000000  0.00000000       0.083
   0.00000000  0.50000000  0.00000000       0.042
   0.33333333  0.50000000  0.00000000       0.083
   0.00000000  0.00000000  0.25000000       0.083
   0.33333333  0.00000000  0.25000000       0.083
  -0.33333333  0.00000000  0.25000000       0.083
   0.00000000  0.50000000  0.25000000       0.083
   0.33333333  0.50000000  0.25000000       0.083
  -0.33333333  0.50000000  0.25000000       0.083
   0.00000000  0.00000000  0.50000000       0.042
   0.33333333  0.00000000  0.50000000       0.083
   0.00000000  0.50000000  0.50000000       0.042
   0.33333333  0.50000000  0.50000000       0.083

 position of ions in fractional coordinates (direct lattice) 
   0.28966789  0.05614033  0.38679411
   0.78967043  0.94386423  0.61319567
   0.28966806  0.44385842  0.88679588
   0.78967214  0.55613892  0.11320035
   0.39199986  0.11691404  0.50975573
   0.89199944  0.88308718  0.49023918
   0.39199964  0.38308443  0.00975894
   0.89200175  0.61691367  0.99023931
   0.29348174  0.19864584  0.57878660
   0.79347928  0.80135625  0.42120753
   0.29347911  0.30135417  0.07879064
   0.79348231  0.69864472  0.92120744
   0.71329902  0.18725540  0.92701012
   0.21330565  0.81274237  0.07298445
   0.71330599  0.31274521  0.42701398
   0.21330337  0.68725706  0.57298659
   0.60692390  0.10913230  0.00108560
   0.10693029  0.89086725  0.99891119
   0.60692708  0.39086721  0.50108732
   0.10692788  0.60913345  0.49891297
   0.69919274  0.05277152  0.13739626
   0.19919731  0.94722709  0.86259804
   0.69919241  0.44722890  0.63740083
   0.19919492  0.55277245  0.36260045
   0.04076701  0.23332759  0.50996162
   0.54076470  0.76667855  0.49003355
   0.04076473  0.26667371  0.00996308
   0.54076702  0.73332440  0.99003531
   0.31966107  0.26505608  0.67541535
   0.81965821  0.73494559  0.32458284
   0.31965833  0.23494437  0.17541976
   0.81966012  0.76505493  0.82457992
   0.51926351  0.10305741  0.54385752
   0.01926531  0.89694130  0.45613988
   0.51926221  0.39694073  0.04385909
   0.01926525  0.60305809  0.95613747
   0.31760310  0.98464369  0.30361649
   0.81760596  0.01536166  0.69637259
   0.31760471  0.51535425  0.80361595
   0.81760803  0.48464261  0.19637829
   0.95010620  0.08149633  0.22979426
   0.45011078  0.91850245  0.77019766
   0.95010821  0.41850821  0.72979922
   0.45010880  0.58149640  0.27020138
   0.66923888  0.98559207  0.23058333
   0.16924488  0.01440793  0.76941432
   0.66923623  0.51440829  0.73058600
   0.16924123  0.48559258  0.26941535
   0.48072771  0.09551020  0.96135884
   0.98073475  0.90449117  0.03864117
   0.48073121  0.40448719  0.46135904
   0.98073210  0.59551060  0.53864291
   0.68942340  0.24809311  0.81750895
   0.18942812  0.75190589  0.18248582
   0.68943354  0.25190670  0.31751357
   0.18942812  0.74809467  0.68248694
   0.14342837  0.18411961  0.49923490
   0.64342708  0.81588585  0.50075693
   0.14342568  0.31588042  0.99924009
   0.64342959  0.68411705  0.00075991
   0.13834772  0.09749931  0.37975555
   0.63834832  0.90250802  0.62023253
   0.13834804  0.40250101  0.87975841
   0.63835135  0.59749631  0.12023997
   0.84982868  0.09733786  0.13955081
   0.34983184  0.90265805  0.86044101
   0.84982925  0.40266289  0.63955554
   0.34983052  0.59734042  0.36044445
   0.86127571  0.18004088  0.01172579
   0.36127987  0.81995646  0.98826736
   0.86127852  0.31996154  0.51172936
   0.36127877  0.68004255  0.48826973

 position of ions in cartesian coordinates  (Angst):
   2.37238002  0.70669445  2.61975653
   6.46740079 11.88136297  4.15317427
   2.37238143  5.58728983  6.00626851
   6.46741482  7.00067670  0.76670599
   3.21047888  1.47171391  3.45257555
   7.30547541 11.11630143  3.32038996
   3.21047705  4.82226682  0.06609731
   7.30549435  7.76570929  6.70689087
   2.40361542  2.50055385  3.92012162
   6.49859529 10.08747247  2.85283860
   2.40359389  3.79344635  0.53364899
   6.49862009  8.79453972  6.23933801
   5.84191897  2.35717102  6.27863951
   1.74697328 10.23080098  0.49432366
   5.84197608  3.93683676  2.89216567
   1.74695457  8.65119192  3.88083817
   4.97070673  1.37375737  0.00735274
   0.87575907 11.21423689  6.76562552
   4.97073282  4.92023648  3.39386440
   0.87573932  7.66777188  3.37913752
   5.72638851  0.66428786  0.93058490
   1.63142600 11.92369465  5.84237652
   5.72638587  5.62971737  4.31711583
   1.63140643  6.95829964  2.45589283
   0.33388181  2.93712774  3.45397007
   4.42886289  9.65094960  3.31899726
   0.33386317  3.35688868  0.06747992
   4.42888190  9.23108750  6.70550917
   2.61802416  3.33652591  4.57458815
   6.71300070  9.25149511  2.19839955
   2.61800175  2.95747968  1.18811801
   6.71301638  9.63051141  5.58487978
   4.25276812  1.29728668  3.68354698
   0.15778290 11.29069714  3.08943542
   4.25275750  4.99668989  0.29705761
   0.15778243  7.59129527  6.47591908
   2.60116941 12.39469471  2.05639446
   6.69619278  0.19337261  4.71653156
   2.60118260  6.48727935  5.44289084
   6.69620976  6.10068117  1.33007017
   7.78136977  1.02587574  1.55639652
   3.68640726 11.56210878  5.21654877
   7.78138623  5.26818139  4.94293013
   3.68639108  7.31987668  1.83007397
   5.48106643 12.40663292  1.56174091
   1.38611556  0.18136708  5.21124316
   5.48104473  6.47537158  4.94825894
   1.38608564  6.11263943  1.82475017
   3.93715993  1.20228245  6.51128341
   8.03221757 11.38573482  0.26171662
   3.93718864  5.09168470  3.12478479
   8.03219589  7.49628749  3.64822845
   5.64637762  3.12299610  5.53698809
   1.55141628  9.46499132  1.23597645
   5.64646070  3.17100155  2.15051939
   1.55141630  9.41701566  4.62248403
   1.17467838  2.31769763  3.38131801
   5.26966782 10.27037113  3.39162670
   1.17465631  3.97630274  6.76785316
   5.26968836  8.61166546  0.00514684
   1.13306782  1.22732131  2.57208434
   5.22807273 11.36077100  4.20083495
   1.13307041  5.06668277  5.95860370
   5.22809757  7.52128355  0.81438530
   6.96009693  1.22528901  0.94517764
   2.86512273 11.36265952  5.82776694
   6.96010156  5.06872042  4.33170964
   2.86511193  7.51932118  2.44129023
   7.05384808  2.26635459  0.07941876
   2.95888217 10.32161193  6.69353482
   7.05387107  4.02767586  3.46594293
   2.95887315  8.56037566  3.30705089



--------------------------------------------------------------------------------------------------------


 k-point   1 :   0.0000 0.0000 0.0000  plane waves:   50233
 k-point   2 :   0.3333 0.0000 0.0000  plane waves:   50178
 k-point   3 :   0.0000 0.5000 0.0000  plane waves:   50160
 k-point   4 :   0.3333 0.5000 0.0000  plane waves:   50150
 k-point   5 :   0.0000 0.0000 0.2500  plane waves:   50175
 k-point   6 :   0.3333 0.0000 0.2500  plane waves:   50130
 k-point   7 :  -0.3333 0.0000 0.2500  plane waves:   50130
 k-point   8 :   0.0000 0.5000 0.2500  plane waves:   50164
 k-point   9 :   0.3333 0.5000 0.2500  plane waves:   50138
 k-point  10 :  -0.3333 0.5000 0.2500  plane waves:   50138
 k-point  11 :   0.0000 0.0000 0.5000  plane waves:   50074
 k-point  12 :   0.3333 0.0000 0.5000  plane waves:   50168
 k-point  13 :   0.0000 0.5000 0.5000  plane waves:   50088
 k-point  14 :   0.3333 0.5000 0.5000  plane waves:   50140

 maximum and minimum number of plane-waves per node :       807      766

 maximum number of plane-waves:     50233
 maximum index in each direction: 
   IXMAX=   21   IYMAX=   32   IZMAX=   17
   IXMIN=  -21   IYMIN=  -32   IZMIN=  -17


 parallel 3D FFT for wavefunctions:
    minimum data exchange during FFTs selected (reduces bandwidth)
 parallel 3D FFT for charge:
    minimum data exchange during FFTs selected (reduces bandwidth)


 total amount of memory used by VASP MPI-rank0    57820. kBytes
=======================================================================

   base      :      30000. kBytes
   nonl-proj :       3041. kBytes
   fftplans  :       1904. kBytes
   grid      :       3324. kBytes
   one-center:          6. kBytes
   wavefun   :      19545. kBytes

     INWAV:  cpu time      0.0001: real time      0.0003
 Broyden mixing: mesh for mixing (old mesh)
   NGX = 43   NGY = 65   NGZ = 35
  (NGX  =168   NGY  =280   NGZ  =140)
  gives a total of  97825 points

 initial charge density was supplied:
 charge density of overlapping atoms calculated
 number of electron     208.0000000 magnetization 
 keeping initial charge density in first step


--------------------------------------------------------------------------------------------------------


 Maximum index for augmentation-charges          236 (set IRDMAX)


--------------------------------------------------------------------------------------------------------


 First call to EWALD:  gamma=   0.200
 Maximum number of real-space cells 3x 2x 3
 Maximum number of reciprocal cells 3x 4x 2

    FEWALD:  cpu time      0.0041: real time      0.0041


--------------------------------------- Ionic step        1  -------------------------------------------




--------------------------------------- Iteration      1(   1)  ---------------------------------------


vdW kernel read from vdw_kernel.bindat
  0.0000  0.2424  0.5071  0.7962  1.1119  1.4567  1.8333  2.2446  2.6937  3.1842
  3.7199  4.3049  4.9438  5.6415  6.4036  7.2358  8.1446  9.1372 10.2212 11.4050
 12.6979 14.1099 15.6519 17.3360 19.1751 21.1837 23.3773 25.7729 28.3892 31.2465
 34.3669 37.7748 41.4965 45.5611 50.0000

    POTLOK:  cpu time      1.8906: real time      1.8948
    SETDIJ:  cpu time      0.0768: real time      0.0770
    TRIAL :  cpu time      4.0260: real time      4.0293
    CORREC:  cpu time      0.0019: real time      0.0019
    --------------------------------------------
      LOOP:  cpu time      6.0121: real time      6.0200

 eigenvalue-minimisations  :  4032
 total energy-change (2. order) : 0.1759213E+04  (-0.1516318E+05)
 number of electron     208.0000000 magnetization 
 augmentation part      208.0000000 magnetization 

 Free energy of the ion-electron system (eV)
  ---------------------------------------------------
  alpha Z        PSCENC =       191.88443493
  Ewald energy   TEWEN  =     -3572.32588850
  -Hartree energ DENC   =     -3777.21485326
  -exchange      EXHF   =         0.00000000
  -V(xc)+E(xc)   XCENC  =       498.86594804
  PAW double counting   =      6113.25464522    -5950.81076852
  entropy T*S    EENTRO =        -0.00068469
  eigenvalues    EBANDS =         5.64648140
  atomic energy  EATOM  =      8249.91383050
  ---------------------------------------------------
  free energy    TOTEN  =      1759.21314513 eV

  energy without entropy =     1759.21382983  energy(sigma->0) =     1759.21348748


--------------------------------------------------------------------------------------------------------




--------------------------------------- Iteration      1(   2)  ---------------------------------------


    TRIAL :  cpu time      4.9130: real time      4.9154
    CORREC:  cpu time      0.0004: real time      0.0004
    --------------------------------------------
      LOOP:  cpu time      4.9265: real time      4.9447

 eigenvalue-minimisations  :  5328
 total energy-change (2. order) :-0.1900818E+04  (-0.1816522E+04)
 number of electron     208.0000000 magnetization 
 augmentation part      208.0000000 magnetization 

 Free energy of the ion-electron system (eV)
  ---------------------------------------------------
  alpha Z        PSCENC =       191.88443493
  Ewald energy   TEWEN  =     -3572.32588850
  -Hartree energ DENC   =     -3777.21485326
  -exchange      EXHF   =         0.00000000
  -V(xc)+E(xc)   XCENC  =       498.86594804
  PAW double counting   =      6113.25464522    -5950.81076852
  entropy T*S    EENTRO =        -0.00000000
  eigenvalues    EBANDS =     -1895.17242289
  atomic energy  EATOM  =      8249.91383050
  ---------------------------------------------------
  free energy    TOTEN  =      -141.60507447 eV

  energy without entropy =     -141.60507447  energy(sigma->0) =     -141.60507447


--------------------------------------------------------------------------------------------------------




--------------------------------------- Iteration      1(   3)  ---------------------------------------


    TRIAL :  cpu time      4.6498: real time      4.6525
    CORREC:  cpu time      0.0004: real time      0.0004
    --------------------------------------------
      LOOP:  cpu time      4.6636: real time      4.6826

 eigenvalue-minimisations  :  5016
 total energy-change (2. order) :-0.2875914E+03  (-0.2842822E+03)
 number of electron     208.0000000 magnetization 
 augmentation part      208.0000000 magnetization 

 Free energy of the ion-electron system (eV)
  ---------------------------------------------------
  alpha Z        PSCENC =       191.88443493
  Ewald energy   TEWEN  =     -3572.32588850
  -Hartree energ DENC   =     -3777.21485326
  -exchange      EXHF   =         0.00000000
  -V(xc)+E(xc)   XCENC  =       498.86594804
  PAW double counting   =      6113.25464522    -5950.81076852
  entropy T*S    EENTRO =        -0.00000000
  eigenvalues    EBANDS =     -2182.76381637
  atomic energy  EATOM  =      8249.91383050
  ---------------------------------------------------
  free energy    TOTEN  =      -429.19646794 eV

  energy without entropy =     -429.19646794  energy(sigma->0) =     -429.19646794


--------------------------------------------------------------------------------------------------------




--------------------------------------- Iteration      1(   4)  ---------------------------------------


    TRIAL :  cpu time      4.5791: real time      4.5814
    CORREC:  cpu time      0.0004: real time      0.0004
    --------------------------------------------
      LOOP:  cpu time      4.6080: real time      4.6105

 eigenvalue-minimisations  :  4944
 total energy-change (2. order) :-0.1172643E+02  (-0.1165992E+02)
 number of electron     208.0000000 magnetization 
 augmentation part      208.0000000 magnetization 

 Free energy of the ion-electron system (eV)
  ---------------------------------------------------
  alpha Z        PSCENC =       191.88443493
  Ewald energy   TEWEN  =     -3572.32588850
  -Hartree energ DENC   =     -3777.21485326
  -exchange      EXHF   =         0.00000000
  -V(xc)+E(xc)   XCENC  =       498.86594804
  PAW double counting   =      6113.25464522    -5950.81076852
  entropy T*S    EENTRO =        -0.00000000
  eigenvalues    EBANDS =     -2194.49024179
  atomic energy  EATOM  =      8249.91383050
  ---------------------------------------------------
  free energy    TOTEN  =      -440.92289336 eV

  energy without entropy =     -440.92289336  energy(sigma->0) =     -440.92289336


--------------------------------------------------------------------------------------------------------




--------------------------------------- Iteration      1(   5)  ---------------------------------------


    TRIAL :  cpu time      5.1495: real time      5.1525
    CORREC:  cpu time      0.0004: real time      0.0004
    CHARGE:  cpu time      0.1617: real time      0.1636
    --------------------------------------------
      LOOP:  cpu time      5.3256: real time      5.3457

 eigenvalue-minimisations  :  5576
 total energy-change (2. order) :-0.4612619E+00  (-0.4608356E+00)
 number of electron     208.0000002 magnetization 
 augmentation part       -0.3843935 magnetization 

 Free energy of the ion-electron system (eV)
  ---------------------------------------------------
  alpha Z        PSCENC =       191.88443493
  Ewald energy   TEWEN  =     -3572.32588850
  -Hartree energ DENC   =     -3777.21485326
  -exchange      EXHF   =         0.00000000
  -V(xc)+E(xc)   XCENC  =       498.86594804
  PAW double counting   =      6113.25464522    -5950.81076852
  entropy T*S    EENTRO =        -0.00000000
  eigenvalues    EBANDS =     -2194.95150365
  atomic energy  EATOM  =      8249.91383050
  ---------------------------------------------------
  free energy    TOTEN  =      -441.38415522 eV

  energy without entropy =     -441.38415522  energy(sigma->0) =     -441.38415522


--------------------------------------------------------------------------------------------------------




--------------------------------------- Iteration      1(   6)  ---------------------------------------


    POTLOK:  cpu time      1.2548: real time      1.2550
    SETDIJ:  cpu time      0.0674: real time      0.0674
    TRIAL :  cpu time      2.3678: real time      2.3691
    CORREC:  cpu time      2.2750: real time      2.2762
    CHARGE:  cpu time      0.1304: real time      0.1306
    --------------------------------------------
      LOOP:  cpu time      6.1069: real time      6.1271

 eigenvalue-minimisations  :     0
 total energy-change (2. order) : 0.6683008E+02  (-0.2731777E+02)
 number of electron     208.0000002 magnetization 
 augmentation part       -0.4609520 magnetization 

 Free energy of the ion-electron system (eV)
  ---------------------------------------------------
  alpha Z        PSCENC =       191.88443493
  Ewald energy   TEWEN  =     -3572.32588850
  -Hartree energ DENC   =     -4807.64862078
  -exchange      EXHF   =         0.00000000
  -V(xc)+E(xc)   XCENC  =       560.25847146
  PAW double counting   =     59698.10193832   -59543.87855971
  entropy T*S    EENTRO =        -0.00000000
  eigenvalues    EBANDS =     -1150.85967867
  atomic energy  EATOM  =      8249.91383050
  ---------------------------------------------------
  free energy    TOTEN  =      -374.55407244 eV

  energy without entropy =     -374.55407244  energy(sigma->0) =     -374.55407244


--------------------------------------------------------------------------------------------------------




--------------------------------------- Iteration      1(   7)  ---------------------------------------


    POTLOK:  cpu time      1.2559: real time      1.2563
    SETDIJ:  cpu time      0.0675: real time      0.0675
    TRIAL :  cpu time      2.1944: real time      2.1952
    CORREC:  cpu time      2.2515: real time      2.2526
    CHARGE:  cpu time      0.1308: real time      0.1310
    --------------------------------------------
      LOOP:  cpu time      5.9294: real time      5.9322

 eigenvalue-minimisations  :     0
 total energy-change (2. order) :-0.2734644E+02  (-0.2701376E+01)
 number of electron     208.0000002 magnetization 
 augmentation part       -0.5152724 magnetization 

 Free energy of the ion-electron system (eV)
  ---------------------------------------------------
  alpha Z        PSCENC =       191.88443493
  Ewald energy   TEWEN  =     -3572.32588850
  -Hartree energ DENC   =     -4355.44419475
  -exchange      EXHF   =         0.00000000
  -V(xc)+E(xc)   XCENC  =       536.42852639
  PAW double counting   =     76640.26358076   -76482.62457906
  entropy T*S    EENTRO =        -0.00000000
  eigenvalues    EBANDS =     -1609.99621784
  atomic energy  EATOM  =      8249.91383050
  ---------------------------------------------------
  free energy    TOTEN  =      -401.90050758 eV

  energy without entropy =     -401.90050758  energy(sigma->0) =     -401.90050758


--------------------------------------------------------------------------------------------------------




--------------------------------------- Iteration      1(   8)  ---------------------------------------


    POTLOK:  cpu time      1.2675: real time      1.2678
    SETDIJ:  cpu time      0.0676: real time      0.0676
    TRIAL :  cpu time      2.2020: real time      2.2028
    CORREC:  cpu time      2.2983: real time      2.2993
    CHARGE:  cpu time      0.1306: real time      0.1308
    --------------------------------------------
      LOOP:  cpu time      5.9808: real time      5.9989

 eigenvalue-minimisations  :     0
 total energy-change (2. order) :-0.2702752E+01  (-0.9145256E+00)
 number of electron     208.0000002 magnetization 
 augmentation part       -0.5170881 magnetization 

 Free energy of the ion-electron system (eV)
  ---------------------------------------------------
  alpha Z        PSCENC =       191.88443493
  Ewald energy   TEWEN  =     -3572.32588850
  -Hartree energ DENC   =     -4358.09341276
  -exchange      EXHF   =         0.00000000
  -V(xc)+E(xc)   XCENC  =       536.69657433
  PAW double counting   =     80996.26487310   -80838.26801996
  entropy T*S    EENTRO =        -0.00000000
  eigenvalues    EBANDS =     -1610.67565161
  atomic energy  EATOM  =      8249.91383050
  ---------------------------------------------------
  free energy    TOTEN  =      -404.60325997 eV

  energy without entropy =     -404.60325997  energy(sigma->0) =     -404.60325997


--------------------------------------------------------------------------------------------------------




--------------------------------------- Iteration      1(   9)  ---------------------------------------


    POTLOK:  cpu time      1.2587: real time      1.2590
    SETDIJ:  cpu time      0.0675: real time      0.0675
    TRIAL :  cpu time      2.1887: real time      2.1894
    CORREC:  cpu time      2.2531: real time      2.2541
    CHARGE:  cpu time      0.1309: real time      0.1312
    --------------------------------------------
      LOOP:  cpu time      5.9124: real time      5.9306

 eigenvalue-minimisations  :     0
 total energy-change (2. order) :-0.9066232E+00  (-0.3161131E+00)
 number of electron     208.0000002 magnetization 
 augmentation part       -0.5142397 magnetization 

 Free energy of the ion-electron system (eV)
  ---------------------------------------------------
  alpha Z        PSCENC =       191.88443493
  Ewald energy   TEWEN  =     -3572.32588850
  -Hartree energ DENC   =     -4331.15108533
  -exchange      EXHF   =         0.00000000
  -V(xc)+E(xc)   XCENC  =       535.49955228
  PAW double counting   =     82442.04309909   -82283.78690658
  entropy T*S    EENTRO =        -0.00000000
  eigenvalues    EBANDS =     -1637.58691957
  atomic energy  EATOM  =      8249.91383050
  ---------------------------------------------------
  free energy    TOTEN  =      -405.50988317 eV

  energy without entropy =     -405.50988317  energy(sigma->0) =     -405.50988317


--------------------------------------------------------------------------------------------------------




--------------------------------------- Iteration      1(  10)  ---------------------------------------


    POTLOK:  cpu time      1.2509: real time      1.2512
    SETDIJ:  cpu time      0.0675: real time      0.0675
    TRIAL :  cpu time      2.1900: real time      2.1909
    CORREC:  cpu time      2.2493: real time      2.2502
    CHARGE:  cpu time      0.1309: real time      0.1309
    --------------------------------------------
      LOOP:  cpu time      5.9026: real time      5.9205

 eigenvalue-minimisations  :     0
 total energy-change (2. order) :-0.3141478E+00  (-0.8056853E-01)
 number of electron     208.0000002 magnetization 
 augmentation part       -0.5129423 magnetization 

 Free energy of the ion-electron system (eV)
  ---------------------------------------------------
  alpha Z        PSCENC =       191.88443493
  Ewald energy   TEWEN  =     -3572.32588850
  -Hartree energ DENC   =     -4325.80374529
  -exchange      EXHF   =         0.00000000
  -V(xc)+E(xc)   XCENC  =       535.13898164
  PAW double counting   =     80672.28803204   -80514.06595666
  entropy T*S    EENTRO =        -0.00000000
  eigenvalues    EBANDS =     -1642.85371964
  atomic energy  EATOM  =      8249.91383050
  ---------------------------------------------------
  free energy    TOTEN  =      -405.82403097 eV

  energy without entropy =     -405.82403097  energy(sigma->0) =     -405.82403097


--------------------------------------------------------------------------------------------------------




--------------------------------------- Iteration      1(  11)  ---------------------------------------


    POTLOK:  cpu time      1.3402: real time      1.3409
    SETDIJ:  cpu time      0.0674: real time      0.0674
    TRIAL :  cpu time      2.2132: real time      2.2143
    CORREC:  cpu time      2.2807: real time      2.2817
    CHARGE:  cpu time      0.1309: real time      0.1312
    --------------------------------------------
      LOOP:  cpu time      6.0450: real time      6.0934

 eigenvalue-minimisations  :     0
 total energy-change (2. order) :-0.8044879E-01  (-0.1737523E-01)
 number of electron     208.0000002 magnetization 
 augmentation part       -0.5130888 magnetization 

 Free energy of the ion-electron system (eV)
  ---------------------------------------------------
  alpha Z        PSCENC =       191.88443493
  Ewald energy   TEWEN  =     -3572.32588850
  -Hartree energ DENC   =     -4326.02426490
  -exchange      EXHF   =         0.00000000
  -V(xc)+E(xc)   XCENC  =       535.09370650
  PAW double counting   =     79489.22155608   -79331.07259866
  entropy T*S    EENTRO =        -0.00000000
  eigenvalues    EBANDS =     -1642.59525572
  atomic energy  EATOM  =      8249.91383050
  ---------------------------------------------------
  free energy    TOTEN  =      -405.90447976 eV

  energy without entropy =     -405.90447976  energy(sigma->0) =     -405.90447976


--------------------------------------------------------------------------------------------------------




--------------------------------------- Iteration      1(  12)  ---------------------------------------


    POTLOK:  cpu time      1.2529: real time      1.2532
    SETDIJ:  cpu time      0.0675: real time      0.0675
    TRIAL :  cpu time      2.1956: real time      2.1965
    CORREC:  cpu time      2.2482: real time      2.2491
    CHARGE:  cpu time      0.1307: real time      0.1307
    --------------------------------------------
      LOOP:  cpu time      5.9082: real time      5.9267

 eigenvalue-minimisations  :     0
 total energy-change (2. order) :-0.1736569E-01  (-0.4052736E-02)
 number of electron     208.0000002 magnetization 
 augmentation part       -0.5129634 magnetization 

 Free energy of the ion-electron system (eV)
  ---------------------------------------------------
  alpha Z        PSCENC =       191.88443493
  Ewald energy   TEWEN  =     -3572.32588850
  -Hartree energ DENC   =     -4323.68628834
  -exchange      EXHF   =         0.00000000
  -V(xc)+E(xc)   XCENC  =       534.95109800
  PAW double counting   =     79360.59408399   -79202.45408146
  entropy T*S    EENTRO =        -0.00000000
  eigenvalues    EBANDS =     -1644.79903459
  atomic energy  EATOM  =      8249.91383050
  ---------------------------------------------------
  free energy    TOTEN  =      -405.92184546 eV

  energy without entropy =     -405.92184546  energy(sigma->0) =     -405.92184546


--------------------------------------------------------------------------------------------------------




--------------------------------------- Iteration      1(  13)  ---------------------------------------


    POTLOK:  cpu time      1.2505: real time      1.2511
    SETDIJ:  cpu time      0.0681: real time      0.0681
    TRIAL :  cpu time      2.1905: real time      2.1913
    CORREC:  cpu time      2.2434: real time      2.2444
    CHARGE:  cpu time      0.1309: real time      0.1309
    --------------------------------------------
      LOOP:  cpu time      5.8956: real time      5.9143

 eigenvalue-minimisations  :     0
 total energy-change (2. order) :-0.4050970E-02  (-0.1083647E-02)
 number of electron     208.0000002 magnetization 
 augmentation part       -0.5132088 magnetization 

 Free energy of the ion-electron system (eV)
  ---------------------------------------------------
  alpha Z        PSCENC =       191.88443493
  Ewald energy   TEWEN  =     -3572.32588850
  -Hartree energ DENC   =     -4324.54180651
  -exchange      EXHF   =         0.00000000
  -V(xc)+E(xc)   XCENC  =       534.96729627
  PAW double counting   =     79425.58239523   -79267.45014157
  entropy T*S    EENTRO =        -0.00000000
  eigenvalues    EBANDS =     -1643.95601678
  atomic energy  EATOM  =      8249.91383050
  ---------------------------------------------------
  free energy    TOTEN  =      -405.92589643 eV

  energy without entropy =     -405.92589643  energy(sigma->0) =     -405.92589643


--------------------------------------------------------------------------------------------------------




--------------------------------------- Iteration      1(  14)  ---------------------------------------


    POTLOK:  cpu time      1.3363: real time      1.3369
    SETDIJ:  cpu time      0.0674: real time      0.0674
    TRIAL :  cpu time      2.2255: real time      2.2263
    CORREC:  cpu time      2.2413: real time      2.2423
    CHARGE:  cpu time      0.1311: real time      0.1311
    --------------------------------------------
      LOOP:  cpu time      6.0145: real time      6.0331

 eigenvalue-minimisations  :     0
 total energy-change (2. order) :-0.1083524E-02  (-0.3247446E-03)
 number of electron     208.0000002 magnetization 
 augmentation part       -0.5130144 magnetization 

 Free energy of the ion-electron system (eV)
  ---------------------------------------------------
  alpha Z        PSCENC =       191.88443493
  Ewald energy   TEWEN  =     -3572.32588850
  -Hartree energ DENC   =     -4324.42347999
  -exchange      EXHF   =         0.00000000
  -V(xc)+E(xc)   XCENC  =       534.96200843
  PAW double counting   =     79507.09292049   -79348.95872489
  entropy T*S    EENTRO =        -0.00000000
  eigenvalues    EBANDS =     -1644.07208093
  atomic energy  EATOM  =      8249.91383050
  ---------------------------------------------------
  free energy    TOTEN  =      -405.92697995 eV

  energy without entropy =     -405.92697995  energy(sigma->0) =     -405.92697995


--------------------------------------------------------------------------------------------------------




--------------------------------------- Iteration      1(  15)  ---------------------------------------


    POTLOK:  cpu time      1.2558: real time      1.2563
    SETDIJ:  cpu time      0.0675: real time      0.0675
    TRIAL :  cpu time      2.1917: real time      2.1925
    CORREC:  cpu time      2.2492: real time      2.2503
    CHARGE:  cpu time      0.1313: real time      0.1313
    --------------------------------------------
      LOOP:  cpu time      5.9090: real time      5.9266

 eigenvalue-minimisations  :     0
 total energy-change (2. order) :-0.3255772E-03  (-0.9744902E-04)
 number of electron     208.0000002 magnetization 
 augmentation part       -0.5128304 magnetization 

 Free energy of the ion-electron system (eV)
  ---------------------------------------------------
  alpha Z        PSCENC =       191.88443493
  Ewald energy   TEWEN  =     -3572.32588850
  -Hartree energ DENC   =     -4324.72807935
  -exchange      EXHF   =         0.00000000
  -V(xc)+E(xc)   XCENC  =       534.97654801
  PAW double counting   =     79517.24487422   -79359.11141899
  entropy T*S    EENTRO =        -0.00000000
  eigenvalues    EBANDS =     -1643.78160635
  atomic energy  EATOM  =      8249.91383050
  ---------------------------------------------------
  free energy    TOTEN  =      -405.92730553 eV

  energy without entropy =     -405.92730553  energy(sigma->0) =     -405.92730553


--------------------------------------------------------------------------------------------------------




--------------------------------------- Iteration      1(  16)  ---------------------------------------


    POTLOK:  cpu time      1.2545: real time      1.2550
    SETDIJ:  cpu time      0.0674: real time      0.0674
    TRIAL :  cpu time      2.1927: real time      2.1936
    CORREC:  cpu time      2.2472: real time      2.2481
    CHARGE:  cpu time      0.1340: real time      0.1340
    --------------------------------------------
      LOOP:  cpu time      5.9101: real time      5.9281

 eigenvalue-minimisations  :     0
 total energy-change (2. order) :-0.9882449E-04  (-0.3045772E-04)
 number of electron     208.0000002 magnetization 
 augmentation part       -0.5127935 magnetization 

 Free energy of the ion-electron system (eV)
  ---------------------------------------------------
  alpha Z        PSCENC =       191.88443493
  Ewald energy   TEWEN  =     -3572.32588850
  -Hartree energ DENC   =     -4324.72004626
  -exchange      EXHF   =         0.00000000
  -V(xc)+E(xc)   XCENC  =       534.97580387
  PAW double counting   =     79512.67805540   -79354.54393247
  entropy T*S    EENTRO =        -0.00000000
  eigenvalues    EBANDS =     -1643.78966182
  atomic energy  EATOM  =      8249.91383050
  ---------------------------------------------------
  free energy    TOTEN  =      -405.92740435 eV

  energy without entropy =     -405.92740435  energy(sigma->0) =     -405.92740435


--------------------------------------------------------------------------------------------------------




--------------------------------------- Iteration      1(  17)  ---------------------------------------


    POTLOK:  cpu time      1.3120: real time      1.3126
    SETDIJ:  cpu time      0.0675: real time      0.0675
    TRIAL :  cpu time      2.2230: real time      2.2238
    CORREC:  cpu time      2.2395: real time      2.2407
    CHARGE:  cpu time      0.1309: real time      0.1309
    --------------------------------------------
      LOOP:  cpu time      5.9860: real time      6.0050

 eigenvalue-minimisations  :     0
 total energy-change (2. order) :-0.3046684E-04  (-0.9866472E-05)
 number of electron     208.0000002 magnetization 
 augmentation part       -0.5127998 magnetization 

 Free energy of the ion-electron system (eV)
  ---------------------------------------------------
  alpha Z        PSCENC =       191.88443493
  Ewald energy   TEWEN  =     -3572.32588850
  -Hartree energ DENC   =     -4324.75912074
  -exchange      EXHF   =         0.00000000
  -V(xc)+E(xc)   XCENC  =       534.97909441
  PAW double counting   =     79512.15040166   -79354.01630490
  entropy T*S    EENTRO =        -0.00000000
  eigenvalues    EBANDS =     -1643.75388218
  atomic energy  EATOM  =      8249.91383050
  ---------------------------------------------------
  free energy    TOTEN  =      -405.92743482 eV

  energy without entropy =     -405.92743482  energy(sigma->0) =     -405.92743482


--------------------------------------------------------------------------------------------------------




--------------------------------------- Iteration      1(  18)  ---------------------------------------


    POTLOK:  cpu time      1.2526: real time      1.2531
    SETDIJ:  cpu time      0.0675: real time      0.0675
    TRIAL :  cpu time      2.1883: real time      2.1892
    CORREC:  cpu time      2.5000: real time      2.5011
    CHARGE:  cpu time      0.1742: real time      0.1742
    --------------------------------------------
      LOOP:  cpu time      6.2125: real time      6.2152

 eigenvalue-minimisations  :     0
 total energy-change (2. order) :-0.9734402E-05  (-0.3327031E-05)
 number of electron     208.0000002 magnetization 
 augmentation part       -0.5128307 magnetization 

 Free energy of the ion-electron system (eV)
  ---------------------------------------------------
  alpha Z        PSCENC =       191.88443493
  Ewald energy   TEWEN  =     -3572.32588850
  -Hartree energ DENC   =     -4324.78348755
  -exchange      EXHF   =         0.00000000
  -V(xc)+E(xc)   XCENC  =       534.98024574
  PAW double counting   =     79514.58547070   -79356.45146748
  entropy T*S    EENTRO =        -0.00000000
  eigenvalues    EBANDS =     -1643.73058290
  atomic energy  EATOM  =      8249.91383050
  ---------------------------------------------------
  free energy    TOTEN  =      -405.92744455 eV

  energy without entropy =     -405.92744455  energy(sigma->0) =     -405.92744455


--------------------------------------------------------------------------------------------------------




--------------------------------------- Iteration      1(  19)  ---------------------------------------


    POTLOK:  cpu time      1.3106: real time      1.3113
    SETDIJ:  cpu time      0.0674: real time      0.0674
    TRIAL :  cpu time      2.1878: real time      2.1892
    CORREC:  cpu time      2.2651: real time      2.2662
    CHARGE:  cpu time      0.1308: real time      0.1308
    --------------------------------------------
      LOOP:  cpu time      5.9779: real time      5.9947

 eigenvalue-minimisations  :     0
 total energy-change (2. order) :-0.3277091E-05  (-0.1202700E-05)
 number of electron     208.0000002 magnetization 
 augmentation part       -0.5128199 magnetization 

 Free energy of the ion-electron system (eV)
  ---------------------------------------------------
  alpha Z        PSCENC =       191.88443493
  Ewald energy   TEWEN  =     -3572.32588850
  -Hartree energ DENC   =     -4324.73834591
  -exchange      EXHF   =         0.00000000
  -V(xc)+E(xc)   XCENC  =       534.97840258
  PAW double counting   =     79516.93079192   -79358.79655215
  entropy T*S    EENTRO =        -0.00000000
  eigenvalues    EBANDS =     -1643.77412120
  atomic energy  EATOM  =      8249.91383050
  ---------------------------------------------------
  free energy    TOTEN  =      -405.92744783 eV

  energy without entropy =     -405.92744783  energy(sigma->0) =     -405.92744783


--------------------------------------------------------------------------------------------------------




--------------------------------------- Iteration      1(  20)  ---------------------------------------


    POTLOK:  cpu time      1.2547: real time      1.2557
    SETDIJ:  cpu time      0.0675: real time      0.0675
    TRIAL :  cpu time      2.2120: real time      2.2130
    CORREC:  cpu time      2.2498: real time      2.2509
    CHARGE:  cpu time      0.1307: real time      0.1307
    --------------------------------------------
      LOOP:  cpu time      5.9267: real time      5.9479

 eigenvalue-minimisations  :     0
 total energy-change (2. order) :-0.1125212E-05  (-0.2955374E-06)
 number of electron     208.0000002 magnetization 
 augmentation part       -0.5128298 magnetization 

 Free energy of the ion-electron system (eV)
  ---------------------------------------------------
  alpha Z        PSCENC =       191.88443493
  Ewald energy   TEWEN  =     -3572.32588850
  -Hartree energ DENC   =     -4324.76663509
  -exchange      EXHF   =         0.00000000
  -V(xc)+E(xc)   XCENC  =       534.97964162
  PAW double counting   =     79515.30358213   -79357.16960081
  entropy T*S    EENTRO =        -0.00000000
  eigenvalues    EBANDS =     -1643.74681375
  atomic energy  EATOM  =      8249.91383050
  ---------------------------------------------------
  free energy    TOTEN  =      -405.92744896 eV

  energy without entropy =     -405.92744896  energy(sigma->0) =     -405.92744896


--------------------------------------------------------------------------------------------------------




--------------------------------------- Iteration      1(  21)  ---------------------------------------


    POTLOK:  cpu time      1.2523: real time      1.2530
    SETDIJ:  cpu time      0.0674: real time      0.0675
    TRIAL :  cpu time      2.1907: real time      2.1916
    CORREC:  cpu time      2.2428: real time      2.2440
    CHARGE:  cpu time      0.1364: real time      0.1364
    --------------------------------------------
      LOOP:  cpu time      5.9033: real time      5.9213

 eigenvalue-minimisations  :     0
 total energy-change (2. order) :-0.3008172E-06  (-0.1313661E-06)
 number of electron     208.0000002 magnetization 
 augmentation part       -0.5128329 magnetization 

 Free energy of the ion-electron system (eV)
[...]
     96      -1.2877      2.00000
     97      -1.1132      2.00000
     98      -1.0905      2.00000
     99      -1.0685      2.00000
    100      -1.0438      2.00000
    101      -0.9211      2.00000
    102      -0.9048      2.00000
    103      -0.8974      2.00000
    104      -0.8775      2.00000
    105       4.1184      0.00000
    106       4.1851      0.00000
    107       4.1939      0.00000
    108       4.2183      0.00000
    109       4.3347      0.00000
    110       4.4077      0.00000
    111       4.4222      0.00000
    112       4.4267      0.00000
    113       5.2051      0.00000
    114       5.2214      0.00000
    115       5.2280      0.00000
    116       5.3480      0.00000
    117       5.6256      0.00000
    118       5.7228      0.00000
    119       5.7489      0.00000
    120       5.7794      0.00000
    121       6.2327      0.00000
    122       6.2458      0.00000
    123       6.3506      0.00000
    124       6.4343      0.00000
    125       6.7442      0.00000
    126       6.7576      0.00000
    127       7.0003      0.00000
    128       7.0128      0.00000
    129       7.1682      0.00000
    130       7.2231      0.00000
    131       7.2407      0.00000
    132       7.2548      0.00000
    133       7.4782      0.00000
    134       7.5364      0.00000
    135       7.6197      0.00000
    136       7.6305      0.00000
    137       7.8982      0.00000
    138       7.9598      0.00000
    139       7.9982      0.00000
    140       8.1257      0.00000
    141       8.4311      0.00000
    142       8.4753      0.00000
    143       8.5573      0.00000
    144       9.0385      0.00000


--------------------------------------------------------------------------------------------------------


 soft charge-density along one line, spin component           1
         0         1         2         3         4         5         6         7         8         9
 total charge-density along one line

 pseudopotential strength for first ion, spin component:           1
 12.544  21.106   0.003  -0.000  -0.008   0.005  -0.001  -0.014
 21.106  35.512   0.005  -0.001  -0.013   0.008  -0.001  -0.023
  0.003   0.005  -3.131   0.003   0.000  -5.607   0.005   0.000
 -0.000  -0.001   0.003  -3.133   0.001   0.005  -5.610   0.002
 -0.008  -0.013   0.000   0.001  -3.132   0.000   0.002  -5.609
  0.005   0.008  -5.607   0.005   0.000 -10.018   0.009   0.000
 -0.001  -0.001   0.005  -5.610   0.002   0.009 -10.023   0.004
 -0.014  -0.023   0.000   0.002  -5.609   0.000   0.004 -10.022
 total augmentation occupancy for first ion, spin component:           1
  7.389  -2.553   0.974   0.392  -0.929  -0.454  -0.175   0.454
 -2.553   0.936  -0.489  -0.182   0.514   0.221   0.080  -0.236
  0.974  -0.489   5.560   1.624  -0.733  -1.754  -0.627   0.322
  0.392  -0.182   1.624   4.378   0.826  -0.627  -1.284  -0.333
 -0.929   0.514  -0.733   0.826   6.912   0.322  -0.333  -2.384
 -0.454   0.221  -1.754  -0.627   0.322   0.571   0.230  -0.134
 -0.175   0.080  -0.627  -1.284  -0.333   0.230   0.393   0.127
  0.454  -0.236   0.322  -0.333  -2.384  -0.134   0.127   0.844


------------------------ aborting loop because EDIFF is reached ----------------------------------------


    FORLOC:  cpu time      0.0109: real time      0.0109
    FORNL :  cpu time      2.1126: real time      2.1139
    FORCOR:  cpu time      1.3252: real time      1.3264
    OFIELD:  cpu time      0.0020: real time      0.0023

 VOLUME and BASIS-vectors are now :
 -----------------------------------------------------------------------------
  energy-cutoff  :     1000.00
  volume of cell :      698.27
      direct lattice vectors                 reciprocal lattice vectors
     8.190000000  0.000000000  0.000000000     0.122100122  0.000000000  0.000000000
     0.000000000 12.588000000  0.000000000     0.000000000  0.079440737  0.000000000
     0.000000000  0.000000000  6.773000000     0.000000000  0.000000000  0.147645061

  length of vectors
     8.190000000 12.588000000  6.773000000     0.122100122  0.079440737  0.147645061


 FORCES acting on ions:
    Electron-Ion                     Ewald-Force                    Non-Local-Force
 -----------------------------------------------------------------------------------------------
   -.811E+02 0.130E+03 0.656E+02   0.855E+02 -.131E+03 -.652E+02   -.443E+01 0.116E+01 -.455E+00
   -.811E+02 -.130E+03 -.656E+02   0.855E+02 0.131E+03 0.652E+02   -.443E+01 -.116E+01 0.455E+00
   -.811E+02 -.130E+03 0.656E+02   0.855E+02 0.131E+03 -.652E+02   -.443E+01 -.116E+01 -.455E+00
   -.811E+02 0.130E+03 -.656E+02   0.855E+02 -.131E+03 0.652E+02   -.443E+01 0.116E+01 0.455E+00
   -.147E+03 0.209E+02 -.274E+02   0.148E+03 -.214E+02 0.273E+02   -.102E+01 0.445E+00 0.137E+00
   -.147E+03 -.209E+02 0.274E+02   0.148E+03 0.214E+02 -.273E+02   -.102E+01 -.445E+00 -.138E+00
   -.147E+03 -.209E+02 -.274E+02   0.148E+03 0.214E+02 0.273E+02   -.102E+01 -.445E+00 0.137E+00
   -.147E+03 0.209E+02 0.274E+02   0.148E+03 -.214E+02 -.273E+02   -.102E+01 0.445E+00 -.137E+00
   -.810E+02 -.983E+02 -.955E+02   0.885E+02 0.987E+02 0.979E+02   -.760E+01 -.268E+00 -.234E+01
   -.810E+02 0.983E+02 0.955E+02   0.885E+02 -.987E+02 -.979E+02   -.760E+01 0.269E+00 0.234E+01
   -.810E+02 0.983E+02 -.955E+02   0.885E+02 -.987E+02 0.979E+02   -.760E+01 0.268E+00 -.234E+01
   -.810E+02 -.983E+02 0.955E+02   0.885E+02 0.987E+02 -.979E+02   -.760E+01 -.268E+00 0.234E+01
   0.779E+02 -.863E+02 0.108E+03   -.822E+02 0.865E+02 -.110E+03   0.438E+01 -.805E-01 0.160E+01
   0.779E+02 0.863E+02 -.108E+03   -.823E+02 -.865E+02 0.110E+03   0.438E+01 0.809E-01 -.160E+01
   0.779E+02 0.863E+02 0.108E+03   -.823E+02 -.865E+02 -.110E+03   0.438E+01 0.806E-01 0.160E+01
   0.779E+02 -.863E+02 -.108E+03   -.822E+02 0.865E+02 0.110E+03   0.438E+01 -.807E-01 -.160E+01
   0.143E+03 0.184E+02 0.380E+02   -.144E+03 -.182E+02 -.385E+02   0.674E+00 -.309E+00 0.422E+00
   0.143E+03 -.184E+02 -.380E+02   -.144E+03 0.182E+02 0.385E+02   0.674E+00 0.308E+00 -.422E+00
   0.143E+03 -.184E+02 0.380E+02   -.144E+03 0.182E+02 -.385E+02   0.674E+00 0.308E+00 0.422E+00
   0.143E+03 0.184E+02 -.380E+02   -.144E+03 -.182E+02 0.385E+02   0.674E+00 -.309E+00 -.422E+00
   0.813E+02 0.122E+03 -.668E+02   -.888E+02 -.125E+03 0.660E+02   0.763E+01 0.209E+01 0.920E+00
   0.813E+02 -.122E+03 0.668E+02   -.888E+02 0.125E+03 -.660E+02   0.763E+01 -.209E+01 -.920E+00
   0.813E+02 -.122E+03 -.668E+02   -.888E+02 0.125E+03 0.660E+02   0.763E+01 -.209E+01 0.920E+00
   0.813E+02 0.122E+03 0.668E+02   -.888E+02 -.125E+03 -.660E+02   0.763E+01 0.209E+01 -.920E+00
   0.410E+02 -.310E+02 -.652E+01   -.465E+02 0.350E+02 0.698E+01   0.549E+01 -.404E+01 -.459E+00
   0.410E+02 0.310E+02 0.652E+01   -.465E+02 -.350E+02 -.697E+01   0.549E+01 0.404E+01 0.459E+00
   0.410E+02 0.310E+02 -.652E+01   -.465E+02 -.350E+02 0.697E+01   0.549E+01 0.404E+01 -.459E+00
   0.410E+02 -.310E+02 0.652E+01   -.465E+02 0.350E+02 -.697E+01   0.549E+01 -.404E+01 0.459E+00
   -.190E+02 -.336E+02 -.229E+02   0.203E+02 0.383E+02 0.265E+02   -.127E+01 -.470E+01 -.370E+01
   -.190E+02 0.336E+02 0.229E+02   0.203E+02 -.383E+02 -.265E+02   -.127E+01 0.470E+01 0.370E+01
   -.190E+02 0.336E+02 -.229E+02   0.203E+02 -.383E+02 0.265E+02   -.127E+01 0.470E+01 -.370E+01
   -.190E+02 -.336E+02 0.229E+02   0.203E+02 0.383E+02 -.265E+02   -.127E+01 -.470E+01 0.370E+01
   -.485E+02 0.402E+01 -.979E+01   0.543E+02 -.502E+01 0.111E+02   -.580E+01 0.100E+01 -.128E+01
   -.485E+02 -.402E+01 0.979E+01   0.543E+02 0.502E+01 -.111E+02   -.580E+01 -.100E+01 0.128E+01
   -.485E+02 -.402E+01 -.979E+01   0.543E+02 0.502E+01 0.111E+02   -.580E+01 -.100E+01 -.128E+01
   -.485E+02 0.402E+01 0.979E+01   0.543E+02 -.502E+01 -.111E+02   -.580E+01 0.100E+01 0.128E+01
   -.155E+02 0.424E+02 0.222E+02   0.168E+02 -.474E+02 -.253E+02   -.127E+01 0.499E+01 0.312E+01
   -.155E+02 -.424E+02 -.222E+02   0.168E+02 0.474E+02 0.253E+02   -.127E+01 -.499E+01 -.312E+01
   -.155E+02 -.424E+02 0.222E+02   0.168E+02 0.474E+02 -.253E+02   -.127E+01 -.499E+01 0.312E+01
   -.155E+02 0.424E+02 -.222E+02   0.168E+02 -.474E+02 0.253E+02   -.127E+01 0.499E+01 -.312E+01
   -.395E+02 0.201E+02 -.313E+02   0.450E+02 -.214E+02 0.354E+02   -.550E+01 0.130E+01 -.406E+01
   -.395E+02 -.201E+02 0.313E+02   0.450E+02 0.214E+02 -.354E+02   -.550E+01 -.130E+01 0.406E+01
   -.395E+02 -.201E+02 -.313E+02   0.450E+02 0.214E+02 0.354E+02   -.550E+01 -.130E+01 -.406E+01
   -.395E+02 0.201E+02 0.313E+02   0.450E+02 -.214E+02 -.354E+02   -.550E+01 0.130E+01 0.406E+01
   0.178E+02 0.376E+02 -.212E+02   -.192E+02 -.424E+02 0.248E+02   0.142E+01 0.476E+01 -.353E+01
   0.178E+02 -.376E+02 0.212E+02   -.192E+02 0.424E+02 -.248E+02   0.142E+01 -.476E+01 0.353E+01
   0.178E+02 -.376E+02 -.212E+02   -.192E+02 0.424E+02 0.248E+02   0.142E+01 -.476E+01 -.353E+01
   0.178E+02 0.376E+02 0.212E+02   -.192E+02 -.424E+02 -.248E+02   0.142E+01 0.476E+01 0.353E+01
   0.472E+02 0.415E+01 0.109E+02   -.530E+02 -.510E+01 -.124E+02   0.573E+01 0.948E+00 0.149E+01
   0.472E+02 -.415E+01 -.109E+02   -.530E+02 0.510E+01 0.124E+02   0.573E+01 -.948E+00 -.149E+01
   0.472E+02 -.415E+01 0.109E+02   -.530E+02 0.510E+01 -.124E+02   0.573E+01 -.947E+00 0.149E+01
   0.472E+02 0.415E+01 -.109E+02   -.530E+02 -.510E+01 0.124E+02   0.573E+01 0.948E+00 -.149E+01
   0.176E+02 -.287E+02 0.286E+02   -.187E+02 0.330E+02 -.327E+02   0.111E+01 -.428E+01 0.416E+01
   0.176E+02 0.287E+02 -.286E+02   -.187E+02 -.330E+02 0.327E+02   0.111E+01 0.428E+01 -.416E+01
   0.176E+02 0.287E+02 0.286E+02   -.187E+02 -.330E+02 -.327E+02   0.111E+01 0.428E+01 0.416E+01
   0.176E+02 -.287E+02 -.285E+02   -.187E+02 0.330E+02 0.327E+02   0.111E+01 -.428E+01 -.416E+01
   0.108E+03 -.103E+03 -.567E+02   -.113E+03 0.110E+03 0.617E+02   0.520E+01 -.739E+01 -.503E+01
   0.108E+03 0.103E+03 0.567E+02   -.113E+03 -.110E+03 -.617E+02   0.520E+01 0.739E+01 0.503E+01
   0.108E+03 0.103E+03 -.567E+02   -.113E+03 -.110E+03 0.617E+02   0.520E+01 0.739E+01 -.503E+01
   0.108E+03 -.103E+03 0.567E+02   -.113E+03 0.110E+03 -.617E+02   0.520E+01 -.739E+01 0.503E+01
   0.127E+03 0.101E+03 0.982E+02   -.153E+03 -.117E+03 -.119E+03   0.262E+02 0.170E+02 0.214E+02
   0.127E+03 -.101E+03 -.982E+02   -.153E+03 0.117E+03 0.119E+03   0.262E+02 -.170E+02 -.214E+02
   0.127E+03 -.101E+03 0.982E+02   -.153E+03 0.117E+03 -.119E+03   0.262E+02 -.170E+02 0.214E+02
   0.127E+03 0.101E+03 -.982E+02   -.153E+03 -.117E+03 0.119E+03   0.262E+02 0.170E+02 -.214E+02
   -.962E+02 0.854E+02 -.899E+02   0.101E+03 -.920E+02 0.960E+02   -.451E+01 0.667E+01 -.604E+01
   -.962E+02 -.854E+02 0.899E+02   0.101E+03 0.920E+02 -.960E+02   -.451E+01 -.667E+01 0.604E+01
   -.962E+02 -.854E+02 -.899E+02   0.101E+03 0.920E+02 0.960E+02   -.451E+01 -.667E+01 -.604E+01
   -.962E+02 0.854E+02 0.899E+02   0.101E+03 -.920E+02 -.960E+02   -.451E+01 0.667E+01 0.604E+01
   -.132E+03 -.113E+03 0.639E+02   0.159E+03 0.137E+03 -.739E+02   -.267E+02 -.243E+02 0.101E+02
   -.132E+03 0.113E+03 -.639E+02   0.159E+03 -.137E+03 0.739E+02   -.267E+02 0.243E+02 -.101E+02
   -.132E+03 0.113E+03 0.639E+02   0.159E+03 -.137E+03 -.739E+02   -.267E+02 0.243E+02 0.101E+02
   -.132E+03 -.113E+03 -.639E+02   0.159E+03 0.137E+03 0.739E+02   -.267E+02 -.243E+02 -.101E+02
 -----------------------------------------------------------------------------------------------
   0.829E+00 -.313E-03 0.518E-03   -.796E-12 0.114E-12 0.142E-13   -.828E+00 0.292E-03 -.466E-03


 POSITION                                       TOTAL-FORCE (eV/Angst)
 -----------------------------------------------------------------------------------
      2.37238      0.70669      2.61976         0.050261     -0.083355     -0.041338
      6.46740     11.88136      4.15317         0.049944      0.083554      0.041625
      2.37238      5.58729      6.00627         0.050564      0.083380     -0.041250
      6.46741      7.00068      0.76671         0.050124     -0.083408      0.041476
      3.21048      1.47171      3.45258         0.116865     -0.016897      0.019884
      7.30548     11.11630      3.32039         0.117653      0.016860     -0.020257
      3.21048      4.82227      0.06610         0.116266      0.016999      0.019635
      7.30549      7.76571      6.70689         0.117038     -0.016817     -0.020068
      2.40362      2.50055      3.92012         0.043909      0.096292      0.078977
      6.49860     10.08747      2.85284         0.044196     -0.095841     -0.078602
      2.40359      3.79345      0.53365         0.044072     -0.096440      0.079090
      6.49862      8.79454      6.23934         0.043820      0.095993     -0.078654
      5.84192      2.35717      6.27864        -0.045055      0.065045     -0.080069
      1.74697     10.23080      0.49432        -0.045857     -0.064553      0.080111
      5.84198      3.93684      2.89217        -0.046182     -0.065085     -0.080605
      1.74695      8.65119      3.88084        -0.045313      0.064880      0.080080
      4.97071      1.37376      0.00735        -0.115891     -0.013999     -0.034704
      0.87576     11.21424      6.76563        -0.116031      0.013799      0.034846
      4.97073      4.92024      3.39386        -0.115839      0.014024     -0.034555
      0.87574      7.66777      3.37914        -0.116067     -0.014057      0.034704
      5.72639      0.66429      0.93058        -0.045659     -0.101582      0.060796
      1.63143     11.92369      5.84238        -0.045474      0.101283     -0.060551
      5.72639      5.62972      4.31712        -0.045595      0.101160      0.060366
      1.63141      6.95830      2.45589        -0.045431     -0.101142     -0.060490
      0.33388      2.93713      3.45397         0.033027     -0.023888     -0.003306
      4.42886      9.65095      3.31900         0.033015      0.023894      0.003274
      0.33386      3.35689      0.06748         0.032683      0.023611     -0.003230
      4.42888      9.23109      6.70551         0.033048     -0.023925      0.003288
      2.61802      3.33653      4.57459         0.003486     -0.000799     -0.007443
      6.71300      9.25150      2.19840         0.003549      0.000438      0.007179
      2.61800      2.95748      1.18812         0.003501      0.000721     -0.007390
      6.71302      9.63051      5.58488         0.003552     -0.000586      0.007264
      4.25277      1.29729      3.68355         0.014320      0.004341      0.001419
      0.15778     11.29070      3.08944         0.014056     -0.004402     -0.001396
      4.25276      4.99669      0.29706         0.014714     -0.004325      0.001543
      0.15778      7.59130      6.47592         0.014454      0.004328     -0.001452
      2.60117     12.39469      2.05639         0.009047     -0.016724     -0.004911
      6.69619      0.19337      4.71653         0.009089      0.016549      0.004768
      2.60118      6.48728      5.44289         0.009037      0.016690     -0.004865
      6.69621      6.10068      1.33007         0.009114     -0.016762      0.004911
      7.78137      1.02588      1.55640        -0.033962      0.004139     -0.024810
      3.68641     11.56211      5.21655        -0.034294     -0.004299      0.025115
      7.78139      5.26818      4.94293        -0.034415     -0.004479     -0.025209
      3.68639      7.31988      1.83007        -0.034172      0.004275      0.025029
      5.48107     12.40663      1.56174        -0.008829     -0.009155     -0.000530
      1.38612      0.18137      5.21124        -0.008833      0.009178      0.000436
      5.48104      6.47537      4.94826        -0.008816      0.009230     -0.000422
      1.38609      6.11264      1.82475        -0.008835     -0.009245      0.000428
      3.93716      1.20228      6.51128        -0.013774     -0.000045     -0.001421
      8.03222     11.38573      0.26172        -0.013652     -0.000029      0.001406
      3.93719      5.09168      3.12478        -0.013913      0.000074     -0.001471
      8.03220      7.49629      3.64823        -0.013669      0.000003      0.001380
      5.64638      3.12300      5.53699        -0.003780     -0.002641      0.000346
      1.55142      9.46499      1.23598        -0.003747      0.002455     -0.000190
      5.64646      3.17100      2.15052        -0.003848      0.002645      0.000280
      1.55142      9.41702      4.62248        -0.003815     -0.002541     -0.000226
      1.17468      2.31770      3.38132        -0.107813      0.060848      0.014656
      5.26967     10.27037      3.39163        -0.108217     -0.060758     -0.014514
      1.17466      3.97630      6.76785        -0.107267     -0.060067      0.014269
      5.26969      8.61167      0.00515        -0.107893      0.060709     -0.014502
      1.13307      1.22732      2.57208        -0.108649     -0.030034     -0.054459
      5.22807     11.36077      4.20083        -0.108764      0.029859      0.054534
      1.13307      5.06668      5.95860        -0.109010      0.029780     -0.054411
      5.22810      7.52128      0.81439        -0.108817     -0.029800      0.054322
      6.96010      1.22529      0.94518         0.096569     -0.026033      0.057920
      2.86512     11.36266      5.82777         0.097128      0.026644     -0.058494
      6.96010      5.06872      4.33171         0.097071      0.026808      0.058691
      2.86511      7.51932      2.44129         0.096829     -0.026556     -0.058370
      7.05385      2.26635      0.07942         0.115872      0.056389     -0.022688
      2.95888     10.32161      6.69353         0.116253     -0.056549      0.022445
      7.05387      4.02768      3.46594         0.117017     -0.056544     -0.022217
      2.95887      8.56038      3.30705         0.116034      0.056485      0.022576
 -----------------------------------------------------------------------------------
    total drift:                                0.000298     -0.000021      0.000052


--------------------------------------------------------------------------------------------------------



  FREE ENERGIE OF THE ION-ELECTRON SYSTEM (eV)
  ---------------------------------------------------
  free  energy   TOTEN  =      -405.92744943 eV

  energy  without entropy=     -405.92744943  energy(sigma->0) =     -405.92744943



--------------------------------------------------------------------------------------------------------


    POTLOK:  cpu time      1.3262: real time      1.3265


--------------------------------------------------------------------------------------------------------


 stress matrix after NEB project (eV)
      0.00000      0.00000      0.00000
      0.00000      0.00000      0.00000
      0.00000      0.00000      0.00000
  FORCES: max atom, RMS     0.132281    0.092188
  FORCE total and by dimension    0.782243    0.117653
  Stress total and by dimension    0.000000    0.000000
     LOOP+:  cpu time    148.8103: real time    149.2207
    4ORBIT:  cpu time      0.0000: real time      0.0000

 total amount of memory used by VASP MPI-rank0    57820. kBytes
=======================================================================

   base      :      30000. kBytes
   nonl-proj :       3041. kBytes
   fftplans  :       1904. kBytes
   grid      :       3324. kBytes
   one-center:          6. kBytes
   wavefun   :      19545. kBytes

  
  
 General timing and accounting informations for this job:
 ========================================================
  
                  Total CPU time used (sec):      186.378
                            User time (sec):      182.858
                          System time (sec):        3.519
                         Elapsed time (sec):      190.068
  
                   Maximum memory used (kb):      334528.
                   Average memory used (kb):          N/A
  
                          Minor page faults:        76073
                          Major page faults:          269
                 Voluntary context switches:         6144
