 vasp.6.4.1 05Apr23 (build Jun  6 2023 14:36:51) complex                         
 executed on        HPECrayEX_GCC date 2024.08.20  14:40:09
 running  256 mpi-ranks, with    1 threads/rank, on    2 nodes
 distrk:  each k-point on  256 cores,    1 groups
 distr:  one band on NCORE=   2 cores,  128 groups


--------------------------------------------------------------------------------------------------------


 INCAR:
   ALGO = Conjugate
   NCORE = 2
   PREC = Accurate
   EDIFF = 1E-7
   ENCUT = 1000
   ISMEAR = 0
   SIGMA = 0.01
   ISIF = 0
   SYMPREC = 1E-7
   GGA = RP
   IVDW = 11
   LWAVE = .FALSE.
   LCHARGE = .FALSE.
   LWAVE = .FALSE.
   LCHARGE = .FALSE.

 POTCAR:    PAW_PBE C_h 06Feb2004                 
 POTCAR:    PAW_PBE H_h 06Feb2004                 
 POTCAR:    PAW_PBE N_h 06Feb2004                 
 POTCAR:    PAW_PBE C_h 06Feb2004                 
   VRHFIN =C: s2p2                                                                                  
   LEXCH  = PE                                                                                      
   EATOM  =   147.1560 eV,   10.8157 Ry                                                             
                                                                                                    
   TITEL  = PAW_PBE C_h 06Feb2004                                                                   
   LULTRA =        F    use ultrasoft PP ?                                                          
   IUNSCR =        1    unscreen: 0-lin 1-nonlin 2-no                                               
   RPACOR =    0.800    partial core radius                                                         
   POMASS =   12.011; ZVAL   =    4.000    mass and valenz                                          
   RCORE  =    1.100    outmost cutoff radius                                                       
   RWIGS  =    1.630; RWIGS  =    0.863    wigner-seitz radius (au A)                               
   ENMAX  =  700.000; ENMIN  =  500.000 eV                                                          
   ICORE  =        2    local potential                                                             
   LCOR   =        T    correct aug charges                                                         
   LPAW   =        T    paw PP                                                                      
   EAUG   =  946.768                                                                                
   DEXC   =    0.000                                                                                
   RMAX   =    1.128    core radius for proj-oper                                                   
   RAUG   =    1.300    factor for augmentation sphere                                              
   RDEP   =    1.162    radius for radial grids                                                     
   RDEPT  =    1.088    core radius for aug-charge                                                  
                                                                                                    
   Atomic configuration                                                                             
    4 entries                                                                                       
     n  l   j            E        occ.                                                              
     1  0  0.50      -273.3789   2.0000                                                             
     2  0  0.50       -13.7508   2.0000                                                             
     2  1  0.50        -5.2854   2.0000                                                             
     3  2  1.50        -5.4423   0.0000                                                             
   Description                                                                                      
     l       E           TYP  RCUT    TYP  RCUT                                                     
     0    -13.7508458     23  1.100                                                                 
     0     -8.2022199     23  1.100                                                                 
     1     -5.2854383     23  1.100                                                                 
     1      1.1560700     23  1.100                                                                 
     2     -5.4423304      7  1.100                                                                 
  local pseudopotential read in
  partial core-charges read in
  partial kinetic energy density read in
  atomic valenz-charges read in
  non local Contribution for L=           0  read in
    real space projection operators read in
  non local Contribution for L=           0  read in
    real space projection operators read in
  non local Contribution for L=           1  read in
    real space projection operators read in
  non local Contribution for L=           1  read in
    real space projection operators read in
    PAW grid and wavefunctions read in

   number of l-projection  operators is LMAX  =           4
   number of lm-projection operators is LMMAX =           8

 POTCAR:    PAW_PBE H_h 06Feb2004                 
   VRHFIN =H: ultrasoft test                                                                        
   LEXCH  = PE                                                                                      
   EATOM  =    12.4884 eV,    0.9179 Ry                                                             
                                                                                                    
   TITEL  = PAW_PBE H_h 06Feb2004                                                                   
   LULTRA =        F    use ultrasoft PP ?                                                          
   IUNSCR =        0    unscreen: 0-lin 1-nonlin 2-no                                               
   RPACOR =    0.000    partial core radius                                                         
   POMASS =    1.000; ZVAL   =    1.000    mass and valenz                                          
   RCORE  =    0.800    outmost cutoff radius                                                       
   RWIGS  =    0.700; RWIGS  =    0.370    wigner-seitz radius (au A)                               
   ENMAX  =  700.000; ENMIN  =  350.000 eV                                                          
   RCLOC  =    0.701    cutoff for local pot                                                        
   LCOR   =        T    correct aug charges                                                         
   LPAW   =        T    paw PP                                                                      
   EAUG   = 1000.000                                                                                
   RMAX   =    0.819    core radius for proj-oper                                                   
   RAUG   =    1.000    factor for augmentation sphere                                              
   RDEP   =    0.817    radius for radial grids                                                     
   RDEPT  =    0.817    core radius for aug-charge                                                  
                                                                                                    
   Atomic configuration                                                                             
    2 entries                                                                                       
     n  l   j            E        occ.                                                              
     1  0  0.50        -6.4927   1.0000                                                             
     2  1  0.50        -3.4015   0.0000                                                             
   Description                                                                                      
     l       E           TYP  RCUT    TYP  RCUT                                                     
     0     -6.4927493     23  0.800                                                                 
     0      6.8029130     23  0.800                                                                 
     1     -6.8029130     23  0.800                                                                 
  local pseudopotential read in
  atomic valenz-charges read in
  non local Contribution for L=           0  read in
    real space projection operators read in
  non local Contribution for L=           0  read in
    real space projection operators read in
  non local Contribution for L=           1  read in
    real space projection operators read in
    PAW grid and wavefunctions read in

   number of l-projection  operators is LMAX  =           3
   number of lm-projection operators is LMMAX =           5

 POTCAR:    PAW_PBE N_h 06Feb2004                 
   VRHFIN =N: s2p3                                                                                  
   LEXCH  = PE                                                                                      
   EATOM  =   264.5486 eV,   19.4438 Ry                                                             
                                                                                                    
   TITEL  = PAW_PBE N_h 06Feb2004                                                                   
   LULTRA =        F    use ultrasoft PP ?                                                          
   IUNSCR =        1    unscreen: 0-lin 1-nonlin 2-no                                               
   RPACOR =    0.800    partial core radius                                                         
   POMASS =   14.001; ZVAL   =    5.000    mass and valenz                                          
   RCORE  =    1.100    outmost cutoff radius                                                       
   RWIGS  =    1.480; RWIGS  =    0.783    wigner-seitz radius (au A)                               
   ENMAX  =  700.000; ENMIN  =  500.000 eV                                                          
   ICORE  =        2    local potential                                                             
   LCOR   =        T    correct aug charges                                                         
   LPAW   =        T    paw PP                                                                      
   EAUG   =  904.640                                                                                
   DEXC   =    0.000                                                                                
   RMAX   =    1.127    core radius for proj-oper                                                   
   RAUG   =    1.300    factor for augmentation sphere                                              
   RDEP   =    1.115    radius for radial grids                                                     
   RDEPT  =    1.106    core radius for aug-charge                                                  
                                                                                                    
   Atomic configuration                                                                             
    4 entries                                                                                       
     n  l   j            E        occ.                                                              
     1  0  0.50      -384.7179   2.0000                                                             
     2  0  0.50       -18.5828   2.0000                                                             
     2  1  0.50        -7.0898   3.0000                                                             
     3  2  1.50        -6.8029   0.0000                                                             
   Description                                                                                      
     l       E           TYP  RCUT    TYP  RCUT                                                     
     0    -18.5828117     23  1.100                                                                 
     0    -15.0750597     23  1.100                                                                 
     1     -7.0897851     23  1.100                                                                 
     1     -1.9663412     23  1.100                                                                 
     2     -6.8029130      7  1.100                                                                 
  local pseudopotential read in
  partial core-charges read in
  partial kinetic energy density read in
  kinetic energy density of atom read in
  atomic valenz-charges read in
  non local Contribution for L=           0  read in
    real space projection operators read in
  non local Contribution for L=           0  read in
    real space projection operators read in
  non local Contribution for L=           1  read in
    real space projection operators read in
  non local Contribution for L=           1  read in
    real space projection operators read in
    PAW grid and wavefunctions read in

   number of l-projection  operators is LMAX  =           4
   number of lm-projection operators is LMMAX =           8

 -----------------------------------------------------------------------------
|                                                                             |
|               ----> ADVICE to this user running VASP <----                  |
|                                                                             |
|     You have a (more or less) 'large supercell' and for larger cells it     |
|     might be more efficient to use real-space projection operators.         |
|     Therefore, try LREAL= Auto in the INCAR file.                           |
|     Mind: For very accurate calculation, you might also keep the            |
|     reciprocal projection scheme (i.e. LREAL=.FALSE.).                      |
|                                                                             |
 -----------------------------------------------------------------------------

 -----------------------------------------------------------------------------
|                                                                             |
|               ----> ADVICE to this user running VASP <----                  |
|                                                                             |
|     You enforced a specific xc type in the INCAR file but a different       |
|     type was found in the POTCAR file.                                      |
|     I HOPE YOU KNOW WHAT YOU ARE DOING!                                     |
|                                                                             |
 -----------------------------------------------------------------------------

  PAW_PBE C_h 06Feb2004                 :
 energy of atom  1       EATOM= -147.1560
 kinetic energy error for atom=    0.0031 (will be added to EATOM!!)
  PAW_PBE H_h 06Feb2004                 :
 energy of atom  2       EATOM=  -12.4884
 kinetic energy error for atom=    0.0006 (will be added to EATOM!!)
  PAW_PBE N_h 06Feb2004                 :
 energy of atom  3       EATOM= -264.5486
 kinetic energy error for atom=    0.0081 (will be added to EATOM!!)


 POSCAR:  C  H  N
  positions in cartesian coordinates
  No initial velocities read in
 exchange correlation table for  LEXCH =        9
   RHO(1)=    0.500       N(1)  =     2000
   RHO(2)=  100.500       N(2)  =     4000

 VTST: version 4.1, (05/19/21)

 CHAIN: initializing optimizer
 
 OPT: Using VASP Dynamics algorithm
 CHAIN: Read ICHAIN            0

 POSCAR:  C  H  N
  positions in cartesian coordinates
  No initial velocities read in



--------------------------------------------------------------------------------------------------------


 ion  position               nearest neighbor table
   1  0.290  0.056  0.387-  37 1.09  61 1.35   5 1.41
   2  0.790  0.944  0.613-  38 1.09  62 1.35   6 1.41
   3  0.290  0.444  0.887-  39 1.09  63 1.35   7 1.41
   4  0.790  0.556  0.113-  40 1.09  64 1.35   8 1.41
   5  0.392  0.117  0.510-  33 1.08   9 1.39   1 1.41
   6  0.892  0.883  0.490-  34 1.08  10 1.39   2 1.41
   7  0.392  0.383  0.010-  35 1.08  11 1.39   3 1.41
   8  0.892  0.617  0.990-  36 1.08  12 1.39   4 1.41
   9  0.293  0.199  0.579-  29 1.08  57 1.35   5 1.39
  10  0.793  0.801  0.421-  30 1.08  58 1.35   6 1.39
  11  0.293  0.301  0.079-  31 1.08  59 1.35   7 1.39
  12  0.793  0.699  0.921-  32 1.08  60 1.35   8 1.39
  13  0.713  0.187  0.927-  53 1.08  69 1.34  17 1.41
  14  0.213  0.813  0.073-  54 1.08  70 1.34  18 1.41
  15  0.713  0.313  0.427-  55 1.08  71 1.34  19 1.41
  16  0.213  0.687  0.573-  56 1.08  72 1.34  20 1.41
  17  0.607  0.109  0.001-  49 1.08  21 1.39  13 1.41
  18  0.107  0.891  0.999-  50 1.08  22 1.39  14 1.41
  19  0.607  0.391  0.501-  51 1.08  23 1.39  15 1.41
  20  0.107  0.609  0.499-  52 1.08  24 1.39  16 1.41
  21  0.699  0.053  0.137-  45 1.08  65 1.36  17 1.39
  22  0.199  0.947  0.863-  46 1.08  66 1.36  18 1.39
  23  0.699  0.447  0.637-  47 1.08  67 1.36  19 1.39
  24  0.199  0.553  0.363-  48 1.08  68 1.36  20 1.39
  25  0.041  0.233  0.510-  57 1.05
  26  0.541  0.767  0.490-  58 1.05
  27  0.041  0.267  0.010-  59 1.05
  28  0.541  0.733  0.990-  60 1.05
  29  0.320  0.265  0.675-   9 1.08
  30  0.820  0.735  0.325-  10 1.08
  31  0.320  0.235  0.175-  11 1.08
  32  0.820  0.765  0.825-  12 1.08
  33  0.519  0.103  0.544-   5 1.08
  34  0.019  0.897  0.456-   6 1.08
  35  0.519  0.397  0.044-   7 1.08
  36  0.019  0.603  0.956-   8 1.08
  37  0.318  0.985  0.304-   1 1.09
  38  0.818  0.015  0.696-   2 1.09
  39  0.318  0.515  0.804-   3 1.09
  40  0.818  0.485  0.196-   4 1.09
  41  0.950  0.081  0.230-  65 1.04
  42  0.450  0.919  0.770-  66 1.04
  43  0.950  0.419  0.730-  67 1.04
  44  0.450  0.581  0.270-  68 1.04
  45  0.669  0.986  0.231-  21 1.08
  46  0.169  0.014  0.769-  22 1.08
  47  0.669  0.514  0.731-  23 1.08
  48  0.169  0.486  0.269-  24 1.08
  49  0.481  0.096  0.961-  17 1.08
  50  0.981  0.904  0.039-  18 1.08
  51  0.481  0.404  0.461-  19 1.08
  52  0.981  0.596  0.539-  20 1.08
  53  0.689  0.248  0.818-  13 1.08
  54  0.189  0.752  0.182-  14 1.08
  55  0.689  0.252  0.318-  15 1.08
  56  0.189  0.748  0.682-  16 1.08
  57  0.143  0.184  0.499-  25 1.05   9 1.35  61 1.36
  58  0.643  0.816  0.501-  26 1.05  10 1.35  62 1.36
  59  0.143  0.316  0.999-  27 1.05  11 1.35  63 1.36
  60  0.643  0.684  0.001-  28 1.05  12 1.35  64 1.36
  61  0.138  0.097  0.380-   1 1.35  57 1.36
  62  0.638  0.903  0.620-   2 1.35  58 1.36
  63  0.138  0.403  0.880-   3 1.35  59 1.36
  64  0.638  0.597  0.120-   4 1.35  60 1.36
  65  0.850  0.097  0.140-  41 1.04  21 1.36  69 1.36
  66  0.350  0.903  0.860-  42 1.04  22 1.36  70 1.36
  67  0.850  0.403  0.640-  43 1.04  23 1.36  71 1.36
  68  0.350  0.597  0.360-  44 1.04  24 1.36  72 1.36
  69  0.861  0.180  0.012-  13 1.34  65 1.36
  70  0.361  0.820  0.988-  14 1.34  66 1.36
  71  0.861  0.320  0.512-  15 1.34  67 1.36
  72  0.361  0.680  0.488-  16 1.34  68 1.36

  LATTYP: Found a simple orthorhombic cell.
 ALAT       =     6.7730000000
 B/A-ratio  =     1.2092130518
 C/A-ratio  =     1.8585560313
  
  Lattice vectors:
  
 A1 = (   0.0000000000,   0.0000000000,   6.7730000000)
 A2 = (   8.1900000000,   0.0000000000,   0.0000000000)
 A3 = (   0.0000000000,  12.5880000000,   0.0000000000)


Analysis of symmetry for initial positions (statically):
=====================================================================
 Subroutine PRICEL returns:
 Original cell was already a primitive cell.
 

 Routine SETGRP: Setting up the symmetry group for a 
 simple orthorhombic supercell.


 Subroutine GETGRP returns: Found  1 space group operations
 (whereof  1 operations were pure point group operations)
 out of a pool of  8 trial point group operations.


The static configuration has the point symmetry C_1 .


Analysis of symmetry for dynamics (positions and initial velocities):
=====================================================================
 Subroutine PRICEL returns:
 Original cell was already a primitive cell.
 

 Routine SETGRP: Setting up the symmetry group for a 
 simple orthorhombic supercell.


 Subroutine GETGRP returns: Found  1 space group operations
 (whereof  1 operations were pure point group operations)
 out of a pool of  8 trial point group operations.


The dynamic configuration has the point symmetry C_1 .


 Subroutine INISYM returns: Found  1 space group operations
 (whereof  1 operations are pure point group operations),
 and found     1 'primitive' translations


----------------------------------------------------------------------------------------

                                     Primitive cell                                     

  volume of cell :     698.2673

  direct lattice vectors                    reciprocal lattice vectors
     8.190000000  0.000000000  0.000000000     0.122100122  0.000000000  0.000000000
     0.000000000 12.588000000  0.000000000     0.000000000  0.079440737  0.000000000
     0.000000000  0.000000000  6.773000000     0.000000000  0.000000000  0.147645061

  length of vectors
     8.190000000 12.588000000  6.773000000     0.122100122  0.079440737  0.147645061

  position of ions in fractional coordinates (direct lattice)
     0.289667890  0.056140328  0.386794113
     0.789670427  0.943864233  0.613195669
     0.289668062  0.443858423  0.886795883
     0.789672139  0.556138918  0.113200352
     0.391999864  0.116914038  0.509755729
     0.891999440  0.883087180  0.490239179
     0.391999639  0.383084431  0.009758941
     0.892001753  0.616913671  0.990239313
     0.293481737  0.198645841  0.578786597
     0.793479278  0.801356250  0.421207530
     0.293479107  0.301354175  0.078790637
     0.793482306  0.698644718  0.921207443
     0.713299019  0.187255403  0.927010116
     0.213305651  0.812742372  0.072984447
     0.713305993  0.312745215  0.427013977
     0.213303367  0.687257064  0.572986590
     0.606923898  0.109132299  0.001085596
     0.106930290  0.890867246  0.998911194
     0.606927084  0.390867213  0.501087317
     0.106927878  0.609133451  0.498912967
     0.699192737  0.052771517  0.137396265
     0.199197313  0.947227094  0.862598039
     0.699192414  0.447228898  0.637400831
     0.199194925  0.552772453  0.362600447
     0.040767009  0.233327593  0.509961622
     0.540764700  0.766678551  0.490033553
     0.040764734  0.266673711  0.009963077
     0.540767021  0.733324396  0.990035312
     0.319661070  0.265056078  0.675415347
     0.819658205  0.734945592  0.324582836
     0.319658333  0.234944366  0.175419756
     0.819660120  0.765054926  0.824579918
     0.519263507  0.103057410  0.543857519
     0.019265312  0.896941305  0.456139881
     0.519262211  0.396940728  0.043859089
     0.019265254  0.603058093  0.956137470
     0.317603103  0.984643685  0.303616487
     0.817605956  0.015361663  0.696372591
     0.317604713  0.515354254  0.803615951
     0.817608029  0.484642610  0.196378292
     0.950106200  0.081496325  0.229794259
     0.450110776  0.918502445  0.770197663
     0.950108209  0.418508214  0.729799223
     0.450108800  0.581496400  0.270201383
     0.669238880  0.985592066  0.230583332
     0.169244879  0.014407934  0.769414316
     0.669236230  0.514408292  0.730585995
     0.169241226  0.485592583  0.269415350
     0.480727708  0.095510204  0.961358839
     0.980734746  0.904491168  0.038641166
     0.480731213  0.404487186  0.461359042
     0.980732099  0.595510605  0.538642914
     0.689423397  0.248093113  0.817508945
     0.189428117  0.751905888  0.182485819
     0.689433541  0.251906701  0.317513568
     0.189428119  0.748094666  0.682486937
     0.143428374  0.184119608  0.499234905
     0.643427085  0.815885854  0.500756932
     0.143425679  0.315880421  0.999240094
     0.643429592  0.684117053  0.000759906
     0.138347720  0.097499310  0.379755550
     0.638348319  0.902508024  0.620232534
     0.138348036  0.402501014  0.879758408
     0.638351351  0.597496310  0.120239967
     0.849828685  0.097337862  0.139550811
     0.349831836  0.902658049  0.860441007
     0.849829250  0.402662887  0.639555536
     0.349830517  0.597340418  0.360444446
     0.861275712  0.180040879  0.011725788
     0.361279874  0.819956461  0.988267359
     0.861278519  0.319961540  0.511729356
     0.361278773  0.680042553  0.488269731

  ion indices of the primitive-cell ions
   primitive index   ion index
                 1           1
                 2           2
                 3           3
                 4           4
                 5           5
                 6           6
                 7           7
                 8           8
                 9           9
                10          10
                11          11
                12          12
                13          13
                14          14
                15          15
                16          16
                17          17
                18          18
                19          19
                20          20
                21          21
                22          22
                23          23
                24          24
                25          25
                26          26
                27          27
                28          28
                29          29
                30          30
                31          31
                32          32
                33          33
                34          34
                35          35
                36          36
                37          37
                38          38
                39          39
                40          40
                41          41
                42          42
                43          43
                44          44
                45          45
                46          46
                47          47
                48          48
                49          49
                50          50
                51          51
                52          52
                53          53
                54          54
                55          55
                56          56
                57          57
                58          58
                59          59
                60          60
                61          61
                62          62
                63          63
                64          64
                65          65
                66          66
                67          67
                68          68
                69          69
                70          70
                71          71
                72          72

----------------------------------------------------------------------------------------



 KPOINTS: auto                                    

Automatic generation of k-mesh.
 Grid dimensions read from file:
 generate k-points for:    3    2    4

 Generating k-lattice:

  Cartesian coordinates                     Fractional coordinates (reciprocal lattice)
     0.040700041  0.000000000  0.000000000     0.333333333  0.000000000  0.000000000
     0.000000000  0.039720369  0.000000000     0.000000000  0.500000000  0.000000000
     0.000000000  0.000000000  0.036911265     0.000000000  0.000000000  0.250000000

  Length of vectors
     0.040700041  0.039720369  0.036911265

  Shift w.r.t. Gamma in fractional coordinates (k-lattice)
     0.000000000  0.000000000  0.000000000

 
 Subroutine IBZKPT returns following result:
 ===========================================
 
 Found     14 irreducible k-points:
 
 Following reciprocal coordinates:
            Coordinates               Weight
  0.000000  0.000000  0.000000      1.000000
  0.333333  0.000000  0.000000      2.000000
  0.000000  0.500000  0.000000      1.000000
  0.333333  0.500000  0.000000      2.000000
  0.000000  0.000000  0.250000      2.000000
  0.333333  0.000000  0.250000      2.000000
 -0.333333  0.000000  0.250000      2.000000
  0.000000  0.500000  0.250000      2.000000
  0.333333  0.500000  0.250000      2.000000
 -0.333333  0.500000  0.250000      2.000000
  0.000000  0.000000  0.500000      1.000000
  0.333333  0.000000  0.500000      2.000000
  0.000000  0.500000  0.500000      1.000000
  0.333333  0.500000  0.500000      2.000000
 
 Following cartesian coordinates:
            Coordinates               Weight
  0.000000  0.000000  0.000000      1.000000
  0.040700  0.000000  0.000000      2.000000
  0.000000  0.039720  0.000000      1.000000
  0.040700  0.039720  0.000000      2.000000
  0.000000  0.000000  0.036911      2.000000
  0.040700  0.000000  0.036911      2.000000
 -0.040700  0.000000  0.036911      2.000000
  0.000000  0.039720  0.036911      2.000000
  0.040700  0.039720  0.036911      2.000000
 -0.040700  0.039720  0.036911      2.000000
  0.000000  0.000000  0.073823      1.000000
  0.040700  0.000000  0.073823      2.000000
  0.000000  0.039720  0.073823      1.000000
  0.040700  0.039720  0.073823      2.000000
 


--------------------------------------------------------------------------------------------------------




 Dimension of arrays:
   k-points           NKPTS =     14   k-points in BZ     NKDIM =     14   number of bands    NBANDS=    256
   number of dos      NEDOS =    301   number of ions     NIONS =     72
   non local maximal  LDIM  =      4   non local SUM 2l+1 LMDIM =      8
   total plane-waves  NPLWV = 823200
   max r-space proj   IRMAX =      1   max aug-charges    IRDMAX=   8572
   dimension x,y,z NGX =    84 NGY =  140 NGZ =   70
   dimension x,y,z NGXF=   168 NGYF=  280 NGZF=  140
   support grid    NGXF=   168 NGYF=  280 NGZF=  140
   ions per type =              24  32  16
   NGX,Y,Z   is equivalent  to a cutoff of  17.05, 18.49, 17.18 a.u.
   NGXF,Y,Z  is equivalent  to a cutoff of  34.10, 36.98, 34.36 a.u.

 SYSTEM =  unknown system                          
 POSCAR =   C  H  N                                

 Startparameter for this run:
   NWRITE =      2    write-flag & timer
   PREC   = accura    normal or accurate (medium, high low for compatibility)
   ISTART =      0    job   : 0-new  1-cont  2-samecut
   ICHARG =      2    charge: 1-file 2-atom 10-const
   ISPIN  =      1    spin polarized calculation?
   LNONCOLLINEAR =      F non collinear calculations
   LSORBIT =      F    spin-orbit coupling
   INIWAV =      1    electr: 0-lowe 1-rand  2-diag
   LASPH  =      F    aspherical Exc in radial PAW
 Electronic Relaxation 1
   ENCUT  = 1000.0 eV  73.50 Ry    8.57 a.u.  21.12 32.46 17.46*2*pi/ulx,y,z
   ENINI  = 1000.0     initial cutoff
   ENAUG  = 1000.0 eV  augmentation charge cutoff
   NELM   =     60;   NELMIN=  2; NELMDL= -5     # of ELM steps 
   EDIFF  = 0.1E-06   stopping-criterion for ELM
   LREAL  =      F    real-space projection
   NLSPLINE    = F    spline interpolate recip. space projectors
   LCOMPAT=      F    compatible to vasp.4.4
   GGA_COMPAT  = T    GGA compatible to vasp.4.4-vasp.4.6
   LMAXPAW     = -100 max onsite density
   LMAXMIX     =    2 max onsite mixed and CHGCAR
   VOSKOWN=      0    Vosko Wilk Nusair interpolation
   ROPT   =    0.00000   0.00000   0.00000
 Ionic relaxation
   EDIFFG = 0.1E-05   stopping-criterion for IOM
   NSW    =      0    number of steps for IOM
   NBLOCK =      1;   KBLOCK =      1    inner block; outer block 
   IBRION =     -1    ionic relax: 0-MD 1-quasi-New 2-CG
   NFREE  =      0    steps in history (QN), initial steepest desc. (CG)
   ISIF   =      0    stress and relaxation
   IWAVPR =     10    prediction:  0-non 1-charg 2-wave 3-comb
   ISYM   =      2    0-nonsym 1-usesym 2-fastsym
   LCORR  =      T    Harris-Foulkes like correction to forces

   POTIM  = 0.5000    time-step for ionic-motion
   TEIN   =    0.0    initial temperature
   TEBEG  =    0.0;   TEEND  =   0.0 temperature during run
   SMASS  =  -3.00    Nose mass-parameter (am)
   estimated Nose-frequenzy (Omega)   =  0.10E-29 period in steps = 0.13E+47 mass=  -0.153E-26a.u.
   SCALEE = 1.0000    scale energy and forces
   NPACO  =    256;   APACO  = 10.0  distance and # of slots for P.C.
   PSTRESS=    0.0 pullay stress

  Mass of Ions in am
   POMASS =  12.01  1.00 14.00
  Ionic Valenz
   ZVAL   =   4.00  1.00  5.00
  Atomic Wigner-Seitz radii
   RWIGS  =  -1.00 -1.00 -1.00
  virtual crystal weights 
   VCA    =   1.00  1.00  1.00
   NELECT =     208.0000    total number of electrons
   NUPDOWN=      -1.0000    fix difference up-down

 DOS related values:
   EMIN   =  10.00;   EMAX   =-10.00  energy-range for DOS
   EFERMI =   0.00;   METHOD = LEGACY      
   ISMEAR =     0;   SIGMA  =   0.01  broadening in eV -4-tet -1-fermi 0-gaus

 Electronic relaxation 2 (details)
   IALGO  =     58    algorithm
   LDIAG  =      T    sub-space diagonalisation (order eigenvalues)
   LSUBROT=      F    optimize rotation matrix (better conditioning)
   TURBO    =      0    0=normal 1=particle mesh
   IRESTART =      0    0=no restart 2=restart with 2 vectors
   NREBOOT  =      0    no. of reboots
   NMIN     =      0    reboot dimension
   EREF     =   0.00    reference energy to select bands
   IMIX   =      4    mixing-type and parameters
     AMIX     =   0.40;   BMIX     =  1.00
     AMIX_MAG =   1.60;   BMIX_MAG =  1.00
     AMIN     =   0.10
     WC   =   100.;   INIMIX=   1;  MIXPRE=   1;  MAXMIX= -45

 Intra band minimization:
   WEIMIN = 0.0000     energy-eigenvalue tresh-hold
   EBREAK =  0.98E-10  absolut break condition
   DEPER  =   0.30     relativ break condition  

   TIME   =   0.40     timestep for ELM

  volume/ion in A,a.u.               =       9.70        65.45
  Fermi-wavevector in a.u.,A,eV,Ry     =   1.093340  2.066114 16.264310  1.195393
  Thomas-Fermi vector in A             =   2.229624

 Write flags
   LWAVE        =      F    write WAVECAR
   LDOWNSAMPLE  =      F    k-point downsampling of WAVECAR
   LCHARG       =      T    write CHGCAR
   LVTOT        =      F    write LOCPOT, total local potential
   LVHAR        =      F    write LOCPOT, Hartree potential only
   LELF         =      F    write electronic localiz. function (ELF)
   LORBIT       =      0    0 simple, 1 ext, 2 COOP (PROOUT), +10 PAW based schemes


 Dipole corrections
   LMONO  =      F    monopole corrections only (constant potential shift)
   LDIPOL =      F    correct potential (dipole corrections)
   IDIPOL =      0    1-x, 2-y, 3-z, 4-all directions 
   EPSILON=  1.0000000 bulk dielectric constant

 Exchange correlation treatment:
   GGA     =    RP    GGA type
   LEXCH   =     9    internal setting for exchange type
   LIBXC   =     F    Libxc                    
   VOSKOWN =     0    Vosko Wilk Nusair interpolation
   LHFCALC =     F    Hartree Fock is set to
   LHFONE  =     F    Hartree Fock one center treatment
   AEXX    =    0.0000 exact exchange contribution

 Linear response parameters
   LEPSILON=     F    determine dielectric tensor
   LRPA    =     F    only Hartree local field effects (RPA)
   LNABLA  =     F    use nabla operator in PAW spheres
   LVEL    =     F    velocity operator in full k-point grid
   CSHIFT  =0.1000    complex shift for real part using Kramers Kronig
   OMEGAMAX=  -1.0    maximum frequency
   DEG_THRESHOLD= 0.2000000E-02 threshold for treating states as degnerate
   RTIME   =   -0.100 relaxation time in fs
  (WPLASMAI=    0.000 imaginary part of plasma frequency in eV, 0.658/RTIME)
   DFIELD  = 0.0000000 0.0000000 0.0000000 field for delta impulse in time

  Optional k-point grid parameters
   LKPOINTS_OPT  =     F    use optional k-point grid
   KPOINTS_OPT_MODE=     1    mode for optional k-point grid

 Orbital magnetization related:
   ORBITALMAG=     F  switch on orbital magnetization
   LCHIMAG   =     F  perturbation theory with respect to B field
   DQ        =  0.001000  dq finite difference perturbation B field
   LLRAUG    =     F  two centre corrections for induced B field
   LBONE     =     F  B-component reconstruction in AE one-centre
   LVGVCALC  =     T  calculate vGv susceptibility
   LVGVAPPL  =     F  apply vGv susceptibility instead of pGv for G=0

 Random number generation:
   RANDOM_GENERATOR = DEFAULT
   PCG_SEED         = not used


--------------------------------------------------------------------------------------------------------


 Static calculation
 charge density and potential will be updated during run
 non-spin polarized calculation
 Conjugate gradient for all bands (Freysoldt, et al. PRB 79, 241103 (2009))
 preconditioned conjugated gradient                                        
 perform sub-space diagonalisation
    before iterative eigenvector-optimisation
 modified Broyden-mixing scheme, WC =      100.0
 initial mixing is a Kerker type mixing with AMIX =  0.4000 and BMIX =      1.0000
 Hartree-type preconditioning will be used
 using additional bands          152
 reciprocal scheme for non local part
 use partial core corrections
 no Harris-corrections to forces 
 use gradient corrections 
 use of overlap-Matrix (Vanderbilt PP)
 Gauss-broadening in eV      SIGMA  =   0.01


--------------------------------------------------------------------------------------------------------


  energy-cutoff  :     1000.00
  volume of cell :      698.27
      direct lattice vectors                 reciprocal lattice vectors
     8.190000000  0.000000000  0.000000000     0.122100122  0.000000000  0.000000000
     0.000000000 12.588000000  0.000000000     0.000000000  0.079440737  0.000000000
     0.000000000  0.000000000  6.773000000     0.000000000  0.000000000  0.147645061

  length of vectors
     8.190000000 12.588000000  6.773000000     0.122100122  0.079440737  0.147645061



 k-points in units of 2pi/SCALE and weight: auto                                    
   0.00000000  0.00000000  0.00000000       0.042
   0.04070004  0.00000000  0.00000000       0.083
   0.00000000  0.03972037  0.00000000       0.042
   0.04070004  0.03972037  0.00000000       0.083
   0.00000000  0.00000000  0.03691127       0.083
   0.04070004  0.00000000  0.03691127       0.083
  -0.04070004  0.00000000  0.03691127       0.083
   0.00000000  0.03972037  0.03691127       0.083
   0.04070004  0.03972037  0.03691127       0.083
  -0.04070004  0.03972037  0.03691127       0.083
   0.00000000  0.00000000  0.07382253       0.042
   0.04070004  0.00000000  0.07382253       0.083
   0.00000000  0.03972037  0.07382253       0.042
   0.04070004  0.03972037  0.07382253       0.083

 k-points in reciprocal lattice and weights: auto                                    
   0.00000000  0.00000000  0.00000000       0.042
   0.33333333  0.00000000  0.00000000       0.083
   0.00000000  0.50000000  0.00000000       0.042
   0.33333333  0.50000000  0.00000000       0.083
   0.00000000  0.00000000  0.25000000       0.083
   0.33333333  0.00000000  0.25000000       0.083
  -0.33333333  0.00000000  0.25000000       0.083
   0.00000000  0.50000000  0.25000000       0.083
   0.33333333  0.50000000  0.25000000       0.083
  -0.33333333  0.50000000  0.25000000       0.083
   0.00000000  0.00000000  0.50000000       0.042
   0.33333333  0.00000000  0.50000000       0.083
   0.00000000  0.50000000  0.50000000       0.042
   0.33333333  0.50000000  0.50000000       0.083

 position of ions in fractional coordinates (direct lattice) 
   0.28966789  0.05614033  0.38679411
   0.78967043  0.94386423  0.61319567
   0.28966806  0.44385842  0.88679588
   0.78967214  0.55613892  0.11320035
   0.39199986  0.11691404  0.50975573
   0.89199944  0.88308718  0.49023918
   0.39199964  0.38308443  0.00975894
   0.89200175  0.61691367  0.99023931
   0.29348174  0.19864584  0.57878660
   0.79347928  0.80135625  0.42120753
   0.29347911  0.30135417  0.07879064
   0.79348231  0.69864472  0.92120744
   0.71329902  0.18725540  0.92701012
   0.21330565  0.81274237  0.07298445
   0.71330599  0.31274521  0.42701398
   0.21330337  0.68725706  0.57298659
   0.60692390  0.10913230  0.00108560
   0.10693029  0.89086725  0.99891119
   0.60692708  0.39086721  0.50108732
   0.10692788  0.60913345  0.49891297
   0.69919274  0.05277152  0.13739626
   0.19919731  0.94722709  0.86259804
   0.69919241  0.44722890  0.63740083
   0.19919492  0.55277245  0.36260045
   0.04076701  0.23332759  0.50996162
   0.54076470  0.76667855  0.49003355
   0.04076473  0.26667371  0.00996308
   0.54076702  0.73332440  0.99003531
   0.31966107  0.26505608  0.67541535
   0.81965821  0.73494559  0.32458284
   0.31965833  0.23494437  0.17541976
   0.81966012  0.76505493  0.82457992
   0.51926351  0.10305741  0.54385752
   0.01926531  0.89694130  0.45613988
   0.51926221  0.39694073  0.04385909
   0.01926525  0.60305809  0.95613747
   0.31760310  0.98464369  0.30361649
   0.81760596  0.01536166  0.69637259
   0.31760471  0.51535425  0.80361595
   0.81760803  0.48464261  0.19637829
   0.95010620  0.08149633  0.22979426
   0.45011078  0.91850245  0.77019766
   0.95010821  0.41850821  0.72979922
   0.45010880  0.58149640  0.27020138
   0.66923888  0.98559207  0.23058333
   0.16924488  0.01440793  0.76941432
   0.66923623  0.51440829  0.73058600
   0.16924123  0.48559258  0.26941535
   0.48072771  0.09551020  0.96135884
   0.98073475  0.90449117  0.03864117
   0.48073121  0.40448719  0.46135904
   0.98073210  0.59551060  0.53864291
   0.68942340  0.24809311  0.81750895
   0.18942812  0.75190589  0.18248582
   0.68943354  0.25190670  0.31751357
   0.18942812  0.74809467  0.68248694
   0.14342837  0.18411961  0.49923490
   0.64342708  0.81588585  0.50075693
   0.14342568  0.31588042  0.99924009
   0.64342959  0.68411705  0.00075991
   0.13834772  0.09749931  0.37975555
   0.63834832  0.90250802  0.62023253
   0.13834804  0.40250101  0.87975841
   0.63835135  0.59749631  0.12023997
   0.84982868  0.09733786  0.13955081
   0.34983184  0.90265805  0.86044101
   0.84982925  0.40266289  0.63955554
   0.34983052  0.59734042  0.36044445
   0.86127571  0.18004088  0.01172579
   0.36127987  0.81995646  0.98826736
   0.86127852  0.31996154  0.51172936
   0.36127877  0.68004255  0.48826973

 position of ions in cartesian coordinates  (Angst):
   2.37238002  0.70669445  2.61975653
   6.46740079 11.88136297  4.15317427
   2.37238143  5.58728983  6.00626851
   6.46741482  7.00067670  0.76670599
   3.21047888  1.47171391  3.45257555
   7.30547541 11.11630143  3.32038996
   3.21047705  4.82226682  0.06609731
   7.30549435  7.76570929  6.70689087
   2.40361542  2.50055385  3.92012162
   6.49859529 10.08747247  2.85283860
   2.40359389  3.79344635  0.53364899
   6.49862009  8.79453972  6.23933801
   5.84191897  2.35717102  6.27863951
   1.74697328 10.23080098  0.49432366
   5.84197608  3.93683676  2.89216567
   1.74695457  8.65119192  3.88083817
   4.97070673  1.37375737  0.00735274
   0.87575907 11.21423689  6.76562552
   4.97073282  4.92023648  3.39386440
   0.87573932  7.66777188  3.37913752
   5.72638851  0.66428786  0.93058490
   1.63142600 11.92369465  5.84237652
   5.72638587  5.62971737  4.31711583
   1.63140643  6.95829964  2.45589283
   0.33388181  2.93712774  3.45397007
   4.42886289  9.65094960  3.31899726
   0.33386317  3.35688868  0.06747992
   4.42888190  9.23108750  6.70550917
   2.61802416  3.33652591  4.57458815
   6.71300070  9.25149511  2.19839955
   2.61800175  2.95747968  1.18811801
   6.71301638  9.63051141  5.58487978
   4.25276812  1.29728668  3.68354698
   0.15778290 11.29069714  3.08943542
   4.25275750  4.99668989  0.29705761
   0.15778243  7.59129527  6.47591908
   2.60116941 12.39469471  2.05639446
   6.69619278  0.19337261  4.71653156
   2.60118260  6.48727935  5.44289084
   6.69620976  6.10068117  1.33007017
   7.78136977  1.02587574  1.55639652
   3.68640726 11.56210878  5.21654877
   7.78138623  5.26818139  4.94293013
   3.68639108  7.31987668  1.83007397
   5.48106643 12.40663292  1.56174091
   1.38611556  0.18136708  5.21124316
   5.48104473  6.47537158  4.94825894
   1.38608564  6.11263943  1.82475017
   3.93715993  1.20228245  6.51128341
   8.03221757 11.38573482  0.26171662
   3.93718864  5.09168470  3.12478479
   8.03219589  7.49628749  3.64822845
   5.64637762  3.12299610  5.53698809
   1.55141628  9.46499132  1.23597645
   5.64646070  3.17100155  2.15051939
   1.55141630  9.41701566  4.62248403
   1.17467838  2.31769763  3.38131801
   5.26966782 10.27037113  3.39162670
   1.17465631  3.97630274  6.76785316
   5.26968836  8.61166546  0.00514684
   1.13306782  1.22732131  2.57208434
   5.22807273 11.36077100  4.20083495
   1.13307041  5.06668277  5.95860370
   5.22809757  7.52128355  0.81438530
   6.96009693  1.22528901  0.94517764
   2.86512273 11.36265952  5.82776694
   6.96010156  5.06872042  4.33170964
   2.86511193  7.51932118  2.44129023
   7.05384808  2.26635459  0.07941876
   2.95888217 10.32161193  6.69353482
   7.05387107  4.02767586  3.46594293
   2.95887315  8.56037566  3.30705089



--------------------------------------------------------------------------------------------------------


 k-point   1 :   0.0000 0.0000 0.0000  plane waves:   50233
 k-point   2 :   0.3333 0.0000 0.0000  plane waves:   50178
 k-point   3 :   0.0000 0.5000 0.0000  plane waves:   50160
 k-point   4 :   0.3333 0.5000 0.0000  plane waves:   50150
 k-point   5 :   0.0000 0.0000 0.2500  plane waves:   50175
 k-point   6 :   0.3333 0.0000 0.2500  plane waves:   50130
 k-point   7 :  -0.3333 0.0000 0.2500  plane waves:   50130
 k-point   8 :   0.0000 0.5000 0.2500  plane waves:   50164
 k-point   9 :   0.3333 0.5000 0.2500  plane waves:   50138
 k-point  10 :  -0.3333 0.5000 0.2500  plane waves:   50138
 k-point  11 :   0.0000 0.0000 0.5000  plane waves:   50074
 k-point  12 :   0.3333 0.0000 0.5000  plane waves:   50168
 k-point  13 :   0.0000 0.5000 0.5000  plane waves:   50088
 k-point  14 :   0.3333 0.5000 0.5000  plane waves:   50140

 maximum and minimum number of plane-waves per node :     25130    25020

 maximum number of plane-waves:     50233
 maximum index in each direction: 
   IXMAX=   21   IYMAX=   32   IZMAX=   17
   IXMIN=  -21   IYMIN=  -32   IZMIN=  -17


 parallel 3D FFT for wavefunctions:
    minimum data exchange during FFTs selected (reduces bandwidth)
 parallel 3D FFT for charge:
    minimum data exchange during FFTs selected (reduces bandwidth)


 total amount of memory used by VASP MPI-rank0   193776. kBytes
=======================================================================

   base      :      30000. kBytes
   nonl-proj :      96829. kBytes
   fftplans  :      13511. kBytes
   grid      :      19093. kBytes
   one-center:        110. kBytes
   wavefun   :      34233. kBytes

     INWAV:  cpu time      0.0001: real time      0.0003
 Broyden mixing: mesh for mixing (old mesh)
   NGX = 43   NGY = 65   NGZ = 35
  (NGX  =168   NGY  =280   NGZ  =140)
  gives a total of  97825 points

 initial charge density was supplied:
 charge density of overlapping atoms calculated
 number of electron     208.0000000 magnetization 
 keeping initial charge density in first step


--------------------------------------------------------------------------------------------------------


 Maximum index for augmentation-charges          236 (set IRDMAX)


--------------------------------------------------------------------------------------------------------


 First call to EWALD:  gamma=   0.200
 Maximum number of real-space cells 3x 2x 3
 Maximum number of reciprocal cells 3x 4x 2

    FEWALD:  cpu time      0.0035: real time      0.0036


--------------------------------------- Ionic step        1  -------------------------------------------




--------------------------------------- Iteration      1(   1)  ---------------------------------------


    POTLOK:  cpu time      0.0930: real time      0.0937
    SETDIJ:  cpu time      0.0128: real time      0.0136
    TRIAL :  cpu time     23.9653: real time     23.9798
    CORREC:  cpu time      0.0011: real time      0.0011
    --------------------------------------------
      LOOP:  cpu time     24.1060: real time     24.1221

 eigenvalue-minimisations  :  7168
 total energy-change (2. order) : 0.1063320E+04  (-0.1756843E+05)
 number of electron     208.0000000 magnetization 
 augmentation part      208.0000000 magnetization 

 Free energy of the ion-electron system (eV)
  ---------------------------------------------------
  alpha Z        PSCENC =       191.88443493
  Ewald energy   TEWEN  =     -3572.32588850
  -Hartree energ DENC   =     -3777.21485326
  -exchange      EXHF   =         0.00000000
  -V(xc)+E(xc)   XCENC  =       510.95796805
  PAW double counting   =      6096.44791030    -5945.05610920
  entropy T*S    EENTRO =        -0.00071389
  eigenvalues    EBANDS =      -609.09589183
  atomic energy  EATOM  =      8167.72353685
  ---------------------------------------------------
  free energy    TOTEN  =      1063.32039345 eV

  energy without entropy =     1063.32110734  energy(sigma->0) =     1063.32075039


--------------------------------------------------------------------------------------------------------




--------------------------------------- Iteration      1(   2)  ---------------------------------------


    TRIAL :  cpu time     69.2084: real time     69.2453
    CORREC:  cpu time      0.0003: real time      0.0003
    --------------------------------------------
      LOOP:  cpu time     69.2222: real time     69.2751

 eigenvalue-minimisations  : 11776
 total energy-change (2. order) :-0.1423993E+04  (-0.1316917E+04)
 number of electron     208.0000000 magnetization 
 augmentation part      208.0000000 magnetization 

 Free energy of the ion-electron system (eV)
  ---------------------------------------------------
  alpha Z        PSCENC =       191.88443493
  Ewald energy   TEWEN  =     -3572.32588850
  -Hartree energ DENC   =     -3777.21485326
  -exchange      EXHF   =         0.00000000
  -V(xc)+E(xc)   XCENC  =       510.95796805
  PAW double counting   =      6096.44791030    -5945.05610920
  entropy T*S    EENTRO =        -0.00000000
  eigenvalues    EBANDS =     -2033.09003923
  atomic energy  EATOM  =      8167.72353685
  ---------------------------------------------------
  free energy    TOTEN  =      -360.67304007 eV

  energy without entropy =     -360.67304007  energy(sigma->0) =     -360.67304007


--------------------------------------------------------------------------------------------------------




--------------------------------------- Iteration      1(   3)  ---------------------------------------


    TRIAL :  cpu time     55.8922: real time     55.9245
    CORREC:  cpu time      0.0003: real time      0.0003
    --------------------------------------------
      LOOP:  cpu time     55.9092: real time     55.9559

 eigenvalue-minimisations  : 10240
 total energy-change (2. order) :-0.1220029E+03  (-0.1213696E+03)
 number of electron     208.0000000 magnetization 
 augmentation part      208.0000000 magnetization 

 Free energy of the ion-electron system (eV)
  ---------------------------------------------------
  alpha Z        PSCENC =       191.88443493
  Ewald energy   TEWEN  =     -3572.32588850
  -Hartree energ DENC   =     -3777.21485326
  -exchange      EXHF   =         0.00000000
  -V(xc)+E(xc)   XCENC  =       510.95796805
  PAW double counting   =      6096.44791030    -5945.05610920
  entropy T*S    EENTRO =        -0.00000000
  eigenvalues    EBANDS =     -2155.09293331
  atomic energy  EATOM  =      8167.72353685
  ---------------------------------------------------
  free energy    TOTEN  =      -482.67593414 eV

  energy without entropy =     -482.67593414  energy(sigma->0) =     -482.67593414


--------------------------------------------------------------------------------------------------------




--------------------------------------- Iteration      1(   4)  ---------------------------------------


    TRIAL :  cpu time     41.6248: real time     41.6491
    CORREC:  cpu time      0.0003: real time      0.0003
    --------------------------------------------
      LOOP:  cpu time     41.6552: real time     41.6796

 eigenvalue-minimisations  :  8960
 total energy-change (2. order) :-0.1173280E+01  (-0.1173182E+01)
 number of electron     208.0000000 magnetization 
 augmentation part      208.0000000 magnetization 

 Free energy of the ion-electron system (eV)
  ---------------------------------------------------
  alpha Z        PSCENC =       191.88443493
  Ewald energy   TEWEN  =     -3572.32588850
  -Hartree energ DENC   =     -3777.21485326
  -exchange      EXHF   =         0.00000000
  -V(xc)+E(xc)   XCENC  =       510.95796805
  PAW double counting   =      6096.44791030    -5945.05610920
  entropy T*S    EENTRO =        -0.00000000
  eigenvalues    EBANDS =     -2156.26621356
  atomic energy  EATOM  =      8167.72353685
  ---------------------------------------------------
  free energy    TOTEN  =      -483.84921440 eV

  energy without entropy =     -483.84921440  energy(sigma->0) =     -483.84921440


--------------------------------------------------------------------------------------------------------




--------------------------------------- Iteration      1(   5)  ---------------------------------------


    TRIAL :  cpu time     52.8738: real time     52.9061
    CORREC:  cpu time      0.0003: real time      0.0003
    CHARGE:  cpu time      0.4907: real time      0.4922
    --------------------------------------------
      LOOP:  cpu time     53.3785: real time     53.4293

 eigenvalue-minimisations  :  9984
 total energy-change (2. order) :-0.1117743E-01  (-0.1117709E-01)
 number of electron     208.0000002 magnetization 
 augmentation part       -0.4768761 magnetization 

 Free energy of the ion-electron system (eV)
  ---------------------------------------------------
  alpha Z        PSCENC =       191.88443493
  Ewald energy   TEWEN  =     -3572.32588850
  -Hartree energ DENC   =     -3777.21485326
  -exchange      EXHF   =         0.00000000
  -V(xc)+E(xc)   XCENC  =       510.95796805
  PAW double counting   =      6096.44791030    -5945.05610920
  entropy T*S    EENTRO =        -0.00000000
  eigenvalues    EBANDS =     -2156.27739099
  atomic energy  EATOM  =      8167.72353685
  ---------------------------------------------------
  free energy    TOTEN  =      -483.86039183 eV

  energy without entropy =     -483.86039183  energy(sigma->0) =     -483.86039183


--------------------------------------------------------------------------------------------------------




--------------------------------------- Iteration      1(   6)  ---------------------------------------


    POTLOK:  cpu time      0.0453: real time      0.0453
    SETDIJ:  cpu time      0.0028: real time      0.0028
    TRIAL :  cpu time      7.4910: real time      7.4973
    CORREC:  cpu time      2.6203: real time      2.6221
    CHARGE:  cpu time      0.4602: real time      0.4607
    --------------------------------------------
      LOOP:  cpu time     10.6326: real time     10.6572

 eigenvalue-minimisations  :     0
 total energy-change (2. order) : 0.6044375E+02  (-0.2333405E+02)
 number of electron     208.0000002 magnetization 
 augmentation part       -0.5329241 magnetization 

 Free energy of the ion-electron system (eV)
  ---------------------------------------------------
  alpha Z        PSCENC =       191.88443493
  Ewald energy   TEWEN  =     -3572.32588850
  -Hartree energ DENC   =     -4777.13938603
  -exchange      EXHF   =         0.00000000
  -V(xc)+E(xc)   XCENC  =       567.95233722
  PAW double counting   =     79908.89523365   -79762.61078943
  entropy T*S    EENTRO =        -0.00000000
  eigenvalues    EBANDS =     -1147.79611642
  atomic energy  EATOM  =      8167.72353685
  ---------------------------------------------------
  free energy    TOTEN  =      -423.41663774 eV

  energy without entropy =     -423.41663774  energy(sigma->0) =     -423.41663774


--------------------------------------------------------------------------------------------------------




--------------------------------------- Iteration      1(   7)  ---------------------------------------


    POTLOK:  cpu time      0.0424: real time      0.0424
    SETDIJ:  cpu time      0.0029: real time      0.0029
    TRIAL :  cpu time      7.1431: real time      7.1482
    CORREC:  cpu time      2.5933: real time      2.5953
    CHARGE:  cpu time      0.4604: real time      0.4604
    --------------------------------------------
      LOOP:  cpu time     10.2717: real time     10.2791

 eigenvalue-minimisations  :     0
 total energy-change (2. order) :-0.2332004E+02  (-0.3516294E+01)
 number of electron     208.0000002 magnetization 
 augmentation part       -0.5940512 magnetization 

 Free energy of the ion-electron system (eV)
  ---------------------------------------------------
  alpha Z        PSCENC =       191.88443493
  Ewald energy   TEWEN  =     -3572.32588850
  -Hartree energ DENC   =     -4416.78986666
  -exchange      EXHF   =         0.00000000
  -V(xc)+E(xc)   XCENC  =       550.63982530
  PAW double counting   =    107012.82790057  -106864.38816912
  entropy T*S    EENTRO =        -0.00000000
  eigenvalues    EBANDS =     -1516.30845148
  atomic energy  EATOM  =      8167.72353685
  ---------------------------------------------------
  free energy    TOTEN  =      -446.73667812 eV

  energy without entropy =     -446.73667812  energy(sigma->0) =     -446.73667812


--------------------------------------------------------------------------------------------------------




--------------------------------------- Iteration      1(   8)  ---------------------------------------


    POTLOK:  cpu time      0.0423: real time      0.0423
    SETDIJ:  cpu time      0.0028: real time      0.0028
    TRIAL :  cpu time      7.1347: real time      7.1399
    CORREC:  cpu time      2.6077: real time      2.6103
    CHARGE:  cpu time      0.4600: real time      0.4600
    --------------------------------------------
      LOOP:  cpu time     10.2647: real time     10.2862

 eigenvalue-minimisations  :     0
 total energy-change (2. order) :-0.3485943E+01  (-0.7470826E+00)
 number of electron     208.0000002 magnetization 
 augmentation part       -0.5804054 magnetization 

 Free energy of the ion-electron system (eV)
  ---------------------------------------------------
  alpha Z        PSCENC =       191.88443493
  Ewald energy   TEWEN  =     -3572.32588850
  -Hartree energ DENC   =     -4355.59359167
  -exchange      EXHF   =         0.00000000
  -V(xc)+E(xc)   XCENC  =       547.37347314
  PAW double counting   =    106031.64555110  -105882.88902580
  entropy T*S    EENTRO =        -0.00000000
  eigenvalues    EBANDS =     -1578.04111120
  atomic energy  EATOM  =      8167.72353685
  ---------------------------------------------------
  free energy    TOTEN  =      -450.22262114 eV

  energy without entropy =     -450.22262114  energy(sigma->0) =     -450.22262114


--------------------------------------------------------------------------------------------------------




--------------------------------------- Iteration      1(   9)  ---------------------------------------


    POTLOK:  cpu time      0.0425: real time      0.0425
    SETDIJ:  cpu time      0.0028: real time      0.0028
    TRIAL :  cpu time      7.1131: real time      7.1194
    CORREC:  cpu time      2.5809: real time      2.5824
    CHARGE:  cpu time      0.4585: real time      0.4593
    --------------------------------------------
      LOOP:  cpu time     10.2112: real time     10.2362

 eigenvalue-minimisations  :     0
 total energy-change (2. order) :-0.7455451E+00  (-0.1371708E+00)
 number of electron     208.0000002 magnetization 
 augmentation part       -0.5782008 magnetization 

 Free energy of the ion-electron system (eV)
  ---------------------------------------------------
  alpha Z        PSCENC =       191.88443493
  Ewald energy   TEWEN  =     -3572.32588850
  -Hartree energ DENC   =     -4335.39070042
  -exchange      EXHF   =         0.00000000
  -V(xc)+E(xc)   XCENC  =       546.06082138
  PAW double counting   =    101753.51180148  -101604.78190799
  entropy T*S    EENTRO =        -0.00000000
  eigenvalues    EBANDS =     -1597.65026400
  atomic energy  EATOM  =      8167.72353685
  ---------------------------------------------------
  free energy    TOTEN  =      -450.96816628 eV

  energy without entropy =     -450.96816628  energy(sigma->0) =     -450.96816628


--------------------------------------------------------------------------------------------------------




--------------------------------------- Iteration      1(  10)  ---------------------------------------


    POTLOK:  cpu time      0.0423: real time      0.0423
    SETDIJ:  cpu time      0.0028: real time      0.0028
    TRIAL :  cpu time      7.2087: real time      7.2142
    CORREC:  cpu time      2.5823: real time      2.5838
    CHARGE:  cpu time      0.4584: real time      0.4594
    --------------------------------------------
      LOOP:  cpu time     10.3245: real time     10.3326

 eigenvalue-minimisations  :     0
 total energy-change (2. order) :-0.1371349E+00  (-0.2321158E-01)
 number of electron     208.0000002 magnetization 
 augmentation part       -0.5811095 magnetization 

 Free energy of the ion-electron system (eV)
  ---------------------------------------------------
  alpha Z        PSCENC =       191.88443493
  Ewald energy   TEWEN  =     -3572.32588850
  -Hartree energ DENC   =     -4333.64133754
  -exchange      EXHF   =         0.00000000
  -V(xc)+E(xc)   XCENC  =       545.84030436
  PAW double counting   =     99483.32351205   -99334.65143493
  entropy T*S    EENTRO =        -0.00000000
  eigenvalues    EBANDS =     -1599.25842835
  atomic energy  EATOM  =      8167.72353685
  ---------------------------------------------------
  free energy    TOTEN  =      -451.10530114 eV

  energy without entropy =     -451.10530114  energy(sigma->0) =     -451.10530114


--------------------------------------------------------------------------------------------------------




--------------------------------------- Iteration      1(  11)  ---------------------------------------


    POTLOK:  cpu time      0.0420: real time      0.0420
    SETDIJ:  cpu time      0.0029: real time      0.0029
    TRIAL :  cpu time      7.1005: real time      7.1059
    CORREC:  cpu time      2.6529: real time      2.6551
    CHARGE:  cpu time      0.4603: real time      0.4603
    --------------------------------------------
      LOOP:  cpu time     10.2729: real time     10.2963

 eigenvalue-minimisations  :     0
 total energy-change (2. order) :-0.2317565E-01  (-0.4747860E-02)
 number of electron     208.0000002 magnetization 
 augmentation part       -0.5819805 magnetization 

 Free energy of the ion-electron system (eV)
  ---------------------------------------------------
  alpha Z        PSCENC =       191.88443493
  Ewald energy   TEWEN  =     -3572.32588850
  -Hartree energ DENC   =     -4333.00565496
  -exchange      EXHF   =         0.00000000
  -V(xc)+E(xc)   XCENC  =       545.77688903
  PAW double counting   =     99404.07369627   -99255.41218437
  entropy T*S    EENTRO =        -0.00000000
  eigenvalues    EBANDS =     -1599.84330604
  atomic energy  EATOM  =      8167.72353685
  ---------------------------------------------------
  free energy    TOTEN  =      -451.12847679 eV

  energy without entropy =     -451.12847679  energy(sigma->0) =     -451.12847679


--------------------------------------------------------------------------------------------------------




--------------------------------------- Iteration      1(  12)  ---------------------------------------


    POTLOK:  cpu time      0.0422: real time      0.0422
    SETDIJ:  cpu time      0.0028: real time      0.0028
    TRIAL :  cpu time      7.1378: real time      7.1447
    CORREC:  cpu time      2.6144: real time      2.6169
    CHARGE:  cpu time      0.4609: real time      0.4609
    --------------------------------------------
      LOOP:  cpu time     10.2739: real time     10.2972

 eigenvalue-minimisations  :     0
 total energy-change (2. order) :-0.4740651E-02  (-0.9735656E-03)
 number of electron     208.0000002 magnetization 
 augmentation part       -0.5822738 magnetization 

 Free energy of the ion-electron system (eV)
  ---------------------------------------------------
  alpha Z        PSCENC =       191.88443493
  Ewald energy   TEWEN  =     -3572.32588850
  -Hartree energ DENC   =     -4333.58109321
  -exchange      EXHF   =         0.00000000
  -V(xc)+E(xc)   XCENC  =       545.77895040
  PAW double counting   =     99707.88012750   -99559.21588959
  entropy T*S    EENTRO =        -0.00000000
  eigenvalues    EBANDS =     -1599.27739582
  atomic energy  EATOM  =      8167.72353685
  ---------------------------------------------------
  free energy    TOTEN  =      -451.13321744 eV

  energy without entropy =     -451.13321744  energy(sigma->0) =     -451.13321744


--------------------------------------------------------------------------------------------------------




--------------------------------------- Iteration      1(  13)  ---------------------------------------


    POTLOK:  cpu time      0.0419: real time      0.0419
    SETDIJ:  cpu time      0.0029: real time      0.0029
    TRIAL :  cpu time      7.1543: real time      7.1596
    CORREC:  cpu time      2.6261: real time      2.6275
    CHARGE:  cpu time      0.4591: real time      0.4600
    --------------------------------------------
      LOOP:  cpu time     10.3018: real time     10.3213

 eigenvalue-minimisations  :     0
 total energy-change (2. order) :-0.9743124E-03  (-0.1591000E-03)
 number of electron     208.0000002 magnetization 
 augmentation part       -0.5822338 magnetization 

 Free energy of the ion-electron system (eV)
  ---------------------------------------------------
  alpha Z        PSCENC =       191.88443493
  Ewald energy   TEWEN  =     -3572.32588850
  -Hartree energ DENC   =     -4333.77692551
  -exchange      EXHF   =         0.00000000
  -V(xc)+E(xc)   XCENC  =       545.78126857
  PAW double counting   =     99790.67635109   -99642.00995203
  entropy T*S    EENTRO =        -0.00000000
  eigenvalues    EBANDS =     -1599.08701714
  atomic energy  EATOM  =      8167.72353685
  ---------------------------------------------------
  free energy    TOTEN  =      -451.13419176 eV

  energy without entropy =     -451.13419176  energy(sigma->0) =     -451.13419176


--------------------------------------------------------------------------------------------------------




--------------------------------------- Iteration      1(  14)  ---------------------------------------


    POTLOK:  cpu time      0.0423: real time      0.0423
    SETDIJ:  cpu time      0.0027: real time      0.0027
    TRIAL :  cpu time      7.1065: real time      7.1134
    CORREC:  cpu time      2.5851: real time      2.5866
    CHARGE:  cpu time      0.4598: real time      0.4598
    --------------------------------------------
      LOOP:  cpu time     10.2130: real time     10.2351

 eigenvalue-minimisations  :     0
 total energy-change (2. order) :-0.1594549E-03  (-0.2383225E-04)
 number of electron     208.0000002 magnetization 
 augmentation part       -0.5822366 magnetization 

 Free energy of the ion-electron system (eV)
  ---------------------------------------------------
  alpha Z        PSCENC =       191.88443493
  Ewald energy   TEWEN  =     -3572.32588850
  -Hartree energ DENC   =     -4333.88945278
  -exchange      EXHF   =         0.00000000
  -V(xc)+E(xc)   XCENC  =       545.78466133
  PAW double counting   =     99759.28088336   -99610.61501382
  entropy T*S    EENTRO =        -0.00000000
  eigenvalues    EBANDS =     -1598.97751258
  atomic energy  EATOM  =      8167.72353685
  ---------------------------------------------------
  free energy    TOTEN  =      -451.13435121 eV

  energy without entropy =     -451.13435121  energy(sigma->0) =     -451.13435121


--------------------------------------------------------------------------------------------------------




--------------------------------------- Iteration      1(  15)  ---------------------------------------


    POTLOK:  cpu time      0.0421: real time      0.0421
    SETDIJ:  cpu time      0.0027: real time      0.0027
    TRIAL :  cpu time      7.1945: real time      7.1998
    CORREC:  cpu time      2.5874: real time      2.5897
    CHARGE:  cpu time      0.4588: real time      0.4588
    --------------------------------------------
      LOOP:  cpu time     10.2991: real time     10.3243

 eigenvalue-minimisations  :     0
 total energy-change (2. order) :-0.2384023E-04  (-0.4713864E-05)
 number of electron     208.0000002 magnetization 
 augmentation part       -0.5823049 magnetization 

 Free energy of the ion-electron system (eV)
  ---------------------------------------------------
  alpha Z        PSCENC =       191.88443493
  Ewald energy   TEWEN  =     -3572.32588850
  -Hartree energ DENC   =     -4333.89827171
  -exchange      EXHF   =         0.00000000
  -V(xc)+E(xc)   XCENC  =       545.78450463
  PAW double counting   =     99748.81756141   -99600.15179522
  entropy T*S    EENTRO =        -0.00000000
  eigenvalues    EBANDS =     -1598.96845744
  atomic energy  EATOM  =      8167.72353685
  ---------------------------------------------------
  free energy    TOTEN  =      -451.13437505 eV

  energy without entropy =     -451.13437505  energy(sigma->0) =     -451.13437505


--------------------------------------------------------------------------------------------------------




--------------------------------------- Iteration      1(  16)  ---------------------------------------


    POTLOK:  cpu time      0.0423: real time      0.0423
    SETDIJ:  cpu time      0.0029: real time      0.0029
    TRIAL :  cpu time      7.1279: real time      7.1343
    CORREC:  cpu time      2.5826: real time      2.5841
    CHARGE:  cpu time      0.4580: real time      0.4589
    --------------------------------------------
      LOOP:  cpu time     10.2290: real time     10.2523

 eigenvalue-minimisations  :     0
 total energy-change (2. order) :-0.4223286E-05  (-0.1327693E-05)
 number of electron     208.0000002 magnetization 
 augmentation part       -0.5823158 magnetization 

 Free energy of the ion-electron system (eV)
  ---------------------------------------------------
  alpha Z        PSCENC =       191.88443493
  Ewald energy   TEWEN  =     -3572.32588850
  -Hartree energ DENC   =     -4333.86385790
  -exchange      EXHF   =         0.00000000
  -V(xc)+E(xc)   XCENC  =       545.78345577
  PAW double counting   =     99755.56022267   -99606.89423709
  entropy T*S    EENTRO =        -0.00000000
  eigenvalues    EBANDS =     -1599.00204600
  atomic energy  EATOM  =      8167.72353685
  ---------------------------------------------------
  free energy    TOTEN  =      -451.13437927 eV

  energy without entropy =     -451.13437927  energy(sigma->0) =     -451.13437927


--------------------------------------------------------------------------------------------------------




--------------------------------------- Iteration      1(  17)  ---------------------------------------


    POTLOK:  cpu time      0.0422: real time      0.0422
    SETDIJ:  cpu time      0.0028: real time      0.0028
    TRIAL :  cpu time      7.1676: real time      7.1728
    CORREC:  cpu time      2.5814: real time      2.5830
    CHARGE:  cpu time      0.4585: real time      0.4594
    --------------------------------------------
      LOOP:  cpu time     10.2667: real time     10.2898

 eigenvalue-minimisations  :     0
 total energy-change (2. order) :-0.8211937E-06  (-0.3802905E-06)
 number of electron     208.0000002 magnetization 
 augmentation part       -0.5823175 magnetization 

 Free energy of the ion-electron system (eV)
  ---------------------------------------------------
  alpha Z        PSCENC =       191.88443493
  Ewald energy   TEWEN  =     -3572.32588850
  -Hartree energ DENC   =     -4333.88513599
  -exchange      EXHF   =         0.00000000
  -V(xc)+E(xc)   XCENC  =       545.78461321
  PAW double counting   =     99758.32126970   -99609.65537417
  entropy T*S    EENTRO =        -0.00000000
  eigenvalues    EBANDS =     -1598.98183610
  atomic energy  EATOM  =      8167.72353685
  ---------------------------------------------------
  free energy    TOTEN  =      -451.13438010 eV

  energy without entropy =     -451.13438010  energy(sigma->0) =     -451.13438010


--------------------------------------------------------------------------------------------------------




--------------------------------------- Iteration      1(  18)  ---------------------------------------


    POTLOK:  cpu time      0.0424: real time      0.0424
    SETDIJ:  cpu time      0.0028: real time      0.0028
    TRIAL :  cpu time      7.1052: real time      7.1112
    CORREC:  cpu time      2.5870: real time      2.5892
    CHARGE:  cpu time      0.4585: real time      0.4586
    --------------------------------------------
      LOOP:  cpu time     10.2261: real time     10.2349

 eigenvalue-minimisations  :     0
 total energy-change (2. order) :-0.3671448E-06  (-0.3986509E-07)
 number of electron     208.0000002 magnetization 
 augmentation part       -0.5823137 magnetization 

 Free energy of the ion-electron system (eV)
  ---------------------------------------------------
  alpha Z        PSCENC =       191.88443493
  Ewald energy   TEWEN  =     -3572.32588850
  -Hartree energ DENC   =     -4333.86973298
  -exchange      EXHF   =         0.00000000
  -V(xc)+E(xc)   XCENC  =       545.78395403
  PAW double counting   =     99757.71930051   -99609.05335420
  entropy T*S    EENTRO =        -0.00000000
  eigenvalues    EBANDS =     -1598.99663110
  atomic energy  EATOM  =      8167.72353685
  ---------------------------------------------------
  free energy    TOTEN  =      -451.13438046 eV

  energy without entropy =     -451.13438046  energy(sigma->0) =     -451.13438046


--------------------------------------------------------------------------------------------------------




--------------------------------------- Iteration      1(  19)  ---------------------------------------


    POTLOK:  cpu time      0.0427: real time      0.0427
    SETDIJ:  cpu time      0.0028: real time      0.0028
    TRIAL :  cpu time      7.1571: real time      7.1640
    CORREC:  cpu time      2.5801: real time      2.5826
    EDDIAG:  cpu time      2.3336: real time      2.3356
    CHARGE:  cpu time      0.4576: real time      0.4585
    --------------------------------------------
      LOOP:  cpu time     12.5868: real time     12.6161

 eigenvalue-minimisations  :     0
 total energy-change (2. order) :-0.2399611E-07  (-0.1394889E-07)
 number of electron     208.0000002 magnetization 
 augmentation part       -0.5823110 magnetization 

 Free energy of the ion-electron system (eV)
  ---------------------------------------------------
  alpha Z        PSCENC =       191.88443493
  Ewald energy   TEWEN  =     -3572.32588850
  -Hartree energ DENC   =     -4333.86992222
  -exchange      EXHF   =         0.00000000
  -V(xc)+E(xc)   XCENC  =       545.78393685
  PAW double counting   =     99757.15160362   -99608.48566508
  entropy T*S    EENTRO =        -0.00000000
  eigenvalues    EBANDS =     -1598.99641692
  atomic energy  EATOM  =      8167.72353685
  ---------------------------------------------------
  free energy    TOTEN  =      -451.13438049 eV

  energy without entropy =     -451.13438049  energy(sigma->0) =     -451.13438049


--------------------------------------------------------------------------------------------------------


  average scaling for gradient   1.0714


 average (electrostatic) potential at core
  the test charge radii are     0.5770  0.4325  0.5902
  (the norm of the test charge is              1.0000)
       1 -81.4164       2 -81.4164       3 -81.4164       4 -81.4164       5 -80.7516
       6 -80.7516       7 -80.7516       8 -80.7516       9 -81.7045      10 -81.7045
      11 -81.7045      12 -81.7045      13 -81.3630      14 -81.3630      15 -81.3629
      16 -81.3630      17 -80.7419      18 -80.7419      19 -80.7419      20 -80.7419
      21 -81.7248      22 -81.7248      23 -81.7247      24 -81.7248      25 -41.5012
      26 -41.5013      27 -41.5014      28 -41.5012      29 -40.3926      30 -40.3927
      31 -40.3926      32 -40.3927      33 -39.9791      34 -39.9790      35 -39.9792
      36 -39.9791      37 -40.0990      38 -40.0990      39 -40.0990      40 -40.0990
      41 -41.5911      42 -41.5909      43 -41.5909      44 -41.5910      45 -40.4337
      46 -40.4338      47 -40.4338      48 -40.4338      49 -40.0247      50 -40.0247
      51 -40.0247      52 -40.0247      53 -40.0582      54 -40.0582      55 -40.0581
      56 -40.0582      57-100.0120      58-100.0121      59-100.0120      60-100.0120
      61 -98.8189      62 -98.8189      63 -98.8189      64 -98.8189      65-100.0183
      66-100.0183      67-100.0183      68-100.0183      69 -98.7986      70 -98.7986
      71 -98.7986      72 -98.7986



 E-fermi :  -0.3761     XC(G=0):  -7.6902     alpha+bet : -6.9899

 Fermi energy:        -0.3761224897

 k-point     1 :       0.0000    0.0000    0.0000
  band No.  band energies     occupation 
      1     -20.8522      2.00000
      2     -20.8299      2.00000
      3     -20.7632      2.00000
      4     -20.7440      2.00000
      5     -20.7403      2.00000
      6     -20.7342      2.00000
      7     -20.7227      2.00000
      8     -20.7122      2.00000
      9     -14.9633      2.00000
     10     -14.9493      2.00000
     11     -14.8653      2.00000
     12     -14.8631      2.00000
     13     -14.8459      2.00000
     14     -14.8306      2.00000
     15     -14.7340      2.00000
     16     -14.7263      2.00000
     17     -14.0659      2.00000
     18     -14.0513      2.00000
     19     -13.9015      2.00000
     20     -13.9014      2.00000
     21     -13.8626      2.00000
     22     -13.8172      2.00000
     23     -13.7885      2.00000
     24     -13.7309      2.00000
     25      -9.6650      2.00000
     26      -9.6016      2.00000
     27      -9.5835      2.00000
     28      -9.5412      2.00000
     29      -9.5363      2.00000
     30      -9.5122      2.00000
     31      -9.4850      2.00000
     32      -9.4514      2.00000
     33      -9.3845      2.00000
     34      -9.3410      2.00000
     35      -9.3137      2.00000
     36      -9.2863      2.00000
     37      -9.2693      2.00000
     38      -9.2679      2.00000
     39      -9.2249      2.00000
     40      -9.1836      2.00000
     41      -8.1558      2.00000
     42      -8.1408      2.00000
     43      -8.0393      2.00000
     44      -7.9432      2.00000
     45      -7.9348      2.00000
     46      -7.8612      2.00000
     47      -7.6862      2.00000
     48      -7.6005      2.00000
     49      -5.8494      2.00000
     50      -5.7754      2.00000
     51      -5.7345      2.00000
     52      -5.7098      2.00000
     53      -5.6628      2.00000
     54      -5.6580      2.00000
     55      -5.5967      2.00000
     56      -5.4810      2.00000
     57      -5.4464      2.00000
     58      -5.4032      2.00000
     59      -5.3729      2.00000
     60      -5.3685      2.00000
     61      -5.3185      2.00000
     62      -5.1729      2.00000
     63      -5.1343      2.00000
     64      -5.1237      2.00000
     65      -5.0748      2.00000
     66      -4.9881      2.00000
     67      -4.9703      2.00000
     68      -4.9126      2.00000
     69      -4.8928      2.00000
[...]
    224      16.0780      0.00000
    225      16.0840      0.00000
    226      16.2942      0.00000
    227      16.3403      0.00000
    228      16.3801      0.00000
    229      16.6508      0.00000
    230      16.7293      0.00000
    231      16.7327      0.00000
    232      16.7545      0.00000
    233      16.9537      0.00000
    234      16.9974      0.00000
    235      17.0197      0.00000
    236      17.0839      0.00000
    237      17.2951      0.00000
    238      17.2976      0.00000
    239      17.2990      0.00000
    240      17.4995      0.00000
    241      17.5892      0.00000
    242      17.6379      0.00000
    243      17.6389      0.00000
    244      17.6673      0.00000
    245      17.8135      0.00000
    246      17.9375      0.00000
    247      17.9918      0.00000
    248      18.0033      0.00000
    249      18.1760      0.00000
    250      18.2830      0.00000
    251      18.4329      0.00000
    252      18.4748      0.00000
    253      18.5202      0.00000
    254      18.6022      0.00000
    255      18.7148      0.00000
    256      18.9164      0.00000


--------------------------------------------------------------------------------------------------------


 soft charge-density along one line, spin component           1
         0         1         2         3         4         5         6         7         8         9
 total charge-density along one line

 pseudopotential strength for first ion, spin component:           1
 12.563  21.138   0.003  -0.000  -0.008   0.005  -0.001  -0.014
 21.138  35.566   0.005  -0.000  -0.013   0.008  -0.001  -0.023
  0.003   0.005  -3.016   0.000   0.000  -5.400   0.001   0.001
 -0.000  -0.000   0.000  -3.016   0.000   0.001  -5.400   0.000
 -0.008  -0.013   0.000   0.000  -3.016   0.001   0.000  -5.401
  0.005   0.008  -5.400   0.001   0.001  -9.648   0.001   0.001
 -0.001  -0.001   0.001  -5.400   0.000   0.001  -9.648   0.000
 -0.014  -0.023   0.001   0.000  -5.401   0.001   0.000  -9.650
 total augmentation occupancy for first ion, spin component:           1
  8.621  -3.125   0.994   0.403  -0.943  -0.471  -0.183   0.468
 -3.125   1.179  -0.508  -0.191   0.526   0.234   0.086  -0.247
  0.994  -0.508   6.390   1.768  -0.782  -2.128  -0.704   0.349
  0.403  -0.191   1.768   5.104   0.887  -0.704  -1.603  -0.367
 -0.943   0.526  -0.782   0.887   7.790   0.349  -0.367  -2.791
 -0.471   0.234  -2.128  -0.704   0.349   0.724   0.270  -0.149
 -0.183   0.086  -0.704  -1.603  -0.367   0.270   0.517   0.146
  0.468  -0.247   0.349  -0.367  -2.791  -0.149   0.146   1.019


------------------------ aborting loop because EDIFF is reached ----------------------------------------


    FORLOC:  cpu time      0.0124: real time      0.0124
    FORNL :  cpu time      4.8319: real time      4.8346
    FORCOR:  cpu time      0.0384: real time      0.0384
    OFIELD:  cpu time      0.0037: real time      0.0043

 ---------------------------------------------------------------------------------------------

         DFTD3 V3.0 Rev 1        
 IVDW         = 11
 DF rpbe      
 parameters
 VDW_S6       =    1.0000
 VDW_S8       =    0.5140
 VDW_SR       =    0.8720
 rs18     =    1.0000
 alpha6   =   14.0000
 alpha8   =   16.0000
 k1-k3    =   16.0000    1.3333   -4.0000
 VDW_RADIUS   =   50.2022 A
 VDW_CNRADIUS =   21.1671 A
 Edisp (eV)   -6.72333

 E6    (eV) :    -5.7225
 E8    (eV) :    -1.0009
 % E8        : 14.89
    FORVDW:  cpu time      1.0583: real time      1.0638

 VOLUME and BASIS-vectors are now :
 -----------------------------------------------------------------------------
  energy-cutoff  :     1000.00
  volume of cell :      698.27
      direct lattice vectors                 reciprocal lattice vectors
     8.190000000  0.000000000  0.000000000     0.122100122  0.000000000  0.000000000
     0.000000000 12.588000000  0.000000000     0.000000000  0.079440737  0.000000000
     0.000000000  0.000000000  6.773000000     0.000000000  0.000000000  0.147645061

  length of vectors
     8.190000000 12.588000000  6.773000000     0.122100122  0.079440737  0.147645061


 FORCES acting on ions:
    Electron-Ion                     Ewald-Force                    Non-Local-Force
 -----------------------------------------------------------------------------------------------
   -.812E+02 0.130E+03 0.655E+02   0.855E+02 -.131E+03 -.652E+02   -.428E+01 0.128E+01 -.333E+00
   -.812E+02 -.130E+03 -.655E+02   0.855E+02 0.131E+03 0.652E+02   -.428E+01 -.128E+01 0.334E+00
   -.812E+02 -.130E+03 0.655E+02   0.855E+02 0.131E+03 -.652E+02   -.428E+01 -.128E+01 -.333E+00
   -.812E+02 0.130E+03 -.655E+02   0.855E+02 -.131E+03 0.652E+02   -.428E+01 0.128E+01 0.334E+00
   -.147E+03 0.209E+02 -.273E+02   0.148E+03 -.214E+02 0.273E+02   -.117E+01 0.448E+00 0.103E+00
   -.147E+03 -.209E+02 0.273E+02   0.148E+03 0.214E+02 -.273E+02   -.117E+01 -.448E+00 -.103E+00
   -.147E+03 -.209E+02 -.273E+02   0.148E+03 0.214E+02 0.273E+02   -.117E+01 -.448E+00 0.103E+00
   -.147E+03 0.209E+02 0.273E+02   0.148E+03 -.214E+02 -.273E+02   -.117E+01 0.448E+00 -.103E+00
   -.811E+02 -.981E+02 -.954E+02   0.885E+02 0.987E+02 0.979E+02   -.747E+01 -.405E+00 -.241E+01
   -.811E+02 0.982E+02 0.954E+02   0.885E+02 -.987E+02 -.979E+02   -.747E+01 0.406E+00 0.241E+01
   -.811E+02 0.981E+02 -.954E+02   0.885E+02 -.987E+02 0.979E+02   -.747E+01 0.405E+00 -.241E+01
   -.811E+02 -.981E+02 0.954E+02   0.885E+02 0.987E+02 -.979E+02   -.747E+01 -.405E+00 0.241E+01
   0.780E+02 -.861E+02 0.108E+03   -.822E+02 0.865E+02 -.110E+03   0.423E+01 -.247E+00 0.167E+01
   0.780E+02 0.861E+02 -.108E+03   -.823E+02 -.865E+02 0.110E+03   0.423E+01 0.248E+00 -.167E+01
   0.780E+02 0.861E+02 0.108E+03   -.823E+02 -.865E+02 -.110E+03   0.423E+01 0.247E+00 0.167E+01
   0.780E+02 -.861E+02 -.108E+03   -.822E+02 0.865E+02 0.110E+03   0.423E+01 -.247E+00 -.167E+01
   0.142E+03 0.184E+02 0.379E+02   -.144E+03 -.182E+02 -.385E+02   0.819E+00 -.287E+00 0.456E+00
   0.142E+03 -.184E+02 -.379E+02   -.144E+03 0.182E+02 0.385E+02   0.819E+00 0.286E+00 -.456E+00
   0.142E+03 -.184E+02 0.379E+02   -.144E+03 0.182E+02 -.385E+02   0.819E+00 0.287E+00 0.456E+00
   0.142E+03 0.184E+02 -.379E+02   -.144E+03 -.182E+02 0.385E+02   0.819E+00 -.287E+00 -.456E+00
   0.814E+02 0.122E+03 -.666E+02   -.888E+02 -.125E+03 0.660E+02   0.751E+01 0.220E+01 0.818E+00
   0.815E+02 -.122E+03 0.667E+02   -.888E+02 0.125E+03 -.660E+02   0.751E+01 -.220E+01 -.818E+00
   0.815E+02 -.122E+03 -.667E+02   -.888E+02 0.125E+03 0.660E+02   0.751E+01 -.220E+01 0.817E+00
   0.814E+02 0.122E+03 0.666E+02   -.888E+02 -.125E+03 -.660E+02   0.751E+01 0.220E+01 -.818E+00
   0.410E+02 -.310E+02 -.653E+01   -.465E+02 0.350E+02 0.698E+01   0.546E+01 -.402E+01 -.457E+00
   0.410E+02 0.310E+02 0.653E+01   -.465E+02 -.350E+02 -.697E+01   0.546E+01 0.402E+01 0.457E+00
   0.410E+02 0.310E+02 -.653E+01   -.465E+02 -.350E+02 0.697E+01   0.546E+01 0.402E+01 -.457E+00
   0.410E+02 -.310E+02 0.653E+01   -.465E+02 0.350E+02 -.697E+01   0.546E+01 -.402E+01 0.457E+00
   -.190E+02 -.337E+02 -.229E+02   0.203E+02 0.383E+02 0.265E+02   -.126E+01 -.464E+01 -.365E+01
   -.190E+02 0.337E+02 0.229E+02   0.203E+02 -.383E+02 -.265E+02   -.126E+01 0.464E+01 0.365E+01
   -.190E+02 0.337E+02 -.229E+02   0.203E+02 -.383E+02 0.265E+02   -.126E+01 0.464E+01 -.365E+01
   -.190E+02 -.337E+02 0.229E+02   0.203E+02 0.383E+02 -.265E+02   -.126E+01 -.464E+01 0.365E+01
   -.487E+02 0.405E+01 -.982E+01   0.543E+02 -.502E+01 0.111E+02   -.572E+01 0.989E+00 -.126E+01
   -.487E+02 -.405E+01 0.982E+01   0.543E+02 0.502E+01 -.111E+02   -.572E+01 -.989E+00 0.126E+01
   -.487E+02 -.405E+01 -.982E+01   0.543E+02 0.502E+01 0.111E+02   -.572E+01 -.989E+00 -.126E+01
   -.487E+02 0.405E+01 0.982E+01   0.543E+02 -.502E+01 -.111E+02   -.572E+01 0.989E+00 0.126E+01
   -.155E+02 0.425E+02 0.223E+02   0.168E+02 -.474E+02 -.253E+02   -.125E+01 0.492E+01 0.308E+01
   -.155E+02 -.425E+02 -.223E+02   0.168E+02 0.474E+02 0.253E+02   -.125E+01 -.492E+01 -.308E+01
   -.155E+02 -.425E+02 0.223E+02   0.168E+02 0.474E+02 -.253E+02   -.125E+01 -.492E+01 0.308E+01
   -.155E+02 0.425E+02 -.223E+02   0.168E+02 -.474E+02 0.253E+02   -.125E+01 0.492E+01 -.308E+01
   -.396E+02 0.201E+02 -.314E+02   0.450E+02 -.214E+02 0.354E+02   -.548E+01 0.129E+01 -.404E+01
   -.396E+02 -.201E+02 0.314E+02   0.450E+02 0.214E+02 -.354E+02   -.548E+01 -.129E+01 0.404E+01
   -.396E+02 -.201E+02 -.314E+02   0.450E+02 0.214E+02 0.354E+02   -.548E+01 -.129E+01 -.404E+01
   -.396E+02 0.201E+02 0.314E+02   0.450E+02 -.214E+02 -.354E+02   -.548E+01 0.129E+01 0.404E+01
   0.179E+02 0.377E+02 -.213E+02   -.192E+02 -.424E+02 0.248E+02   0.140E+01 0.470E+01 -.349E+01
   0.179E+02 -.377E+02 0.213E+02   -.192E+02 0.424E+02 -.248E+02   0.140E+01 -.470E+01 0.349E+01
   0.179E+02 -.377E+02 -.213E+02   -.192E+02 0.424E+02 0.248E+02   0.140E+01 -.470E+01 -.349E+01
   0.179E+02 0.377E+02 0.213E+02   -.192E+02 -.424E+02 -.248E+02   0.140E+01 0.470E+01 0.349E+01
   0.474E+02 0.418E+01 0.110E+02   -.530E+02 -.510E+01 -.124E+02   0.566E+01 0.934E+00 0.147E+01
   0.474E+02 -.418E+01 -.110E+02   -.530E+02 0.510E+01 0.124E+02   0.566E+01 -.935E+00 -.147E+01
   0.474E+02 -.418E+01 0.110E+02   -.530E+02 0.510E+01 -.124E+02   0.566E+01 -.934E+00 0.147E+01
   0.474E+02 0.418E+01 -.110E+02   -.530E+02 -.510E+01 0.124E+02   0.566E+01 0.934E+00 -.147E+01
   0.176E+02 -.288E+02 0.287E+02   -.187E+02 0.330E+02 -.327E+02   0.110E+01 -.423E+01 0.411E+01
   0.176E+02 0.288E+02 -.287E+02   -.187E+02 -.330E+02 0.327E+02   0.110E+01 0.423E+01 -.411E+01
   0.176E+02 0.288E+02 0.287E+02   -.187E+02 -.330E+02 -.327E+02   0.110E+01 0.423E+01 0.411E+01
   0.176E+02 -.288E+02 -.287E+02   -.187E+02 0.330E+02 0.327E+02   0.110E+01 -.423E+01 -.411E+01
   0.108E+03 -.103E+03 -.567E+02   -.113E+03 0.110E+03 0.617E+02   0.524E+01 -.737E+01 -.504E+01
   0.108E+03 0.103E+03 0.567E+02   -.113E+03 -.110E+03 -.617E+02   0.524E+01 0.737E+01 0.504E+01
   0.108E+03 0.103E+03 -.567E+02   -.113E+03 -.110E+03 0.617E+02   0.524E+01 0.737E+01 -.504E+01
   0.108E+03 -.103E+03 0.567E+02   -.113E+03 0.110E+03 -.617E+02   0.524E+01 -.737E+01 0.504E+01
   0.127E+03 0.101E+03 0.983E+02   -.153E+03 -.117E+03 -.119E+03   0.262E+02 0.169E+02 0.213E+02
   0.127E+03 -.101E+03 -.983E+02   -.153E+03 0.117E+03 0.119E+03   0.262E+02 -.169E+02 -.213E+02
   0.127E+03 -.101E+03 0.983E+02   -.153E+03 0.117E+03 -.119E+03   0.262E+02 -.169E+02 0.213E+02
   0.127E+03 0.101E+03 -.983E+02   -.153E+03 -.117E+03 0.119E+03   0.262E+02 0.169E+02 -.213E+02
   -.961E+02 0.855E+02 -.900E+02   0.101E+03 -.920E+02 0.960E+02   -.456E+01 0.666E+01 -.607E+01
   -.961E+02 -.854E+02 0.900E+02   0.101E+03 0.920E+02 -.960E+02   -.456E+01 -.666E+01 0.607E+01
   -.961E+02 -.855E+02 -.900E+02   0.101E+03 0.920E+02 0.960E+02   -.456E+01 -.666E+01 -.607E+01
   -.961E+02 0.855E+02 0.900E+02   0.101E+03 -.920E+02 -.960E+02   -.456E+01 0.666E+01 0.607E+01
   -.132E+03 -.113E+03 0.640E+02   0.159E+03 0.137E+03 -.739E+02   -.267E+02 -.242E+02 0.101E+02
   -.132E+03 0.113E+03 -.640E+02   0.159E+03 -.137E+03 0.739E+02   -.267E+02 0.242E+02 -.101E+02
   -.132E+03 0.113E+03 0.640E+02   0.159E+03 -.137E+03 -.739E+02   -.267E+02 0.242E+02 0.101E+02
   -.132E+03 -.113E+03 -.640E+02   0.159E+03 0.137E+03 0.739E+02   -.267E+02 -.242E+02 -.101E+02
 -----------------------------------------------------------------------------------------------
   0.921E+00 -.297E-03 0.458E-03   -.796E-12 0.114E-12 0.142E-13   -.921E+00 0.302E-03 -.457E-03


 POSITION                                       TOTAL-FORCE (eV/Angst)
 -----------------------------------------------------------------------------------
      2.37238      0.70669      2.61976         0.054413     -0.257268     -0.161750
      6.46740     11.88136      4.15317         0.054087      0.257466      0.162032
      2.37238      5.58729      6.00627         0.054719      0.257288     -0.161658
      6.46741      7.00068      0.76671         0.054289     -0.257319      0.161885
      3.21048      1.47171      3.45258         0.338648     -0.067109      0.066882
      7.30548     11.11630      3.32039         0.339447      0.067050     -0.067266
      3.21048      4.82227      0.06610         0.338042      0.067201      0.066632
      7.30549      7.76571      6.70689         0.338825     -0.067008     -0.067078
      2.40362      2.50055      3.92012         0.062297      0.285488      0.215391
      6.49860     10.08747      2.85284         0.062585     -0.285030     -0.215008
      2.40359      3.79345      0.53365         0.062454     -0.285634      0.215506
      6.49862      8.79454      6.23934         0.062205      0.285188     -0.215066
      5.84192      2.35717      6.27864        -0.053360      0.221888     -0.210188
      1.74697     10.23080      0.49432        -0.054191     -0.221389      0.210243
      5.84198      3.93684      2.89217        -0.054514     -0.221934     -0.210745
      1.74695      8.65119      3.88084        -0.053639      0.221723      0.210207
      4.97071      1.37376      0.00735        -0.336647     -0.044333     -0.097489
      0.87576     11.21424      6.76563        -0.336788      0.044125      0.097653
      4.97073      4.92024      3.39386        -0.336596      0.044345     -0.097350
      0.87574      7.66777      3.37914        -0.336832     -0.044392      0.097499
      5.72639      0.66429      0.93058        -0.058704     -0.275171      0.219475
      1.63143     11.92369      5.84238        -0.058509      0.274874     -0.219229
      5.72639      5.62972      4.31712        -0.058640      0.274745      0.219044
      1.63141      6.95830      2.45589        -0.058479     -0.274728     -0.219164
      0.33388      2.93713      3.45397         0.007355      0.000712     -0.004270
      4.42886      9.65095      3.31900         0.007348     -0.000703      0.004240
      0.33386      3.35689      0.06748         0.007008     -0.000991     -0.004191
      4.42888      9.23109      6.70551         0.007373      0.000680      0.004251
      2.61802      3.33653      4.57459         0.001415      0.011965      0.016190
      6.71300      9.25150      2.19840         0.001477     -0.012327     -0.016455
      2.61800      2.95748      1.18812         0.001428     -0.012046      0.016244
      6.71302      9.63051      5.58488         0.001478      0.012178     -0.016368
      4.25277      1.29729      3.68355         0.002854     -0.002510      0.006731
      0.15778     11.29070      3.08944         0.002581      0.002445     -0.006706
      4.25276      4.99669      0.29706         0.003248      0.002521      0.006855
      0.15778      7.59130      6.47592         0.002986     -0.002520     -0.006765
      2.60117     12.39469      2.05639        -0.008173     -0.001755     -0.017050
      6.69619      0.19337      4.71653        -0.008134      0.001577      0.016905
      2.60118      6.48728      5.44289        -0.008185      0.001718     -0.017002
      6.69621      6.10068      1.33007        -0.008103     -0.001796      0.017052
      7.78137      1.02588      1.55640        -0.016929      0.000122     -0.009882
      3.68641     11.56211      5.21655        -0.017262     -0.000282      0.010185
      7.78139      5.26818      4.94293        -0.017383     -0.000463     -0.010280
      3.68639      7.31988      1.83007        -0.017145      0.000260      0.010105
      5.48107     12.40663      1.56174         0.017491     -0.001954      0.028260
      1.38612      0.18137      5.21124         0.017488      0.001975     -0.028351
      5.48104      6.47537      4.94826         0.017507      0.002028      0.028366
      1.38609      6.11264      1.82475         0.017483     -0.002045     -0.028359
      3.93716      1.20228      6.51128        -0.001958     -0.006131     -0.004962
      8.03222     11.38573      0.26172        -0.001835      0.006054      0.004952
      3.93719      5.09168      3.12478        -0.002100      0.006157     -0.005013
      8.03220      7.49629      3.64823        -0.001852     -0.006081      0.004924
      5.64638      3.12300      5.53699        -0.007278      0.014363     -0.020907
      1.55142      9.46499      1.23598        -0.007245     -0.014551      0.021066
      5.64646      3.17100      2.15052        -0.007344     -0.014358     -0.020973
      1.55142      9.41702      4.62248        -0.007314      0.014466      0.021032
      1.17468      2.31770      3.38132        -0.220406      0.035022     -0.057972
      5.26967     10.27037      3.39163        -0.220809     -0.034925      0.058105
      1.17466      3.97630      6.76785        -0.219860     -0.034226     -0.058362
      5.26969      8.61167      0.00515        -0.220469      0.034893      0.058111
      1.13307      1.22732      2.57208        -0.281264      0.008454     -0.075225
      5.22807     11.36077      4.20083        -0.281386     -0.008636      0.075289
      1.13307      5.06668      5.95860        -0.281638     -0.008718     -0.075163
      5.22810      7.52128      0.81439        -0.281435      0.008705      0.075082
      6.96010      1.22529      0.94518         0.222532      0.036347      0.056581
      2.86512     11.36266      5.82777         0.223103     -0.035724     -0.057161
      6.96010      5.06872      4.33171         0.223053     -0.035565      0.057354
      2.86511      7.51932      2.44129         0.222796      0.035815     -0.057038
      7.05385      2.26635      0.07942         0.277664      0.075777      0.046795
      2.95888     10.32161      6.69353         0.278063     -0.075942     -0.047046
      7.05387      4.02768      3.46594         0.278835     -0.075933      0.047275
      2.95887      8.56038      3.30705         0.277832      0.075887     -0.046913
 -----------------------------------------------------------------------------------
    total drift:                                0.000005      0.000006      0.000001


--------------------------------------------------------------------------------------------------------



  FREE ENERGIE OF THE ION-ELECTRON SYSTEM (eV)
  ---------------------------------------------------
  free  energy   TOTEN  =      -457.85771014 eV

  energy  without entropy=     -457.85771014  energy(sigma->0) =     -457.85771014



--------------------------------------------------------------------------------------------------------


    POTLOK:  cpu time      0.0633: real time      0.0633


--------------------------------------------------------------------------------------------------------


 stress matrix after NEB project (eV)
     -5.82295     -0.00002      0.00000
     -0.00002     -6.97980      0.00000
      0.00000      0.00000     -9.02101
  FORCES: max atom, RMS     0.363221    0.233303
  FORCE total and by dimension    1.979642    0.339447
  Stress total and by dimension   12.806361    9.021010
     LOOP+:  cpu time    407.0971: real time    408.0403
    4ORBIT:  cpu time      0.0000: real time      0.0000

 total amount of memory used by VASP MPI-rank0   193776. kBytes
=======================================================================

   base      :      30000. kBytes
   nonl-proj :      96829. kBytes
   fftplans  :      13511. kBytes
   grid      :      19093. kBytes
   one-center:        110. kBytes
   wavefun   :      34233. kBytes

  
  
 General timing and accounting informations for this job:
 ========================================================
  
                  Total CPU time used (sec):      452.717
                            User time (sec):      449.834
                          System time (sec):        2.882
                         Elapsed time (sec):      457.184
  
                   Maximum memory used (kb):      540396.
                   Average memory used (kb):          N/A
  
                          Minor page faults:        65977
                          Major page faults:         1192
                 Voluntary context switches:         5943
