       N       E                     dE             d eps       ncg     rms          ort
DAV:   1     0.165663933078E+05    0.16566E+05   -0.10027E+06   768   0.246E+03
DAV:   2     0.106511476384E+04   -0.15501E+05   -0.14753E+05   768   0.430E+02
DAV:   3    -0.143190166590E+04   -0.24970E+04   -0.24623E+04   768   0.185E+02
DAV:   4    -0.152211585814E+04   -0.90214E+02   -0.89713E+02   768   0.359E+01
DAV:   5    -0.152513171635E+04   -0.30159E+01   -0.30140E+01   768   0.612E+00
SDA:   6    -0.114881016562E+04    0.37632E+03   -0.30140E+01   768   0.124E+04 0.000E+00
CGA:   7    -0.135598051276E+04   -0.20717E+03   -0.20653E+03   768   0.630E+02-0.298E+01
CGA:   8    -0.137678606207E+04   -0.20806E+02   -0.20797E+02   768   0.195E+02-0.856E-01
CGA:   9    -0.138318091148E+04   -0.63948E+01   -0.64135E+01   768   0.529E+01-0.128E+00
CGA:  10    -0.138506609753E+04   -0.18852E+01   -0.18902E+01   768   0.136E+01-0.284E-01
CGA:  11    -0.138555177440E+04   -0.48568E+00   -0.48550E+00   768   0.307E+00 0.121E-02
CGA:  12    -0.138566159944E+04   -0.10983E+00   -0.10990E+00   768   0.693E-01-0.560E-03
CGA:  13    -0.138568635000E+04   -0.24751E-01   -0.24790E-01   768   0.160E-01-0.325E-03
CGA:  14    -0.138569246434E+04   -0.61143E-02   -0.61257E-02   768   0.499E-02-0.799E-04
CGA:  15    -0.138569447288E+04   -0.20085E-02   -0.20016E-02   768   0.179E-02 0.440E-04
CGA:  16    -0.138569528487E+04   -0.81199E-03   -0.80874E-03   768   0.645E-03 0.167E-04
CGA:  17    -0.138569559917E+04   -0.31429E-03   -0.32325E-03   768   0.219E-03-0.383E-04
CGA:  18    -0.138569569178E+04   -0.92617E-04   -0.96819E-04   768   0.717E-04-0.216E-04
CGA:  19    -0.138569571743E+04   -0.25643E-04   -0.26034E-04   768   0.238E-04-0.332E-05
CGA:  20    -0.138569572582E+04   -0.83890E-05   -0.82328E-05   768   0.593E-05 0.215E-05
CGA:  21    -0.138569572806E+04   -0.22420E-05   -0.21625E-05   768   0.170E-05 0.196E-05
CGA:  22    -0.138569572879E+04   -0.72795E-06   -0.71486E-06   768   0.647E-06 0.671E-06
CGA:  23    -0.138569572915E+04   -0.36124E-06   -0.34572E-06   768   0.254E-06 0.177E-06
CGA:  24    -0.138569572931E+04   -0.15798E-06   -0.15662E-06   768   0.115E-06 0.100E-07
CGA:  25    -0.138569572933E+04   -0.20606E-07   -0.11256E-06   768   0.290E-06-0.146E-06
CGA:  26    -0.138569572934E+04   -0.18103E-07   -0.42727E-07   768   0.725E-07 0.126E-06
CGA:  27    -0.138569572934E+04    0.50641E-08   -0.10031E-07   768   0.396E-07 0.648E-07
   1 F= -.13856957E+04 E0= -.13856957E+04  d E =-.161307E-36
