84
Lattice="11.1427 0.0 0.0 0.0 6.7155 0.0 -1.280174981 3.7813e-05 11.967966634" Properties=species:S:1:pos:R:3:forces:R:3 energy=-475.39440501 stress="-0.0009057428383116748 0.004547650930246304 0.0022922504000627594 0.004547650930246304 -0.004538195043920591 -0.001081478769260044 0.0022922504000627594 -0.001081478769260044 0.00020721810297932416" free_energy=-475.39440501 pbc="T T T"
C        1.69662000       3.85849000       0.87722000       0.30363300       0.30488800      -0.68669000
C        8.97210000       0.27632000       5.03358000      -1.55447100      -0.69699100       0.01211900
C        8.16099000       3.05388000      11.26270000       0.33047400      -0.68206100       0.40041500
C        0.94729000       6.23315000       6.83542000       1.54231100       1.26161300      -1.07297400
C        2.79081000       3.29227000       0.17132000      -0.93696200      -1.44956400       1.44850600
C        7.80819000       6.37975000       5.66068000       1.56078600      -0.95676800      -1.74142700
C        8.33306000       3.58672000       0.01413000       1.29582900       1.49927300      -1.81323900
C        2.07626000       0.16910000       6.15302000      -1.13242800       0.97118000       1.86770200
C        3.27184000       2.02315000       0.52813000      -0.04748900       0.38416600      -0.08451800
C        7.35802000       5.10823000       5.24378000       0.56291100       1.24998700      -0.04782000
C        6.58853000       4.85924000      11.62370000      -0.80630900       0.09417300       0.54812600
C        2.53832000       1.43076000       6.62197000      -0.26888800      -0.76857500      -0.35418600
C        2.74809000       1.34868000       1.63114000      -0.67766700       1.25844300      -0.17957100
C        7.97335000       4.46117000       4.19584000       0.07609100      -0.69511600      -0.63403700
C        7.07146000       5.54631000      10.51100000       0.21630400      -0.66664200      -0.29873700
C        1.94715000       2.03926000       7.72175000      -0.81302300      -0.49136800      -0.01124600
C        1.74283000       1.96336000       2.40588000       0.51510500      -0.73478900      -0.23978100
C        9.04876000       5.07105000       3.51517000       0.16876000      -1.24818500      -0.22643300
C        8.06236000       4.94227000       9.72997000      -0.03016200      -0.36044500       0.65901000
C        0.84418000       1.42009000       8.38509000       1.87605800       1.86019100       0.32554800
C        1.20918000       3.16970000       1.99917000       0.46241300      -0.25700900       0.18948600
C        9.54154000       6.29114000       3.93546000      -0.27000900       0.42765100       0.39107500
C        8.66093000       3.74851000      10.14670000      -1.00946600       0.51540800       0.14862300
C        0.41551000       0.20035000       7.93956000      -1.00212900      -0.75028500       0.35891200
C        1.02753000       5.12945000       0.48564000      -0.55105600       0.00791100       0.79001500
C        9.55285000       1.58987000       5.39779000       0.26451600      -0.67388900       0.16455100
C        8.90795000       1.78581000      11.63290000      -0.55141100       1.26971500      -0.53752100
C        0.28143000       4.99371000       6.39517000      -0.07173400      -0.40718100       0.65467900
C        2.84894000       4.94633000      11.19910000       1.16892900       1.14117900       1.67361400
C        6.46366000       1.35573000       6.64026000      -0.51761000       0.26854900      -0.23864900
C        6.90760000       1.90286000       0.77503000      -0.32766200      -0.59387800      -2.53141200
C        3.42139000       5.21300000       5.22159000       0.67497900      -1.00031200       1.55651500
C        3.36906000       5.58091000       9.92862000      -0.28329600       0.88017500       0.43886500
C        6.03737000       1.84013000       7.99176000      -0.40269700       0.63918100       0.15022400
C        6.36228000       1.22877000       1.99283000       0.02666400       0.03422600      -0.01750900
C        3.88358000       4.66272000       3.91621000      -0.68157000      -1.33228400       0.13213100
O        0.07021000       5.66206000      11.26380000       0.00205500       0.08546700       0.04602800
O        9.14301000       2.07850000       6.59677000       0.13032600      -0.07844300      -0.29329500
O        9.82988000       1.25726000       0.82353000      -0.32833100      -0.21246800       0.63829900
O        0.64151000       4.55756000       5.18079000       0.69861400       0.74335000      -0.09141900
O        0.17594000       5.65046000       1.23327000       0.29772800      -0.01470900      -0.30388800
O       10.42300000       2.11232000       4.69296000       0.00642100       0.49118500       0.22677800
O        9.80935000       1.33475000      10.92830000       0.39385700      -0.39466000      -0.29343000
O       -0.54315000       4.36451000       7.08342000       0.18746000       0.49581900       0.04531200
O        2.08335000       3.84169000      11.03130000      -0.02284700       0.26035000      -1.82390500
O        7.16033000       0.15948000       6.73694000      -0.27551500       0.71375600       1.62893200
O        7.71946000       2.97945000       1.06203000      -0.36040700      -0.69772300       1.52723800
O        2.74476000       6.38127000       5.05984000      -0.45624200       0.16606500      -0.66212000
O        4.39185000       5.34294000       0.37814000      -0.14343100      -0.09895300      -1.24603400
O        6.18493000       1.83983000       5.56700000      -0.02319800       0.26725400      -0.22079300
O        5.39462000       1.60837000      11.54950000       0.17129000       0.15188400       2.02976100
O        3.62377000       4.71595000       6.34162000      -0.21509600       0.51765200      -1.44723600
H        2.79105000       1.62097000      11.88830000       0.01559500      -0.19738100       0.05220400
H        6.51826000       4.68640000       5.73224000      -0.63516400      -0.38624500       0.49134000
H        7.03767000       5.26638000       0.23851000       0.22685100      -0.04542900      -0.14428300
H        3.35084000       1.95437000       6.12617000       0.01348500      -0.30791500      -0.13848900
H        3.07951000       0.37922000       1.84829000       0.53482500      -1.15255600       0.40171600
H        7.59592000       3.45512000       3.93453000       0.40028600       0.64935400      -0.07067900
H        6.64341000       6.47968000      10.18600000      -0.15103800       0.18605400       0.19854700
H        2.32721000       3.00541000       8.01155000      -0.06115500       0.15601800       0.27226500
H        1.37004000       1.49065000       3.30832000      -0.02766000      -0.04672200      -0.13815000
H        9.58085000       4.49281000       2.73938000      -0.44099000       0.56777700       0.30633900
H        8.33854000       5.37663000       8.80715000       0.48536000       0.51317000      -0.75127600
H        0.49814000       1.97382000       9.27181000      -0.40017500      -0.75508900      -0.45615500
H        0.45035000       3.55374000       2.63053000      -0.68653000       0.67487900       0.03587700
H       10.40020000       0.00949000       3.45450000       0.13734000       0.04799100      -0.10209200
H        9.47187000       3.34006000       9.59150000       0.44828000      -0.29458400      -0.28060200
H       -0.40979000       6.42859000       8.43816000      -0.14187500      -0.03446000       0.10178100
H        3.88394000       6.51817000      10.18120000      -0.25890300      -0.17072500       0.14108700
H        5.74629000       2.89976000       7.99964000       0.21431500      -0.16429300      -0.39147500
H        5.62961000       0.49140000       1.68323000      -0.23960800       0.08389700       0.03276400
H        4.32771000       3.69681000       4.16087000       0.15067100      -0.04984200      -0.30364900
H        2.56510000       5.79888000       9.23339000      -0.22894400      -0.09392200      -0.07782200
H        6.82753000       1.70564000       8.70990000       0.22000400      -0.22718100       0.38633400
H        7.13930000       0.69591000       2.53915000       0.31972300       0.11170500       0.04051400
H        3.03897000       4.50340000       3.22013000       0.30160000       0.19789800       0.38748800
H        4.09211000       4.98967000       9.41385000       0.44401300      -0.87829300      -0.32495900
H        5.13551000       1.31149000       8.30352000       0.05075600      -0.33526300       0.12178300
H        5.95628000       1.99638000       2.65486000      -0.17026600      -0.17904600       0.13354000
H        4.59747000       5.27848000       3.42572000       0.66789300       0.70097800      -0.36268900
H       -0.47546000       6.49511000      11.17260000       0.08808500       0.12961500      -0.19382800
H        9.71728000       2.85527000       6.81813000      -0.02293600       0.39176600      -0.03725600
H       10.41790000       0.48322000       0.99371000       0.12533100      -0.56008400       0.16418800
H        0.12776000       3.75470000       5.02920000      -0.55157600      -1.23046500      -0.44895800
84
Lattice="11.1427 0.0 0.0 0.0 6.7155 0.0 -1.280174981 3.7813e-05 11.967966634" Properties=species:S:1:pos:R:3:forces:R:3 energy=-475.2509662 stress="-0.0009457509118085867 0.0005166658839314902 0.0029944076937063746 0.0005166658839314902 -0.0062770982109190444 0.00090535586474587 0.0029944076937063746 0.00090535586474587 0.001506881306752869" free_energy=-475.2509662 pbc="T T T"
C        1.62836000       3.69692000       0.88851000       0.76787200       1.14330800      -1.63574600
C        8.77676000       0.49262000       5.18814000      -0.60993500       0.02265400       1.45840500
C        8.26906000       2.87608000      11.17160000       0.14874200       0.07328500       0.17371900
C        1.06053000       6.34328000       6.79889000       0.47418100      -0.60177000      -0.73430300
C        2.76018000       3.13656000       0.19558000      -0.77849600      -1.49893000       3.03736100
C        7.68578000       6.59902000       5.88867000       0.98116900      -1.90458600      -2.66627400
C        7.17643000       3.45926000      11.84700000       0.64129200       0.26948200      -0.69095200
C        2.18801000       0.20517000       6.07771000      -2.41282800       2.14814200       3.10300900
C        3.28354000       1.91606000       0.73045000      -0.65311400       1.27482100      -0.82399500
C        7.16593000       5.36117000       5.39629000       0.75554300       1.07525600       0.20889700
C        6.71217000       4.70741000      11.44830000      -0.89147700      -0.10541000       1.63473400
C        2.52423000       1.52349000       6.44207000      -0.03160100      -0.16191700       0.46999200
C        2.65793000       1.28840000       1.80293000       0.49938600      -1.12010800       0.08510400
C        7.66144000       4.77519000       4.23769000       0.26091500       0.17295600      -0.05069400
C        7.28658000       5.40910000      10.42350000       0.62605300      -0.25572200      -1.05660900
C        1.93908000       2.15435000       7.55639000       0.12590800       0.31622400       0.03720400
C        1.54330000       1.81168000       2.42263000      -0.38258200       0.91412100       0.08055200
C        8.74554000       5.38690000       3.59214000      -0.51029800      -0.84792300      -0.07168700
C        8.32450000       4.81443000       9.65537000      -0.37489200       0.25366600       0.78514000
C        0.98598000       1.51054000       8.34903000       0.65457300       0.01804500      -0.87640100
C        1.06317000       3.03404000       1.98403000      -0.65508900       0.65869900      -0.15932300
C        9.29230000       6.54421000       4.08460000       0.44399900       0.35769300      -0.62180700
C        8.81994000       3.58186000      10.07670000       0.17321600      -0.25095400      -0.69223000
C        0.53839000       0.27648000       7.94115000      -0.49756100      -0.59364100       0.49050500
C        1.01847000       5.04112000       0.47227000       0.41038700      -1.18872300       0.01023700
C        9.47488000       1.75991000       5.55947000      -0.71016100      -0.23032200       0.36044600
C        8.95923000       1.61978000      11.55430000       0.94120900      -0.75435200      -1.04001700
C        0.35965000       5.08650000       6.39781000      -0.71090500      -0.24043500       1.39820000
C        2.93528000       4.80490000      11.32020000       0.16487600       0.75097100      -0.04778700
C        6.29745000       1.57379000       6.59742000      -1.19724100       0.81370900      -1.23228300
C        6.97708000       1.76495000       0.63515000       0.18860100      -0.11817600      -0.74208500
C        3.46836000       5.15345000       5.22645000       1.07510200      -0.62964600      -0.84147300
C        3.52360000       5.28604000      10.03460000      -0.28385100      -0.78313900      -0.83158300
C        5.72312000       2.23752000       7.82402000       0.33343000       0.12403200      -0.81844500
C        6.45005000       1.21190000       1.90249000      -0.23006900       0.21385500       0.47843400
C        3.83842000       4.53883000       3.84836000      -0.33550800       1.98149400       0.36524900
O        0.23030000       5.62493000      11.33380000       0.17807800      -0.03373200       0.06021200
O        9.18694000       2.29651000       6.76683000      -0.70202600      -1.11786100      -0.33633900
O        9.86212000       1.03620000       0.73744000      -0.21556000       0.64406600      -0.41809000
O        0.75784000       4.49530000       5.27655000      -0.00063400      -0.73886900      -0.86702800
O        0.08977000       5.50877000       1.12056000      -0.55543200       0.46710000       0.50156300
O       10.26940000       2.28500000       4.78599000       0.78228200       0.50959000      -0.42307800
O        9.86714000       1.12663000      10.80950000      -1.05888700       0.56940800       1.12303300
O       -0.56128000       4.61369000       7.10927000       0.48527800       0.22199300      -0.56452300
O        2.14220000       3.71292000      11.12820000      -0.28713700      -0.53688500      -1.52092000
O        7.01198000       0.44171000       6.91150000      -0.00875000       0.69702500       1.64978600
O        7.81334000       2.87157000       0.95867000      -0.48808200      -0.70778300      -0.31934200
O        2.87017000       6.40421000       5.07001000       0.39347200      -1.17353200      -2.26260700
O        4.41505000       5.26402000       0.44661000       0.27961100       0.41215200       0.95831300
O        6.07088000       1.88659000       5.42720000       0.31555000      -0.02414500       1.02678100
O        5.50698000       1.33925000      11.46620000       0.30530000       0.79981900       1.09678100
O        3.73903000       4.73270000       6.32464000      -0.08991900      -0.33975600       0.08541200
H        4.15657000       1.52369000       0.25243000       0.30698200      -0.38701800      -0.11618700
H        6.38314000       4.91976000       5.95140000      -0.84638100      -0.38095700       0.39439800
H        7.18322000       5.12004000       0.10556000       0.31376200      -0.00543000      -0.51665900
H        3.30218000       2.00177000       5.87429000       0.19266400       0.24752200      -0.08189300
H        3.02537000       0.33624000       2.17747000       0.23666800       0.09062200      -0.19332100
H        7.21938000       3.88203000       3.79829000       0.05294300       0.06074000       0.32969800
H        6.88900000       6.37907000      10.21270000       0.00402700       0.47513500      -0.34077900
H        2.20802000       3.16376000       7.85831000       0.30094000      -0.09531600      -0.33942400
H        1.04918000       1.36405000       3.26063000       0.03333400      -0.44869000       0.28006000
H        9.13099000       4.90521000       2.71997000       0.35685900      -0.02432800      -0.49529000
H        8.75480000       5.33958000       8.81465000       0.06005100      -0.06401600      -0.05092900
H        0.58703000       1.96716000       9.21969000      -0.25180700       0.36236500       0.58180100
H        0.21446000       3.53679000       2.45957000       0.25826900      -0.36702500      -0.06905400
H       10.10490000       0.32250000       3.57520000       0.15807600      -0.16627000      -0.13563500
H        9.62754000       3.07948000       9.53120000      -0.28266400       0.39327300       0.21966500
H       -0.23740000       6.52610000       8.57375000       0.39020400      -0.01919900      -0.79713300
H        4.11622000       6.18803000      10.20780000      -0.19417400      -0.13938200      -0.23312600
H        5.19365000       3.13715000       7.50646000       0.25749600       0.08268600       0.18190500
H        5.92157000       0.30906000       1.68888000      -0.27460100      -0.72432600      -0.01961300
H        4.37599000       3.62731000       3.95239000       0.30289700      -0.72800200       0.20441400
H        2.72602000       5.37758000       9.24949000       0.66341700       0.24806000       0.64696800
H        6.53507000       2.41553000       8.52954000      -0.27278400       0.05021800       0.26197300
H        7.28769000       1.04879000       2.57576000       0.00076000      -0.11273800       0.17795200
H        2.92704000       4.44032000       3.26920000      -0.17784600      -0.30240400      -0.01490700
H        4.15291000       4.43539000       9.70078000       0.07016100       0.54643200      -0.12512100
H        4.98153000       1.54835000       8.19328000      -0.20811600      -0.31534000       0.67099900
H        5.75281000       1.90004000       2.39641000       0.18168900       0.08196400      -0.06696800
H        4.44015000       5.27843000       3.27085000      -0.14925200      -0.39376300       0.45067400
H       -0.26256000       6.48472000      11.15560000      -0.15942200      -0.13488200       0.11618400
H        9.70417000       3.11847000       6.84309000       0.52591700       1.01539700       0.27616100
H       10.41950000       0.22507000       0.85520000       0.17611400      -0.50484300       0.15194500
H        0.20255000       3.65311000       5.08996000       0.23982700       0.71426600       0.31779300
84
Lattice="11.1427 0.0 0.0 0.0 6.7155 0.0 -1.280174981 3.7813e-05 11.967966634" Properties=species:S:1:pos:R:3:forces:R:3 energy=-475.05515808 stress="0.004153093930853595 -0.0027242689372290216 0.0057107561558546495 -0.0027242689372290216 0.005145968236562599 0.005804584762544053 0.0057107561558546495 0.005804584762544053 0.00040900609301912995" free_energy=-475.05515808 pbc="T T T"
C        1.69331000       3.80203000       0.89910000       0.59188300       0.42422500      -0.75421500
C        8.76460000       0.46747000       5.06566000       0.07379000      -0.17357200       0.96239900
C        8.22509000       2.84658000      11.01700000      -1.92819600       0.23652800       1.70955800
C        1.03029000       6.36053000       6.89573000       0.38217400      -0.70224400      -0.41835900
C        2.85058000       3.23739000       0.23646000      -1.65664200      -1.75590600       1.44229900
C        7.73791000       6.48766000       5.82754000       2.10572800      -1.82557100      -4.00251200
C        7.10004000       3.48327000      11.77620000       2.95963400       0.86056800      -3.98655500
C        2.15630000       0.20266000       6.25734000      -0.26399700       1.76466900       1.21649400
C        3.28535000       1.94611000       0.58341000       0.22665900      -0.53807000       0.38749100
C        7.34627000       5.18152000       5.36285000       0.62992200       2.18142000       0.61933100
C        6.69304000       4.77181000      11.36800000      -0.52358200      -1.14869000       2.21634000
C        2.59882000       1.49551000       6.65270000       0.59034600      -0.92137400      -0.00179700
C        2.67757000       1.25696000       1.64784000      -0.86018300       1.30825800       0.32229300
C        7.89682000       4.63596000       4.21265000      -0.12936200      -0.08445400       0.32040500
C        7.28194000       5.44255000      10.34600000       1.25970200      -0.75985500      -2.05282400
C        2.05037000       2.12201000       7.77368000      -0.89769200      -0.05156800      -0.18885500
C        1.63071000       1.87116000       2.38067000       0.74343500      -0.42086300      -0.60161200
C        8.89754000       5.29866000       3.51614000      -0.43886100       0.76290900       0.49292600
C        8.25753000       4.77627000       9.52467000      -1.02582000      -0.00254700       1.15678700
C        0.91062000       1.58592000       8.41024000       0.53853000      -1.00704000      -0.40316300
C        1.15682000       3.11351000       1.99511000      -0.48676900       0.47951800       0.43938600
C        9.32635000       6.55179000       3.92050000      -0.05736800      -0.04677500       0.88230700
C        8.71129000       3.48126000       9.88685000       0.34661800       1.54458300      -1.21811000
C        0.45305000       0.32694000       7.96542000      -0.23526100       1.14488800       0.37660700
C        0.96656000       5.07078000       0.49065000       0.64708300      -0.28119900       0.17847800
C        9.42075000       1.76188000       5.49238000      -0.37058300      -0.15953500      -0.70638100
C        8.89671000       1.59694000      11.44280000       0.32314600       0.50674800       0.40543000
C        0.39558000       5.06228000       6.51118000      -0.76368400       0.07206100       0.01449800
C        2.86648000       4.93332000      11.28910000       0.72714500       1.73160100       1.20268400
C        6.28545000       1.38616000       6.60942000      -1.09288500       1.48637200      -1.15087600
C        6.99636000       1.74851000       0.61201000      -0.98861500      -0.91326500      -1.99753900
C        3.54891000       5.16810000       5.46273000       1.52904800      -1.17244500       0.87346300
C        3.20043000       5.68666000      10.00680000      -0.30500700      -0.57215900       0.10266000
C        5.70622000       2.02564000       7.85214000      -0.13576300      -0.27759000       0.44535100
C        6.43883000       1.18000000       1.87429000       0.42086600      -0.13271100       0.86039100
C        4.04049000       4.58726000       4.16691000      -0.84496100       0.45225300      -0.68212900
O        0.10586000       5.65287000      11.33070000       0.44815700      -0.57011400      -0.13478100
O        9.01906000       2.33167000       6.64127000      -0.37202800      -0.23861700       0.23194700
O        9.81396000       1.07833000       0.66428000      -0.43452800      -0.02669800      -0.32965700
O        0.69514000       4.60833000       5.27945000       0.66340200       0.20453500      -0.14933000
O        0.04539000       5.56046000       1.15714000      -0.15467800      -0.32072600       0.29200400
O       10.26850000       2.30830000       4.78196000       0.45942400       0.02861200      -0.21589100
O        9.85541000       1.14710000      10.80240000       0.07077700      -0.39551200      -0.35256300
O       -0.45441000       4.50230000       7.21697000       0.16004800       0.05888900       0.06803400
O        2.17186000       3.74985000      11.10490000       0.52003400       1.35071300      -1.37179900
O        7.09771000       0.30478000       6.85993000      -0.75133300       0.66842900       2.19988200
O        7.76919000       2.89917000       0.81427000      -1.24418100      -1.27006200       2.38083700
O        2.85270000       6.30524000       5.24524000      -0.38821400       0.37383600      -1.03680000
O        4.44829000       5.35557000       0.45044000      -0.51183000      -0.82768500      -1.40892300
O        6.03907000       1.77243000       5.46107000       0.32586100      -0.52368600       1.18577300
O        5.43563000       1.31779000      11.44720000       0.84594800       0.90183800       1.61269600
O        3.83301000       4.73007000       6.57810000      -0.56405800       0.41036100      -0.56816100
H        4.11405000       1.45793000       0.03913000      -0.51520400       0.52707800       0.18523000
H        6.59313000       4.73102000       5.95042000      -0.75462300      -0.77695900       0.27716100
H        7.21274000       5.23715000       0.01719000      -0.16864400       0.07516400      -0.12640900
H        3.49292000       1.91979000       6.18375000      -0.44417400      -0.20153100      -0.00587800
H        2.95880000       0.29184000       1.99524000       0.56938700      -0.66505700      -0.22799300
H        7.53771000       3.69037000       3.86899000      -0.11651700      -0.55614000      -0.14009700
H        6.90211000       6.41036000      10.08810000       0.07615700       0.45230800      -0.17848700
H        2.48048000       3.04709000       8.10479000       0.06717500       0.34304600       0.10642000
H        1.21618000       1.31988000       3.20250000      -0.28336500       0.05759300       0.34732200
H        9.33727000       4.90494000       2.65323000       0.46658700      -0.78344100      -1.07837300
H        8.56724000       5.28562000       8.63444000       0.46930200      -0.04541300      -0.27128400
H        0.43207000       2.04086000       9.26708000       0.12507000       0.13737700      -0.07873800
H        0.35710000       3.62927000       2.54380000       0.22656000      -0.48199500      -0.24510600
H       10.17080000       0.26897000       3.40417000      -0.13612600       0.34164200       0.05191100
H        9.49181000       3.01405000       9.26842000      -0.44984300       0.15162400       0.46610800
H       -0.40817000       6.59560000       8.42111000      -0.25741200      -0.10665900       0.25363400
H        4.10924000       6.24812000      10.18480000       0.11883200       0.17996000       0.02518600
H        5.16826000       2.93297000       7.57710000       0.15914200      -0.02708100      -0.09594200
H        5.72713000       0.38390000       1.60823000       0.18934700       0.38342600       0.20803000
H        4.43380000       3.60036000       4.28579000       0.27702800      -0.56180500       0.29297700
H        2.37869000       6.40112000       9.75812000       0.45845700      -0.64507900       0.15993700
H        6.47800000       2.26543000       8.59606000      -0.06755900      -0.18426200      -0.18984900
H        7.25571000       0.74063000       2.51039000      -0.59735000       0.45966800      -0.51498400
H        3.18520000       4.55765000       3.47301000       0.30478900      -0.00852300       0.00851700
H        3.36402000       4.97165000       9.19315000      -0.19282400       0.28770900      -0.09801300
H        4.97094000       1.34845000       8.33201000       0.43608500       0.11112700      -0.14326700
H        5.96865000       2.00138000       2.45596000       0.12302900      -0.53908300      -0.14884500
H        4.80454000       5.22849000       3.72086000      -0.00720600       0.10129400       0.02161700
H       -0.45525000       6.45708000      11.16230000      -0.13237000       0.40298900      -0.14710800
H        9.53469000       3.17545000       6.74537000       0.17081200       0.02598300       0.18753200
H       10.33300000       0.23018000       0.79876000       0.07372000       0.01903200       0.17511000
H        0.20242000       3.77260000       5.10220000      -0.35154500      -0.30727700       0.05775800
84
Lattice="11.1427 0.0 0.0 0.0 6.7155 0.0 -1.280174981 3.7813e-05 11.967966634" Properties=species:S:1:pos:R:3:forces:R:3 energy=-474.85926819 stress="0.00201044626302913 -0.0002884887933074501 0.0026892228634871865 -0.0002884887933074501 0.00270560682494263 -0.0001669478860991254 0.0026892228634871865 -0.0001669478860991254 0.00033456985518384616" free_energy=-474.85926819 pbc="T T T"
C        1.66212000       3.78116000       0.79960000      -0.50525900       0.60236200      -0.38964800
C        8.84201000       0.44134000       5.11338000      -0.01014400       0.50776600       0.19659400
C        8.12812000       2.93229000      11.13440000       1.04934600      -0.24491500      -0.89966400
C        1.06182000       6.28783000       6.97218000       0.60143700      -0.45099800      -1.55591000
C        2.79002000       3.23182000       0.08939000      -1.89149600      -1.88112100       3.36423800
C        7.79284000       6.47588000       5.81528000       1.30764400      -0.48959100      -1.31957000
C        7.03044000       3.49700000      11.78710000       1.15202200       2.17080100      -2.48942000
C        2.12731000       0.19964000       6.21109000      -1.64130000       2.16346000       3.37259600
C        3.28799000       1.97394000       0.53232000       0.30588200       0.71462200      -0.98049000
C        7.49329000       5.16469000       5.53440000      -0.66711500      -0.75915000      -0.39837700
C        6.62796000       4.80374000      11.38820000      -0.54701300      -0.50172600       1.32688700
C        2.53477000       1.49361000       6.66880000       0.37674000      -0.57408800      -0.61713600
C        2.72882000       1.29145000       1.60262000      -0.52091000       0.18140300       0.61206200
C        8.07261000       4.50751000       4.45786000       0.73243100       0.08821400      -0.75939000
C        7.23509000       5.47801000      10.36690000       0.98893600      -0.13783400      -1.48349500
C        1.96484000       2.11983000       7.76631000      -0.69731400       0.28643300       0.80855400
C        1.63426000       1.83264000       2.29827000       0.02720500       0.64465800      -1.05809000
C        9.00949000       5.18113000       3.65356000       0.23667300       0.71594400       0.12886400