 540 540   0   0
  0.1041843E+02  0.1862433E-08  0.1857589E-08  0.1626169E-08  0.5000000E-15
   1.0000000000000000E-004
  CAR 
 unknown system                          
     11.20403871    -23.15291042  301      0.26707657      1.00000000
    -23.153  0.0000E+00  0.0000E+00
    -23.038  0.0000E+00  0.0000E+00
    -22.924  0.0000E+00  0.0000E+00
    -22.809  0.0000E+00  0.0000E+00
    -22.695  0.0000E+00  0.0000E+00
    -22.580  0.0000E+00  0.0000E+00
    -22.466  0.0000E+00  0.0000E+00
    -22.351  0.0000E+00  0.0000E+00
    -22.237  0.0000E+00  0.0000E+00
    -22.122  0.0000E+00  0.0000E+00
    -22.008  0.0000E+00  0.0000E+00
    -21.893  0.0000E+00  0.0000E+00
    -21.779  0.0000E+00  0.0000E+00
    -21.664  0.0000E+00  0.0000E+00
    -21.550  0.1770E+02  0.2027E+01
    -21.435  0.2434E+03  0.3787E+02
    -21.321  0.3573E+03  0.9892E+02
    -21.206  0.0000E+00  0.1080E+03
    -21.091  0.2384E+03  0.1353E+03
    -20.977  0.6228E+03  0.2153E+03
    -20.862  0.0000E+00  0.2160E+03
    -20.748  0.0000E+00  0.2160E+03
    -20.633  0.0000E+00  0.2160E+03
    -20.519  0.0000E+00  0.2160E+03
    -20.404  0.1234E+03  0.2301E+03
    -20.290  0.4274E+03  0.2929E+03
    -20.175  0.8193E+02  0.3234E+03
    -20.061  0.9095E+00  0.3241E+03
    -19.946  0.7403E+03  0.4148E+03
    -19.832  0.0000E+00  0.4320E+03
    -19.717  0.0000E+00  0.4320E+03
    -19.603  0.0000E+00  0.4320E+03
    -19.488  0.0000E+00  0.4320E+03
    -19.374  0.0000E+00  0.4320E+03
    -19.259  0.0000E+00  0.4320E+03
    -19.145  0.0000E+00  0.4320E+03
    -19.030  0.0000E+00  0.4320E+03
    -18.916  0.0000E+00  0.4320E+03
    -18.801  0.0000E+00  0.4320E+03
    -18.687  0.0000E+00  0.4320E+03
    -18.572  0.0000E+00  0.4320E+03
    -18.457  0.0000E+00  0.4320E+03
    -18.343  0.0000E+00  0.4320E+03
    -18.228  0.0000E+00  0.4320E+03
    -18.114  0.0000E+00  0.4320E+03
    -17.999  0.0000E+00  0.4320E+03
    -17.885  0.0000E+00  0.4320E+03
    -17.770  0.0000E+00  0.4320E+03
    -17.656  0.0000E+00  0.4320E+03
    -17.541  0.0000E+00  0.4320E+03
    -17.427  0.0000E+00  0.4320E+03
    -17.312  0.0000E+00  0.4320E+03
    -17.198  0.0000E+00  0.4320E+03
    -17.083  0.0000E+00  0.4320E+03
    -16.969  0.0000E+00  0.4320E+03
    -16.854  0.0000E+00  0.4320E+03
    -16.740  0.0000E+00  0.4320E+03
    -16.625  0.0000E+00  0.4320E+03
    -16.511  0.0000E+00  0.4320E+03
    -16.396  0.0000E+00  0.4320E+03
    -16.282  0.0000E+00  0.4320E+03
    -16.167  0.0000E+00  0.4320E+03
    -16.052  0.7894E+01  0.4329E+03
    -15.938  0.5320E+03  0.4989E+03
    -15.823  0.0000E+00  0.5400E+03
    -15.709  0.0000E+00  0.5400E+03
    -15.594  0.0000E+00  0.5400E+03
    -15.480  0.0000E+00  0.5400E+03
    -15.365  0.0000E+00  0.5400E+03
    -15.251  0.0000E+00  0.5400E+03
    -15.136  0.0000E+00  0.5400E+03
    -15.022  0.0000E+00  0.5400E+03
    -14.907  0.0000E+00  0.5400E+03
    -14.793  0.0000E+00  0.5400E+03
    -14.678  0.0000E+00  0.5400E+03
    -14.564  0.0000E+00  0.5400E+03
    -14.449  0.0000E+00  0.5400E+03
    -14.335  0.0000E+00  0.5400E+03
    -14.220  0.0000E+00  0.5400E+03
    -14.106  0.0000E+00  0.5400E+03
    -13.991  0.0000E+00  0.5400E+03
    -13.877  0.0000E+00  0.5400E+03
    -13.762  0.0000E+00  0.5400E+03
    -13.647  0.0000E+00  0.5400E+03
    -13.533  0.0000E+00  0.5400E+03
    -13.418  0.0000E+00  0.5400E+03
    -13.304  0.0000E+00  0.5400E+03
    -13.189  0.0000E+00  0.5400E+03
    -13.075  0.0000E+00  0.5400E+03
    -12.960  0.0000E+00  0.5400E+03
    -12.846  0.0000E+00  0.5400E+03
    -12.731  0.0000E+00  0.5400E+03
    -12.617  0.0000E+00  0.5400E+03
    -12.502  0.0000E+00  0.5400E+03
    -12.388  0.0000E+00  0.5400E+03
    -12.273  0.0000E+00  0.5400E+03
    -12.159  0.0000E+00  0.5400E+03
    -12.044  0.0000E+00  0.5400E+03
    -11.930  0.0000E+00  0.5400E+03
    -11.815  0.0000E+00  0.5400E+03
    -11.701  0.0000E+00  0.5400E+03
    -11.586  0.0000E+00  0.5400E+03
    -11.472  0.0000E+00  0.5400E+03
    -11.357  0.0000E+00  0.5400E+03
    -11.243  0.0000E+00  0.5400E+03
    -11.128  0.0000E+00  0.5400E+03
    -11.013  0.0000E+00  0.5400E+03
    -10.899  0.0000E+00  0.5400E+03
    -10.784  0.0000E+00  0.5400E+03
    -10.670  0.0000E+00  0.5400E+03
    -10.555  0.0000E+00  0.5400E+03
    -10.441  0.0000E+00  0.5400E+03
    -10.326  0.2034E+03  0.5633E+03
    -10.212  0.5883E+03  0.6554E+03
    -10.097  0.2613E+03  0.6899E+03
     -9.983  0.5212E+02  0.6960E+03
     -9.868  0.4051E+03  0.7424E+03
     -9.754  0.5239E+02  0.7560E+03
     -9.639  0.0000E+00  0.7560E+03
     -9.525  0.0000E+00  0.7560E+03
     -9.410  0.0000E+00  0.7560E+03
     -9.296  0.0000E+00  0.7560E+03
     -9.181  0.0000E+00  0.7560E+03
     -9.067  0.0000E+00  0.7560E+03
     -8.952  0.0000E+00  0.7560E+03
     -8.838  0.0000E+00  0.7560E+03
     -8.723  0.0000E+00  0.7560E+03
     -8.608  0.0000E+00  0.7560E+03
     -8.494  0.2732E+00  0.7560E+03
     -8.379  0.4252E+02  0.7629E+03
     -8.265  0.1233E+03  0.7921E+03
     -8.150  0.6928E+02  0.8119E+03
     -8.036  0.8836E+02  0.8261E+03
     -7.921  0.0000E+00  0.8280E+03
     -7.807  0.0000E+00  0.8280E+03
     -7.692  0.7357E+02  0.8364E+03
     -7.578  0.2833E+03  0.8884E+03
     -7.463  0.3124E+03  0.9358E+03
     -7.349  0.1048E+03  0.9720E+03
     -7.234  0.0000E+00  0.9720E+03
     -7.120  0.0000E+00  0.9720E+03
     -7.005  0.0000E+00  0.9720E+03
     -6.891  0.0000E+00  0.9720E+03
     -6.776  0.0000E+00  0.9720E+03
     -6.662  0.1754E+02  0.9740E+03
     -6.547  0.2096E+03  0.1012E+04
     -6.433  0.2126E+03  0.1036E+04
     -6.318  0.2230E+03  0.1072E+04
     -6.203  0.3743E-02  0.1076E+04
     -6.089  0.8156E+02  0.1089E+04
     -5.974  0.1252E+03  0.1108E+04
     -5.860  0.6985E+02  0.1118E+04
     -5.745  0.2793E+03  0.1150E+04
     -5.631  0.3494E+02  0.1170E+04
     -5.516  0.4176E+03  0.1222E+04
     -5.402  0.2312E+03  0.1272E+04
     -5.287  0.1808E+03  0.1327E+04
     -5.173  0.2321E-06  0.1330E+04
     -5.058  0.1845E+02  0.1332E+04
     -4.944  0.6188E+02  0.1347E+04
     -4.829  0.2634E+03  0.1398E+04
     -4.715  0.0000E+00  0.1404E+04
     -4.600  0.0000E+00  0.1404E+04
     -4.486  0.6162E+02  0.1411E+04
     -4.371  0.0000E+00  0.1412E+04
     -4.257  0.3687E+02  0.1416E+04
     -4.142  0.2876E+03  0.1453E+04
     -4.028  0.2641E+03  0.1490E+04
     -3.913  0.3133E+03  0.1532E+04
     -3.798  0.2873E+03  0.1577E+04
     -3.684  0.2814E+03  0.1628E+04
     -3.569  0.2712E+03  0.1667E+04
     -3.455  0.1903E+03  0.1700E+04
     -3.340  0.6986E+02  0.1718E+04
     -3.226  0.3230E+03  0.1759E+04
     -3.111  0.2442E+03  0.1816E+04
     -2.997  0.2081E+03  0.1850E+04
     -2.882  0.4240E+03  0.1915E+04
     -2.768  0.2025E+03  0.1943E+04
     -2.653  0.0000E+00  0.1944E+04
     -2.539  0.0000E+00  0.1944E+04
     -2.424  0.0000E+00  0.1944E+04
     -2.310  0.0000E+00  0.1944E+04
     -2.195  0.0000E+00  0.1944E+04
     -2.081  0.0000E+00  0.1944E+04
     -1.966  0.0000E+00  0.1944E+04
     -1.852  0.8055E+00  0.1944E+04
     -1.737  0.3332E+03  0.1990E+04
     -1.623  0.2296E+03  0.2032E+04
     -1.508  0.1048E+03  0.2052E+04
     -1.394  0.0000E+00  0.2052E+04
     -1.279  0.0000E+00  0.2052E+04
     -1.164  0.0000E+00  0.2052E+04
     -1.050  0.0000E+00  0.2052E+04
     -0.935  0.0000E+00  0.2052E+04
     -0.821  0.0000E+00  0.2052E+04
     -0.706  0.0000E+00  0.2052E+04
     -0.592  0.7487E+00  0.2052E+04
     -0.477  0.3493E+02  0.2058E+04
     -0.363  0.4851E+02  0.2064E+04
     -0.248  0.2331E+03  0.2091E+04
     -0.134  0.3527E+03  0.2152E+04
     -0.019  0.2794E+03  0.2220E+04
      0.095  0.6970E+02  0.2228E+04
      0.210  0.3446E+03  0.2267E+04
      0.324  0.0000E+00  0.2268E+04
      0.439  0.0000E+00  0.2268E+04
      0.553  0.0000E+00  0.2268E+04
      0.668  0.0000E+00  0.2268E+04
      0.782  0.0000E+00  0.2268E+04
      0.897  0.0000E+00  0.2268E+04
      1.011  0.0000E+00  0.2268E+04
      1.126  0.0000E+00  0.2268E+04
      1.241  0.0000E+00  0.2268E+04
      1.355  0.0000E+00  0.2268E+04
      1.470  0.0000E+00  0.2268E+04
      1.584  0.0000E+00  0.2268E+04
      1.699  0.0000E+00  0.2268E+04
      1.813  0.0000E+00  0.2268E+04
      1.928  0.0000E+00  0.2268E+04
      2.042  0.0000E+00  0.2268E+04
      2.157  0.0000E+00  0.2268E+04
      2.271  0.0000E+00  0.2268E+04
      2.386  0.0000E+00  0.2268E+04
      2.500  0.0000E+00  0.2268E+04
      2.615  0.0000E+00  0.2268E+04
      2.729  0.0000E+00  0.2268E+04
      2.844  0.0000E+00  0.2268E+04
      2.958  0.0000E+00  0.2268E+04
      3.073  0.0000E+00  0.2268E+04
      3.187  0.0000E+00  0.2268E+04
      3.302  0.6107E+02  0.2275E+04
      3.416  0.5234E-02  0.2276E+04
      3.531  0.2276E+03  0.2312E+04
      3.646  0.3791E+03  0.2375E+04
      3.760  0.7632E+02  0.2385E+04
      3.875  0.3904E+03  0.2445E+04
      3.989  0.1048E+03  0.2472E+04
      4.104  0.9129E+02  0.2482E+04
      4.218  0.0000E+00  0.2484E+04
      4.333  0.0000E+00  0.2484E+04
      4.447  0.0000E+00  0.2484E+04
      4.562  0.0000E+00  0.2484E+04
      4.676  0.1072E-04  0.2484E+04
      4.791  0.0000E+00  0.2486E+04
      4.905  0.0000E+00  0.2486E+04
      5.020  0.0000E+00  0.2486E+04
      5.134  0.0000E+00  0.2486E+04
      5.249  0.0000E+00  0.2486E+04
      5.363  0.2152E-08  0.2486E+04
      5.478  0.6985E+02  0.2494E+04
      5.592  0.3493E+02  0.2498E+04
      5.707  0.0000E+00  0.2498E+04
      5.821  0.0000E+00  0.2498E+04
      5.936  0.0000E+00  0.2498E+04
      6.050  0.6963E+02  0.2506E+04
      6.165  0.5470E+02  0.2512E+04
      6.280  0.0000E+00  0.2522E+04
      6.394  0.0000E+00  0.2522E+04
      6.509  0.0000E+00  0.2522E+04
      6.623  0.0000E+00  0.2522E+04
      6.738  0.1397E+03  0.2538E+04
      6.852  0.0000E+00  0.2538E+04
      6.967  0.0000E+00  0.2538E+04
      7.081  0.6465E+02  0.2545E+04
      7.196  0.1100E-02  0.2550E+04
      7.310  0.3493E+02  0.2558E+04
      7.425  0.4975E+02  0.2564E+04
      7.539  0.1892E+00  0.2574E+04
      7.654  0.1388E+03  0.2592E+04
      7.768  0.0000E+00  0.2592E+04
      7.883  0.2508E-02  0.2592E+04
      7.997  0.5239E+02  0.2600E+04
      8.112  0.1371E+03  0.2616E+04
      8.226  0.9814E+02  0.2627E+04
      8.341  0.3778E+03  0.2679E+04
      8.455  0.2569E+03  0.2719E+04
      8.570  0.1034E+03  0.2736E+04
      8.685  0.6457E+02  0.2747E+04
      8.799  0.7990E+02  0.2761E+04
      8.914  0.3961E+02  0.2767E+04
      9.028  0.1746E+02  0.2770E+04
      9.143  0.3628E+02  0.2776E+04
      9.257  0.6732E+02  0.2788E+04
      9.372  0.6108E+02  0.2797E+04
      9.486  0.5027E+02  0.2806E+04
      9.601  0.5477E+02  0.2812E+04
      9.715  0.1746E+02  0.2816E+04
      9.830  0.0000E+00  0.2816E+04
      9.944  0.0000E+00  0.2816E+04
     10.059  0.0000E+00  0.2816E+04
     10.173  0.0000E+00  0.2816E+04
     10.288  0.0000E+00  0.2816E+04
     10.402  0.0000E+00  0.2816E+04
     10.517  0.0000E+00  0.2816E+04
     10.631  0.0000E+00  0.2816E+04
     10.746  0.0000E+00  0.2816E+04
     10.860  0.0000E+00  0.2816E+04
     10.975  0.0000E+00  0.2816E+04
     11.090  0.0000E+00  0.2816E+04
     11.204  0.0000E+00  0.2816E+04
