       N       E                     dE             d eps       ncg     rms          ort
DAV:   1     0.356595456527E+05    0.35660E+05   -0.19844E+06  1408   0.273E+03
DAV:   2     0.293102432822E+04   -0.32729E+05   -0.31415E+05  1408   0.485E+02
DAV:   3    -0.297248522294E+04   -0.59035E+04   -0.57774E+04  1408   0.217E+02
DAV:   4    -0.330724735256E+04   -0.33476E+03   -0.33247E+03  1408   0.515E+01
DAV:   5    -0.332050297805E+04   -0.13256E+02   -0.13235E+02  1408   0.959E+00
SDA:   6    -0.267026952424E+04    0.65023E+03   -0.13235E+02  1408   0.223E+04 0.000E+00
CGA:   7    -0.299889987966E+04   -0.32863E+03   -0.32550E+03  1408   0.102E+03-0.505E+01
CGA:   8    -0.302811490609E+04   -0.29215E+02   -0.29224E+02  1408   0.289E+02-0.195E+00
CGA:   9    -0.303669039513E+04   -0.85755E+01   -0.85866E+01  1408   0.780E+01-0.101E+00
CGA:  10    -0.303943348449E+04   -0.27431E+01   -0.27515E+01  1408   0.254E+01-0.545E-01
CGA:  11    -0.304030339467E+04   -0.86991E+00   -0.87075E+00  1408   0.703E+00-0.459E-02
CGA:  12    -0.304055094047E+04   -0.24755E+00   -0.24780E+00  1408   0.179E+00-0.172E-02
CGA:  13    -0.304061361704E+04   -0.62677E-01   -0.62754E-01  1408   0.502E-01-0.633E-03
CGA:  14    -0.304062975874E+04   -0.16142E-01   -0.16165E-01  1408   0.148E-01-0.258E-03
CGA:  15    -0.304063499632E+04   -0.52376E-02   -0.52291E-02  1408   0.501E-02 0.713E-04
CGA:  16    -0.304063704874E+04   -0.20524E-02   -0.20466E-02  1408   0.186E-02 0.361E-04
CGA:  17    -0.304063789653E+04   -0.84779E-03   -0.85055E-03  1408   0.735E-03-0.136E-04
CGA:  18    -0.304063821296E+04   -0.31644E-03   -0.32211E-03  1408   0.271E-03-0.315E-04
CGA:  19    -0.304063831193E+04   -0.98969E-04   -0.10145E-03  1408   0.105E-03-0.206E-04
CGA:  20    -0.304063834599E+04   -0.34060E-04   -0.34285E-04  1408   0.321E-04-0.288E-05
CGA:  21    -0.304063835669E+04   -0.10701E-04   -0.10418E-04  1408   0.915E-05 0.535E-05
CGA:  22    -0.304063836054E+04   -0.38452E-05   -0.36856E-05  1408   0.318E-05 0.259E-05
CGA:  23    -0.304063836196E+04   -0.14191E-05   -0.13729E-05  1408   0.127E-05 0.925E-06
CGA:  24    -0.304063836234E+04   -0.38499E-06   -0.41273E-06  1408   0.487E-06 0.719E-06
CGA:  25    -0.304063836257E+04   -0.23004E-06   -0.21232E-06  1408   0.230E-06 0.121E-06
CGA:  26    -0.304063836275E+04   -0.17521E-06    0.11628E-05  1408   0.112E-06 0.136E-06
CGA:  27    -0.304063836277E+04   -0.17812E-07   -0.23722E-07  1408   0.715E-07 0.758E-07
   1 F= -.30406384E+04 E0= -.30406384E+04  d E =-.877932E-26
