 vasp.6.4.1 05Apr23 (build Jun  6 2023 14:36:51) complex                         
 executed on        HPECrayEX_GCC date 2024.08.20  15:33:40
 running  256 mpi-ranks, with    1 threads/rank, on    2 nodes
 distrk:  each k-point on  128 cores,    2 groups
 distr:  one band on NCORE=  32 cores,    4 groups


--------------------------------------------------------------------------------------------------------


 INCAR:
   ALGO = Conjugate
   KPAR = 2
   NCORE = 32
   ISMEAR = 0
   SIGMA = 0.01
   PREC = Accurate
   EDIFF = 1E-7
   ENCUT = 1000
   ISIF = 0
   METAGGA = R2SCAN
   LASPH = .TRUE.
   SYMPREC = 1E-7
   LWAVE = .FALSE.
   LCHARG = .FALSE.
   LWAVE = .FALSE.
   LCHARGE = .FALSE.

 POTCAR:    PAW_PBE C_h 06Feb2004                 
 POTCAR:    PAW_PBE H_h 06Feb2004                 
 POTCAR:    PAW_PBE N_h 06Feb2004                 
 POTCAR:    PAW_PBE C_h 06Feb2004                 
   VRHFIN =C: s2p2                                                                                  
   LEXCH  = PE                                                                                      
   EATOM  =   147.1560 eV,   10.8157 Ry                                                             
                                                                                                    
   TITEL  = PAW_PBE C_h 06Feb2004                                                                   
   LULTRA =        F    use ultrasoft PP ?                                                          
   IUNSCR =        1    unscreen: 0-lin 1-nonlin 2-no                                               
   RPACOR =    0.800    partial core radius                                                         
   POMASS =   12.011; ZVAL   =    4.000    mass and valenz                                          
   RCORE  =    1.100    outmost cutoff radius                                                       
   RWIGS  =    1.630; RWIGS  =    0.863    wigner-seitz radius (au A)                               
   ENMAX  =  700.000; ENMIN  =  500.000 eV                                                          
   ICORE  =        2    local potential                                                             
   LCOR   =        T    correct aug charges                                                         
   LPAW   =        T    paw PP                                                                      
   EAUG   =  946.768                                                                                
   DEXC   =    0.000                                                                                
   RMAX   =    1.128    core radius for proj-oper                                                   
   RAUG   =    1.300    factor for augmentation sphere                                              
   RDEP   =    1.162    radius for radial grids                                                     
   RDEPT  =    1.088    core radius for aug-charge                                                  
                                                                                                    
   Atomic configuration                                                                             
    4 entries                                                                                       
     n  l   j            E        occ.                                                              
     1  0  0.50      -273.3789   2.0000                                                             
     2  0  0.50       -13.7508   2.0000                                                             
     2  1  0.50        -5.2854   2.0000                                                             
     3  2  1.50        -5.4423   0.0000                                                             
   Description                                                                                      
     l       E           TYP  RCUT    TYP  RCUT                                                     
     0    -13.7508458     23  1.100                                                                 
     0     -8.2022199     23  1.100                                                                 
     1     -5.2854383     23  1.100                                                                 
     1      1.1560700     23  1.100                                                                 
     2     -5.4423304      7  1.100                                                                 
  local pseudopotential read in
  partial core-charges read in
  partial kinetic energy density read in
  atomic valenz-charges read in
  non local Contribution for L=           0  read in
    real space projection operators read in
  non local Contribution for L=           0  read in
    real space projection operators read in
  non local Contribution for L=           1  read in
    real space projection operators read in
  non local Contribution for L=           1  read in
    real space projection operators read in
    PAW grid and wavefunctions read in

   number of l-projection  operators is LMAX  =           4
   number of lm-projection operators is LMMAX =           8

 POTCAR:    PAW_PBE H_h 06Feb2004                 
   VRHFIN =H: ultrasoft test                                                                        
   LEXCH  = PE                                                                                      
   EATOM  =    12.4884 eV,    0.9179 Ry                                                             
                                                                                                    
   TITEL  = PAW_PBE H_h 06Feb2004                                                                   
   LULTRA =        F    use ultrasoft PP ?                                                          
   IUNSCR =        0    unscreen: 0-lin 1-nonlin 2-no                                               
   RPACOR =    0.000    partial core radius                                                         
   POMASS =    1.000; ZVAL   =    1.000    mass and valenz                                          
   RCORE  =    0.800    outmost cutoff radius                                                       
   RWIGS  =    0.700; RWIGS  =    0.370    wigner-seitz radius (au A)                               
   ENMAX  =  700.000; ENMIN  =  350.000 eV                                                          
   RCLOC  =    0.701    cutoff for local pot                                                        
   LCOR   =        T    correct aug charges                                                         
   LPAW   =        T    paw PP                                                                      
   EAUG   = 1000.000                                                                                
   RMAX   =    0.819    core radius for proj-oper                                                   
   RAUG   =    1.000    factor for augmentation sphere                                              
   RDEP   =    0.817    radius for radial grids                                                     
   RDEPT  =    0.817    core radius for aug-charge                                                  
                                                                                                    
   Atomic configuration                                                                             
    2 entries                                                                                       
     n  l   j            E        occ.                                                              
     1  0  0.50        -6.4927   1.0000                                                             
     2  1  0.50        -3.4015   0.0000                                                             
   Description                                                                                      
     l       E           TYP  RCUT    TYP  RCUT                                                     
     0     -6.4927493     23  0.800                                                                 
     0      6.8029130     23  0.800                                                                 
     1     -6.8029130     23  0.800                                                                 
  local pseudopotential read in
  atomic valenz-charges read in
  non local Contribution for L=           0  read in
    real space projection operators read in
  non local Contribution for L=           0  read in
    real space projection operators read in
  non local Contribution for L=           1  read in
    real space projection operators read in
    PAW grid and wavefunctions read in

   number of l-projection  operators is LMAX  =           3
   number of lm-projection operators is LMMAX =           5

 POTCAR:    PAW_PBE N_h 06Feb2004                 
   VRHFIN =N: s2p3                                                                                  
   LEXCH  = PE                                                                                      
   EATOM  =   264.5486 eV,   19.4438 Ry                                                             
                                                                                                    
   TITEL  = PAW_PBE N_h 06Feb2004                                                                   
   LULTRA =        F    use ultrasoft PP ?                                                          
   IUNSCR =        1    unscreen: 0-lin 1-nonlin 2-no                                               
   RPACOR =    0.800    partial core radius                                                         
   POMASS =   14.001; ZVAL   =    5.000    mass and valenz                                          
   RCORE  =    1.100    outmost cutoff radius                                                       
   RWIGS  =    1.480; RWIGS  =    0.783    wigner-seitz radius (au A)                               
   ENMAX  =  700.000; ENMIN  =  500.000 eV                                                          
   ICORE  =        2    local potential                                                             
   LCOR   =        T    correct aug charges                                                         
   LPAW   =        T    paw PP                                                                      
   EAUG   =  904.640                                                                                
   DEXC   =    0.000                                                                                
   RMAX   =    1.127    core radius for proj-oper                                                   
   RAUG   =    1.300    factor for augmentation sphere                                              
   RDEP   =    1.115    radius for radial grids                                                     
   RDEPT  =    1.106    core radius for aug-charge                                                  
                                                                                                    
   Atomic configuration                                                                             
    4 entries                                                                                       
     n  l   j            E        occ.                                                              
     1  0  0.50      -384.7179   2.0000                                                             
     2  0  0.50       -18.5828   2.0000                                                             
     2  1  0.50        -7.0898   3.0000                                                             
     3  2  1.50        -6.8029   0.0000                                                             
   Description                                                                                      
     l       E           TYP  RCUT    TYP  RCUT                                                     
     0    -18.5828117     23  1.100                                                                 
     0    -15.0750597     23  1.100                                                                 
     1     -7.0897851     23  1.100                                                                 
     1     -1.9663412     23  1.100                                                                 
     2     -6.8029130      7  1.100                                                                 
  local pseudopotential read in
  partial core-charges read in
  partial kinetic energy density read in
  kinetic energy density of atom read in
  atomic valenz-charges read in
  non local Contribution for L=           0  read in
    real space projection operators read in
  non local Contribution for L=           0  read in
    real space projection operators read in
  non local Contribution for L=           1  read in
    real space projection operators read in
  non local Contribution for L=           1  read in
    real space projection operators read in
    PAW grid and wavefunctions read in

   number of l-projection  operators is LMAX  =           4
   number of lm-projection operators is LMMAX =           8

 -----------------------------------------------------------------------------
|                                                                             |
|               ----> ADVICE to this user running VASP <----                  |
|                                                                             |
|     You have a (more or less) 'large supercell' and for larger cells it     |
|     might be more efficient to use real-space projection operators.         |
|     Therefore, try LREAL= Auto in the INCAR file.                           |
|     Mind: For very accurate calculation, you might also keep the            |
|     reciprocal projection scheme (i.e. LREAL=.FALSE.).                      |
|                                                                             |
 -----------------------------------------------------------------------------

  PAW_PBE C_h 06Feb2004                 :
 energy of atom  1       EATOM= -147.1560
 kinetic energy error for atom=    0.0031 (will be added to EATOM!!)
  PAW_PBE H_h 06Feb2004                 :
 energy of atom  2       EATOM=  -12.4884
 kinetic energy error for atom=    0.0006 (will be added to EATOM!!)
  PAW_PBE N_h 06Feb2004                 :
 energy of atom  3       EATOM= -264.5486
 kinetic energy error for atom=    0.0081 (will be added to EATOM!!)


 POSCAR:  C  H  N
  positions in cartesian coordinates
  No initial velocities read in

 METAGGA = R2SCAN                                      LMAXTAU =  6    LMIXTAU =  F

 exchange correlation table for  LEXCH =        8
   RHO(1)=    0.500       N(1)  =     2000
   RHO(2)=  100.500       N(2)  =     4000

 VTST: version 4.1, (05/19/21)

 CHAIN: initializing optimizer
 
 OPT: Using VASP Dynamics algorithm
 CHAIN: Read ICHAIN            0

 POSCAR:  C  H  N
  positions in cartesian coordinates
  No initial velocities read in



--------------------------------------------------------------------------------------------------------


 ion  position               nearest neighbor table
   1  0.000  0.135  0.250-  19 1.09  41 1.34  37 1.34
   2  1.000  0.865  0.750-  20 1.09  42 1.34  38 1.34
   3  0.865  0.865  0.250-  21 1.09  39 1.34  37 1.34
   4  0.135  0.135  0.750-  22 1.09  40 1.34  38 1.34
   5  0.135  0.000  0.250-  23 1.09  41 1.34  39 1.34
   6  0.865  1.000  0.750-  24 1.09  42 1.34  40 1.34
   7  0.667  0.469  0.583-  25 1.09  47 1.34  43 1.34
   8  0.667  0.198  0.083-  26 1.09  44 1.34  48 1.34
   9  0.531  0.198  0.583-  27 1.09  43 1.34  45 1.34
  10  0.802  0.469  0.083-  28 1.09  46 1.34  44 1.34
  11  0.802  0.333  0.583-  29 1.09  45 1.34  47 1.34
  12  0.531  0.333  0.083-  30 1.09  48 1.34  46 1.34
  13  0.333  0.802  0.917-  31 1.09  49 1.34  53 1.34
  14  0.333  0.531  0.417-  32 1.09  54 1.34  50 1.34
  15  0.198  0.531  0.917-  33 1.09  51 1.34  49 1.34
  16  0.469  0.802  0.417-  34 1.09  50 1.34  52 1.34
  17  0.469  0.667  0.917-  35 1.09  53 1.34  51 1.34
  18  0.198  0.667  0.417-  36 1.09  52 1.34  54 1.34
  19  1.000  0.248  0.250-   1 1.09
  20  0.000  0.752  0.750-   2 1.09
  21  0.752  0.752  0.250-   3 1.09
  22  0.248  0.248  0.750-   4 1.09
  23  0.248  1.000  0.250-   5 1.09
  24  0.752  0.000  0.750-   6 1.09
  25  0.667  0.582  0.583-   7 1.09
  26  0.667  0.085  0.083-   8 1.09
  27  0.418  0.085  0.583-   9 1.09
  28  0.915  0.582  0.083-  10 1.09
  29  0.915  0.333  0.583-  11 1.09
  30  0.418  0.333  0.083-  12 1.09
  31  0.333  0.915  0.917-  13 1.09
  32  0.333  0.418  0.417-  14 1.09
  33  0.085  0.418  0.917-  15 1.09
  34  0.582  0.915  0.417-  16 1.09
  35  0.582  0.667  0.917-  17 1.09
  36  0.085  0.667  0.417-  18 1.09
  37  0.857  1.000  0.250-   1 1.34   3 1.34
  38  0.143  0.000  0.750-   4 1.34   2 1.34
  39  0.000  0.857  0.250-   5 1.34   3 1.34
  40  0.000  0.143  0.750-   4 1.34   6 1.34
  41  0.143  0.143  0.250-   5 1.34   1 1.34
  42  0.857  0.857  0.750-   6 1.34   2 1.34
  43  0.524  0.333  0.583-   9 1.34   7 1.34
  44  0.809  0.333  0.083-   8 1.34  10 1.34
  45  0.667  0.191  0.583-  11 1.34   9 1.34
  46  0.667  0.476  0.083-  10 1.34  12 1.34
  47  0.809  0.476  0.583-   7 1.34  11 1.34
  48  0.524  0.191  0.083-  12 1.34   8 1.34
  49  0.191  0.667  0.917-  13 1.34  15 1.34
  50  0.476  0.667  0.417-  16 1.34  14 1.34
  51  0.333  0.524  0.917-  15 1.34  17 1.34
  52  0.333  0.809  0.417-  18 1.34  16 1.34
  53  0.476  0.809  0.917-  17 1.34  13 1.34
  54  0.191  0.524  0.417-  14 1.34  18 1.34

  LATTYP: Found a base centered orthorhombic cell.
 ALAT       =     9.6470000000
 B/A-ratio  =     1.7320514149
 C/A-ratio  =     0.7547424070
  
  Lattice vectors:
  
 A1 = (   4.8235000000,  -8.3545500000,   0.0000000000)
 A2 = (   4.8235000000,   8.3545500000,   0.0000000000)
 A3 = (   0.0000000000,   0.0000000000,   7.2810000000)


Analysis of symmetry for initial positions (statically):
=====================================================================
 Subroutine PRICEL returns:
 Original cell was already a primitive cell.
 

 Routine SETGRP: Setting up the symmetry group for a 
 base centered orthorhombic supercell.


 Subroutine GETGRP returns: Found  2 space group operations
 (whereof  2 operations were pure point group operations)
 out of a pool of  8 trial point group operations.


The static configuration has the point symmetry S_2 .


Analysis of symmetry for dynamics (positions and initial velocities):
=====================================================================
 Subroutine PRICEL returns:
 Original cell was already a primitive cell.
 

 Routine SETGRP: Setting up the symmetry group for a 
 base centered orthorhombic supercell.


 Subroutine GETGRP returns: Found  2 space group operations
 (whereof  2 operations were pure point group operations)
 out of a pool of  8 trial point group operations.


The dynamic configuration has the point symmetry S_2 .


 Subroutine INISYM returns: Found  2 space group operations
 (whereof  2 operations are pure point group operations),
 and found     1 'primitive' translations


----------------------------------------------------------------------------------------

                                     Primitive cell                                     

  volume of cell :     586.8220

  direct lattice vectors                    reciprocal lattice vectors
     9.647000000  0.000000000  0.000000000     0.103659169  0.059847628 -0.000000000
    -4.823500000  8.354550000  0.000000000     0.000000000  0.119695256  0.000000000
     0.000000000  0.000000000  7.281000000     0.000000000 -0.000000000  0.137343771

  length of vectors
     9.647000000  9.647002537  7.281000000     0.119695287  0.119695256  0.137343771

  position of ions in fractional coordinates (direct lattice)
     0.000000044  0.135245414  0.249999996
     0.999999970  0.864754587  0.749999980
     0.864754434  0.864754411  0.249999926
     0.135245665  0.135245633  0.750000092
     0.135245497  0.000000022  0.250000009
     0.864754564  0.999999982  0.749999938
     0.666640051  0.468568282  0.583323250
     0.666640035  0.198071780  0.083323204
     0.531431568  0.198071637  0.583323179
     0.801928431  0.468568453  0.083323270
     0.801928319  0.333360006  0.583323205
     0.531431676  0.333359948  0.083323227
     0.333360033  0.801928266  0.916676794
     0.333359979  0.531431678  0.416676734
     0.198071530  0.531431545  0.916676796
     0.468568518  0.801928412  0.416676740
     0.468568365  0.666640023  0.916676789
     0.198071711  0.666639992  0.416676774
     0.999999978  0.248480678  0.250000035
     0.000000065  0.751519324  0.749999966
     0.751519165  0.751519175  0.249999971
     0.248480892  0.248480836  0.750000043
     0.248480867  0.999999987  0.249999991
     0.751519188  0.000000013  0.749999990
     0.666645377  0.581799577  0.583335836
     0.666645487  0.084845884  0.083335772
     0.418200329  0.084845758  0.583335770
     0.915154290  0.581799689  0.083335848
     0.915154268  0.333354585  0.583335785
     0.418200330  0.333354592  0.083335844
     0.333354565  0.915154130  0.916664239
     0.333354659  0.418200425  0.416664140
     0.084845712  0.418200302  0.916664186
     0.581799734  0.915154249  0.416664175
     0.581799696  0.666645375  0.916664175
     0.084845764  0.666645437  0.416664199
     0.857411563  0.999999962  0.250000027
     0.142588509  0.000000059  0.749999991
     0.000000022  0.857411635  0.249999942
     0.000000063  0.142588392  0.750000047
     0.142588504  0.142588419  0.250000013
     0.857411558  0.857411605  0.749999941
     0.524061618  0.333298402  0.583331299
     0.809236814  0.333298495  0.083331269
     0.666701559  0.190763255  0.583331209
     0.666701600  0.475938344  0.083331351
     0.809236811  0.475938360  0.583331287
     0.524061599  0.190763240  0.083331267
     0.190763225  0.666701527  0.916668765
     0.475938440  0.666701621  0.416668656
     0.333298377  0.524061615  0.916668674
     0.333298480  0.809236746  0.416668750
     0.475938427  0.809236705  0.916668754
     0.190763251  0.524061663  0.416668693

  ion indices of the primitive-cell ions
   primitive index   ion index
                 1           1
                 2           2
                 3           3
                 4           4
                 5           5
                 6           6
                 7           7
                 8           8
                 9           9
                10          10
                11          11
                12          12
                13          13
                14          14
                15          15
                16          16
                17          17
                18          18
                19          19
                20          20
                21          21
                22          22
                23          23
                24          24
                25          25
                26          26
                27          27
                28          28
                29          29
                30          30
                31          31
                32          32
                33          33
                34          34
                35          35
                36          36
                37          37
                38          38
                39          39
                40          40
                41          41
                42          42
                43          43
                44          44
                45          45
                46          46
                47          47
                48          48
                49          49
                50          50
                51          51
                52          52
                53          53
                54          54

----------------------------------------------------------------------------------------



 KPOINTS: auto                                    

Automatic generation of k-mesh.
 Grid dimensions read from file:
 generate k-points for:    3    3    4

 Generating k-lattice:

  Cartesian coordinates                     Fractional coordinates (reciprocal lattice)
     0.034553056  0.019949209 -0.000000000     0.333333333 -0.000000000  0.000000000
     0.000000000  0.039898419  0.000000000     0.000000000  0.333333333  0.000000000
     0.000000000 -0.000000000  0.034335943     0.000000000  0.000000000  0.250000000

  Length of vectors
     0.039898429  0.039898419  0.034335943

  Shift w.r.t. Gamma in fractional coordinates (k-lattice)
     0.000000000  0.000000000  0.000000000

 
 Subroutine IBZKPT returns following result:
 ===========================================
 
 Found     19 irreducible k-points:
 
 Following reciprocal coordinates:
            Coordinates               Weight
  0.000000  0.000000  0.000000      1.000000
  0.333333  0.000000  0.000000      2.000000
  0.333333 -0.333333  0.000000      2.000000
  0.000000  0.333333  0.000000      2.000000
  0.333333  0.333333  0.000000      2.000000
  0.000000  0.000000  0.250000      2.000000
  0.333333  0.000000  0.250000      2.000000
 -0.333333  0.000000  0.250000      2.000000
  0.333333 -0.333333 -0.250000      2.000000
 -0.333333  0.333333 -0.250000      2.000000
  0.000000  0.333333  0.250000      2.000000
  0.000000 -0.333333  0.250000      2.000000
  0.333333  0.333333  0.250000      2.000000
 -0.333333 -0.333333  0.250000      2.000000
  0.000000  0.000000  0.500000      1.000000
  0.333333  0.000000  0.500000      2.000000
  0.333333 -0.333333  0.500000      2.000000
  0.000000  0.333333  0.500000      2.000000
  0.333333  0.333333  0.500000      2.000000
 
 Following cartesian coordinates:
            Coordinates               Weight
  0.000000  0.000000  0.000000      1.000000
  0.034553  0.019949  0.000000      2.000000
  0.034553 -0.019949  0.000000      2.000000
  0.000000  0.039898  0.000000      2.000000
  0.034553  0.059848  0.000000      2.000000
  0.000000  0.000000  0.034336      2.000000
  0.034553  0.019949  0.034336      2.000000
 -0.034553 -0.019949  0.034336      2.000000
  0.034553 -0.019949 -0.034336      2.000000
 -0.034553  0.019949 -0.034336      2.000000
  0.000000  0.039898  0.034336      2.000000
  0.000000 -0.039898  0.034336      2.000000
  0.034553  0.059848  0.034336      2.000000
 -0.034553 -0.059848  0.034336      2.000000
  0.000000  0.000000  0.068672      1.000000
  0.034553  0.019949  0.068672      2.000000
  0.034553 -0.019949  0.068672      2.000000
  0.000000  0.039898  0.068672      2.000000
  0.034553  0.059848  0.068672      2.000000
 


--------------------------------------------------------------------------------------------------------




 Dimension of arrays:
   k-points           NKPTS =     19   k-points in BZ     NKDIM =     19   number of bands    NBANDS=    120
   number of dos      NEDOS =    301   number of ions     NIONS =     54
   non local maximal  LDIM  =      4   non local SUM 2l+1 LMDIM =      8
   total plane-waves  NPLWV = 800000
   max r-space proj   IRMAX =      1   max aug-charges    IRDMAX=   9881
   dimension x,y,z NGX =   100 NGY =  100 NGZ =   80
   dimension x,y,z NGXF=   200 NGYF=  200 NGZF=  160
   support grid    NGXF=   200 NGYF=  200 NGZF=  160
   ions per type =              18  18  18
   NGX,Y,Z   is equivalent  to a cutoff of  17.23, 17.23, 18.27 a.u.
   NGXF,Y,Z  is equivalent  to a cutoff of  34.47, 34.47, 36.53 a.u.

 SYSTEM =  unknown system                          
 POSCAR =   C  H  N                                

 Startparameter for this run:
   NWRITE =      2    write-flag & timer
   PREC   = accura    normal or accurate (medium, high low for compatibility)
   ISTART =      0    job   : 0-new  1-cont  2-samecut
   ICHARG =      2    charge: 1-file 2-atom 10-const
   ISPIN  =      1    spin polarized calculation?
   LNONCOLLINEAR =      F non collinear calculations
   LSORBIT =      F    spin-orbit coupling
   INIWAV =      1    electr: 0-lowe 1-rand  2-diag
   LASPH  =      T    aspherical Exc in radial PAW
 Electronic Relaxation 1
   ENCUT  = 1000.0 eV  73.50 Ry    8.57 a.u.  24.87 24.87 18.77*2*pi/ulx,y,z
   ENINI  = 1000.0     initial cutoff
   ENAUG  = 1000.0 eV  augmentation charge cutoff
   NELM   =     60;   NELMIN=  2; NELMDL= -5     # of ELM steps 
   EDIFF  = 0.1E-06   stopping-criterion for ELM
   LREAL  =      F    real-space projection
   NLSPLINE    = F    spline interpolate recip. space projectors
   LCOMPAT=      F    compatible to vasp.4.4
   GGA_COMPAT  = T    GGA compatible to vasp.4.4-vasp.4.6
   LMAXPAW     = -100 max onsite density
   LMAXMIX     =    2 max onsite mixed and CHGCAR
   VOSKOWN=      0    Vosko Wilk Nusair interpolation
   ROPT   =    0.00000   0.00000   0.00000
 Ionic relaxation
   EDIFFG = 0.1E-05   stopping-criterion for IOM
   NSW    =      0    number of steps for IOM
   NBLOCK =      1;   KBLOCK =      1    inner block; outer block 
   IBRION =     -1    ionic relax: 0-MD 1-quasi-New 2-CG
   NFREE  =      0    steps in history (QN), initial steepest desc. (CG)
   ISIF   =      0    stress and relaxation
   IWAVPR =     10    prediction:  0-non 1-charg 2-wave 3-comb
   ISYM   =      2    0-nonsym 1-usesym 2-fastsym
   LCORR  =      T    Harris-Foulkes like correction to forces

   POTIM  = 0.5000    time-step for ionic-motion
   TEIN   =    0.0    initial temperature
   TEBEG  =    0.0;   TEEND  =   0.0 temperature during run
   SMASS  =  -3.00    Nose mass-parameter (am)
   estimated Nose-frequenzy (Omega)   =  0.10E-29 period in steps = 0.13E+47 mass=  -0.213E-26a.u.
   SCALEE = 1.0000    scale energy and forces
   NPACO  =    256;   APACO  = 10.0  distance and # of slots for P.C.
   PSTRESS=    0.0 pullay stress

  Mass of Ions in am
   POMASS =  12.01  1.00 14.00
  Ionic Valenz
   ZVAL   =   4.00  1.00  5.00
  Atomic Wigner-Seitz radii
   RWIGS  =  -1.00 -1.00 -1.00
  virtual crystal weights 
   VCA    =   1.00  1.00  1.00
   NELECT =     180.0000    total number of electrons
   NUPDOWN=      -1.0000    fix difference up-down

 DOS related values:
   EMIN   =  10.00;   EMAX   =-10.00  energy-range for DOS
   EFERMI =   0.00;   METHOD = LEGACY      
   ISMEAR =     0;   SIGMA  =   0.01  broadening in eV -4-tet -1-fermi 0-gaus

 Electronic relaxation 2 (details)
   IALGO  =     58    algorithm
   LDIAG  =      T    sub-space diagonalisation (order eigenvalues)
   LSUBROT=      F    optimize rotation matrix (better conditioning)
   TURBO    =      0    0=normal 1=particle mesh
   IRESTART =      0    0=no restart 2=restart with 2 vectors
   NREBOOT  =      0    no. of reboots
   NMIN     =      0    reboot dimension
   EREF     =   0.00    reference energy to select bands
   IMIX   =      4    mixing-type and parameters
     AMIX     =   0.40;   BMIX     =  1.00
     AMIX_MAG =   1.60;   BMIX_MAG =  1.00
     AMIN     =   0.10
     WC   =   100.;   INIMIX=   1;  MIXPRE=   1;  MAXMIX= -45

 Intra band minimization:
   WEIMIN = 0.0000     energy-eigenvalue tresh-hold
   EBREAK =  0.21E-09  absolut break condition
   DEPER  =   0.30     relativ break condition  

   TIME   =   0.40     timestep for ELM

  volume/ion in A,a.u.               =      10.87        73.33
  Fermi-wavevector in a.u.,A,eV,Ry     =   1.104071  2.086391 16.585122  1.218972
  Thomas-Fermi vector in A             =   2.240538

 Write flags
   LWAVE        =      F    write WAVECAR
   LDOWNSAMPLE  =      F    k-point downsampling of WAVECAR
   LCHARG       =      F    write CHGCAR
   LVTOT        =      F    write LOCPOT, total local potential
   LVHAR        =      F    write LOCPOT, Hartree potential only
   LELF         =      F    write electronic localiz. function (ELF)
   LORBIT       =      0    0 simple, 1 ext, 2 COOP (PROOUT), +10 PAW based schemes


 Dipole corrections
   LMONO  =      F    monopole corrections only (constant potential shift)
   LDIPOL =      F    correct potential (dipole corrections)
   IDIPOL =      0    1-x, 2-y, 3-z, 4-all directions 
   EPSILON=  1.0000000 bulk dielectric constant

 Exchange correlation treatment:
   GGA     =    --    GGA type
   LEXCH   =     8    internal setting for exchange type
   LIBXC   =     F    Libxc                    
   VOSKOWN =     0    Vosko Wilk Nusair interpolation
   LHFCALC =     F    Hartree Fock is set to
   LHFONE  =     F    Hartree Fock one center treatment
   AEXX    =    0.0000 exact exchange contribution

 Linear response parameters
   LEPSILON=     F    determine dielectric tensor
   LRPA    =     F    only Hartree local field effects (RPA)
   LNABLA  =     F    use nabla operator in PAW spheres
   LVEL    =     F    velocity operator in full k-point grid
   CSHIFT  =0.1000    complex shift for real part using Kramers Kronig
   OMEGAMAX=  -1.0    maximum frequency
   DEG_THRESHOLD= 0.2000000E-02 threshold for treating states as degnerate
   RTIME   =   -0.100 relaxation time in fs
  (WPLASMAI=    0.000 imaginary part of plasma frequency in eV, 0.658/RTIME)
   DFIELD  = 0.0000000 0.0000000 0.0000000 field for delta impulse in time

  Optional k-point grid parameters
   LKPOINTS_OPT  =     F    use optional k-point grid
   KPOINTS_OPT_MODE=     1    mode for optional k-point grid

 Orbital magnetization related:
   ORBITALMAG=     F  switch on orbital magnetization
   LCHIMAG   =     F  perturbation theory with respect to B field
   DQ        =  0.001000  dq finite difference perturbation B field
   LLRAUG    =     F  two centre corrections for induced B field
   LBONE     =     F  B-component reconstruction in AE one-centre
   LVGVCALC  =     T  calculate vGv susceptibility
   LVGVAPPL  =     F  apply vGv susceptibility instead of pGv for G=0

 Random number generation:
   RANDOM_GENERATOR = DEFAULT
   PCG_SEED         = not used


--------------------------------------------------------------------------------------------------------


 Static calculation
 charge density and potential will be updated during run
 non-spin polarized calculation
 Conjugate gradient for all bands (Freysoldt, et al. PRB 79, 241103 (2009))
 preconditioned conjugated gradient                                        
 perform sub-space diagonalisation
    before iterative eigenvector-optimisation
 modified Broyden-mixing scheme, WC =      100.0
 initial mixing is a Kerker type mixing with AMIX =  0.4000 and BMIX =      1.0000
 Hartree-type preconditioning will be used
 using additional bands           30
 reciprocal scheme for non local part
 use partial core corrections
 no Harris-corrections to forces 
 use gradient corrections 
 use of overlap-Matrix (Vanderbilt PP)
 Gauss-broadening in eV      SIGMA  =   0.01


--------------------------------------------------------------------------------------------------------


  energy-cutoff  :     1000.00
  volume of cell :      586.82
      direct lattice vectors                 reciprocal lattice vectors
     9.647000000  0.000000000  0.000000000     0.103659169  0.059847628 -0.000000000
    -4.823500000  8.354550000  0.000000000     0.000000000  0.119695256  0.000000000
     0.000000000  0.000000000  7.281000000     0.000000000 -0.000000000  0.137343771

  length of vectors
     9.647000000  9.647002537  7.281000000     0.119695287  0.119695256  0.137343771



 k-points in units of 2pi/SCALE and weight: auto                                    
   0.00000000  0.00000000  0.00000000       0.028
   0.03455306  0.01994921  0.00000000       0.056
   0.03455306 -0.01994921  0.00000000       0.056
   0.00000000  0.03989842  0.00000000       0.056
   0.03455306  0.05984763  0.00000000       0.056
   0.00000000  0.00000000  0.03433594       0.056
   0.03455306  0.01994921  0.03433594       0.056
  -0.03455306 -0.01994921  0.03433594       0.056
   0.03455306 -0.01994921 -0.03433594       0.056
  -0.03455306  0.01994921 -0.03433594       0.056
   0.00000000  0.03989842  0.03433594       0.056
   0.00000000 -0.03989842  0.03433594       0.056
   0.03455306  0.05984763  0.03433594       0.056
  -0.03455306 -0.05984763  0.03433594       0.056
   0.00000000  0.00000000  0.06867189       0.028
   0.03455306  0.01994921  0.06867189       0.056
   0.03455306 -0.01994921  0.06867189       0.056
   0.00000000  0.03989842  0.06867189       0.056
   0.03455306  0.05984763  0.06867189       0.056

 k-points in reciprocal lattice and weights: auto                                    
   0.00000000  0.00000000  0.00000000       0.028
   0.33333333  0.00000000  0.00000000       0.056
   0.33333333 -0.33333333  0.00000000       0.056
   0.00000000  0.33333333  0.00000000       0.056
   0.33333333  0.33333333  0.00000000       0.056
   0.00000000  0.00000000  0.25000000       0.056
   0.33333333  0.00000000  0.25000000       0.056
  -0.33333333  0.00000000  0.25000000       0.056
   0.33333333 -0.33333333 -0.25000000       0.056
  -0.33333333  0.33333333 -0.25000000       0.056
   0.00000000  0.33333333  0.25000000       0.056
   0.00000000 -0.33333333  0.25000000       0.056
   0.33333333  0.33333333  0.25000000       0.056
  -0.33333333 -0.33333333  0.25000000       0.056
   0.00000000  0.00000000  0.50000000       0.028
   0.33333333  0.00000000  0.50000000       0.056
   0.33333333 -0.33333333  0.50000000       0.056
   0.00000000  0.33333333  0.50000000       0.056
   0.33333333  0.33333333  0.50000000       0.056

 position of ions in fractional coordinates (direct lattice) 
   0.00000004  0.13524541  0.25000000
   0.99999997  0.86475459  0.74999998
   0.86475443  0.86475441  0.24999993
   0.13524566  0.13524563  0.75000009
   0.13524550  0.00000002  0.25000001
   0.86475456  0.99999998  0.74999994
   0.66664005  0.46856828  0.58332325
   0.66664004  0.19807178  0.08332320
   0.53143157  0.19807164  0.58332318
   0.80192843  0.46856845  0.08332327
   0.80192832  0.33336001  0.58332320
   0.53143168  0.33335995  0.08332323
   0.33336003  0.80192827  0.91667679
   0.33335998  0.53143168  0.41667673
   0.19807153  0.53143154  0.91667680
   0.46856852  0.80192841  0.41667674
   0.46856837  0.66664002  0.91667679
   0.19807171  0.66663999  0.41667677
   0.99999998  0.24848068  0.25000004
   0.00000007  0.75151932  0.74999997
   0.75151916  0.75151917  0.24999997
   0.24848089  0.24848084  0.75000004
   0.24848087  0.99999999  0.24999999
   0.75151919  0.00000001  0.74999999
   0.66664538  0.58179958  0.58333584
   0.66664549  0.08484588  0.08333577
   0.41820033  0.08484576  0.58333577
   0.91515429  0.58179969  0.08333585
   0.91515427  0.33335458  0.58333578
   0.41820033  0.33335459  0.08333584
   0.33335457  0.91515413  0.91666424
   0.33335466  0.41820043  0.41666414
   0.08484571  0.41820030  0.91666419
   0.58179973  0.91515425  0.41666418
   0.58179970  0.66664538  0.91666418
   0.08484576  0.66664544  0.41666420
   0.85741156  0.99999996  0.25000003
   0.14258851  0.00000006  0.74999999
   0.00000002  0.85741163  0.24999994
   0.00000006  0.14258839  0.75000005
   0.14258850  0.14258842  0.25000001
   0.85741156  0.85741160  0.74999994
   0.52406162  0.33329840  0.58333130
   0.80923681  0.33329850  0.08333127
   0.66670156  0.19076326  0.58333121
   0.66670160  0.47593834  0.08333135
   0.80923681  0.47593836  0.58333129
   0.52406160  0.19076324  0.08333127
   0.19076322  0.66670153  0.91666877
   0.47593844  0.66670162  0.41666866
   0.33329838  0.52406161  0.91666867
   0.33329848  0.80923675  0.41666875
   0.47593843  0.80923670  0.91666875
   0.19076325  0.52406166  0.41666869

 position of ions in cartesian coordinates  (Angst):
  -0.65235583  1.12991458  1.82024997
   5.47585596  7.22463544  5.46074985
   4.17114312  7.22463397  1.82024946
   0.65235762  1.12991641  5.46075067
   1.30471321  0.00000018  1.82025006
   3.51878737  8.35454985  5.46074955
   4.17093746  3.91467714  4.24717658
   5.47567719  1.65480059  0.60667625
   4.17132180  1.65479939  4.24717607
   5.47606364  3.91467857  0.60667673
   6.12824050  2.78507284  4.24717625
   3.51875967  2.78507236  0.60667642
  -0.65217675  6.69974979  6.67432374
   0.65256302  4.43987253  3.03382330
  -0.65256401  4.43987141  6.67432375
   0.65217880  6.69975102  3.03382334
   1.30474087  5.56947740  6.67432370
  -1.30474020  5.56947714  3.03382359
   8.44845324  2.07594425  1.82025026
  -3.62495283  6.27860577  5.46074975
   3.62495264  6.27860452  1.82024979
   1.19854785  2.07594557  5.46075032
  -2.42640502  8.35454989  1.82024993
   7.24990554  0.00000011  5.46074993
   3.62481769  4.86067365  4.24726822
   6.02187490  0.70884918  0.60676776
   3.62512506  0.70884813  4.24726774
   6.02218264  4.86067459  0.60676831
   7.22055738  2.78502755  4.24726785
   2.42644271  2.78502761  0.60676828
  -1.19837445  7.64570093  6.67423232
   1.19868264  3.49387636  3.03373160
  -1.19868258  3.49387533  6.67423194
   1.19837551  7.64570193  3.03373186
   2.39705770  5.56952212  6.67423186
  -2.39705718  5.56952264  3.03373203
   3.44794953  8.35454968  1.82025019
   1.37555106  0.00000050  5.46074993
  -4.13572481  7.16328837  1.82024958
  -0.68777450  1.19126185  5.46075034
   0.68777606  1.19126208  1.82025009
   4.13572442  7.16328812  5.46074957
   3.44795759  2.78455816  4.24723519
   6.19904226  2.78455894  0.60673497
   5.51152337  1.59374116  4.24723453
   4.13598173  3.97625069  0.60673557
   5.51101884  3.97625082  4.24723510
   4.13547576  1.59374102  0.60673496
  -1.37554199  5.56999124  6.67426528
   1.37554286  5.56999203  3.03376449
   0.68751824  4.37829896  6.67426461
  -0.68802301  6.76080886  3.03376517
   0.68802476  6.76080851  6.67426520
  -0.68751835  4.37829937  3.03376475



--------------------------------------------------------------------------------------------------------


 k-point   1 :   0.0000 0.0000 0.0000  plane waves:   42031
 k-point   2 :   0.3333 0.0000 0.0000  plane waves:   42161
 k-point   3 :   0.3333-0.3333 0.0000  plane waves:   42161
 k-point   4 :   0.0000 0.3333 0.0000  plane waves:   42161
 k-point   5 :   0.3333 0.3333 0.0000  plane waves:   42159
 k-point   6 :   0.0000 0.0000 0.2500  plane waves:   42152
 k-point   7 :   0.3333 0.0000 0.2500  plane waves:   42112
 k-point   8 :  -0.3333 0.0000 0.2500  plane waves:   42112
 k-point   9 :   0.3333-0.3333-0.2500  plane waves:   42112
 k-point  10 :  -0.3333 0.3333-0.2500  plane waves:   42112
 k-point  11 :   0.0000 0.3333 0.2500  plane waves:   42112
 k-point  12 :   0.0000-0.3333 0.2500  plane waves:   42112
 k-point  13 :   0.3333 0.3333 0.2500  plane waves:   42159
 k-point  14 :  -0.3333-0.3333 0.2500  plane waves:   42159
 k-point  15 :   0.0000 0.0000 0.5000  plane waves:   42086
 k-point  16 :   0.3333 0.0000 0.5000  plane waves:   42136
 k-point  17 :   0.3333-0.3333 0.5000  plane waves:   42136
 k-point  18 :   0.0000 0.3333 0.5000  plane waves:   42136
 k-point  19 :   0.3333 0.3333 0.5000  plane waves:   42138

 maximum and minimum number of plane-waves per node :      1351     1267

 maximum number of plane-waves:     42161
 maximum index in each direction: 
   IXMAX=   25   IYMAX=   25   IZMAX=   19
   IXMIN=  -25   IYMIN=  -25   IZMIN=  -19


 parallel 3D FFT for wavefunctions:
    minimum data exchange during FFTs selected (reduces bandwidth)
 parallel 3D FFT for charge:
    minimum data exchange during FFTs selected (reduces bandwidth)


 total amount of memory used by VASP MPI-rank0    82880. kBytes
=======================================================================

   base      :      30000. kBytes
   nonl-proj :       6009. kBytes
   fftplans  :       3024. kBytes
   grid      :       6962. kBytes
   one-center:          6. kBytes
   wavefun   :      36879. kBytes

     INWAV:  cpu time      0.0002: real time      0.0002
 Broyden mixing: mesh for mixing (old mesh)
   NGX = 49   NGY = 49   NGZ = 37
  (NGX  =200   NGY  =200   NGZ  =160)
  gives a total of  88837 points

 initial charge density was supplied:
 charge density of overlapping atoms calculated
 number of electron     180.0000000 magnetization 
 keeping initial charge density in first step


--------------------------------------------------------------------------------------------------------


 Maximum index for augmentation-charges          498 (set IRDMAX)


--------------------------------------------------------------------------------------------------------


 First call to EWALD:  gamma=   0.212
 Maximum number of real-space cells 3x 3x 3
 Maximum number of reciprocal cells 3x 3x 2

    FEWALD:  cpu time      0.0043: real time      0.0043


--------------------------------------- Ionic step        1  -------------------------------------------




--------------------------------------- Iteration      1(   1)  ---------------------------------------


    POTLOK:  cpu time      0.1543: real time      0.1551
    SETDIJ:  cpu time      0.2746: real time      0.2756
    TRIAL :  cpu time      9.1348: real time      9.1413
    CORREC:  cpu time      0.0022: real time      0.0022
    --------------------------------------------
      LOOP:  cpu time      9.5933: real time      9.6019

 eigenvalue-minimisations  :  4560
 total energy-change (2. order) : 0.1499024E+04  (-0.1338635E+05)
 number of electron     180.0000000 magnetization 
 augmentation part      180.0000000 magnetization 

 Free energy of the ion-electron system (eV)
  ---------------------------------------------------
  alpha Z        PSCENC =       171.08921574
  Ewald energy   TEWEN  =     -3544.07936003
  -Hartree energ DENC   =     -3369.15698467
  -exchange      EXHF   =         0.00000000
  -V(xc)+E(xc)   XCENC  =       619.82986661
  PAW double counting   =      5659.78435010    -5625.58335659
  entropy T*S    EENTRO =        -0.00138598
  eigenvalues    EBANDS =       -48.11986055
  atomic energy  EATOM  =      7635.26157172
  ---------------------------------------------------
  free energy    TOTEN  =      1499.02405635 eV

  energy without entropy =     1499.02544233  energy(sigma->0) =     1499.02474934


--------------------------------------------------------------------------------------------------------




--------------------------------------- Iteration      1(   2)  ---------------------------------------


    TRIAL :  cpu time     10.7346: real time     10.7412
    CORREC:  cpu time      0.0004: real time      0.0004
    --------------------------------------------
      LOOP:  cpu time     10.7514: real time     10.7709

 eigenvalue-minimisations  :  6040
 total energy-change (2. order) :-0.1701817E+04  (-0.1621731E+04)
 number of electron     180.0000000 magnetization 
 augmentation part      180.0000000 magnetization 

 Free energy of the ion-electron system (eV)
  ---------------------------------------------------
  alpha Z        PSCENC =       171.08921574
  Ewald energy   TEWEN  =     -3544.07936003
  -Hartree energ DENC   =     -3369.15698467
  -exchange      EXHF   =         0.00000000
  -V(xc)+E(xc)   XCENC  =       619.82986661
  PAW double counting   =      5659.78435010    -5625.58335659
  entropy T*S    EENTRO =        -0.00000000
  eigenvalues    EBANDS =     -1749.93836409
  atomic energy  EATOM  =      7635.26157172
  ---------------------------------------------------
  free energy    TOTEN  =      -202.79306121 eV

  energy without entropy =     -202.79306121  energy(sigma->0) =     -202.79306121


--------------------------------------------------------------------------------------------------------




--------------------------------------- Iteration      1(   3)  ---------------------------------------


    TRIAL :  cpu time      9.9301: real time      9.9357
    CORREC:  cpu time      0.0004: real time      0.0004
    --------------------------------------------
      LOOP:  cpu time      9.9435: real time      9.9657

 eigenvalue-minimisations  :  5368
 total energy-change (2. order) :-0.2620938E+03  (-0.2582734E+03)
 number of electron     180.0000000 magnetization 
 augmentation part      180.0000000 magnetization 

 Free energy of the ion-electron system (eV)
  ---------------------------------------------------
  alpha Z        PSCENC =       171.08921574
  Ewald energy   TEWEN  =     -3544.07936003
  -Hartree energ DENC   =     -3369.15698467
  -exchange      EXHF   =         0.00000000
  -V(xc)+E(xc)   XCENC  =       619.82986661
  PAW double counting   =      5659.78435010    -5625.58335659
  entropy T*S    EENTRO =        -0.00000000
  eigenvalues    EBANDS =     -2012.03215943
  atomic energy  EATOM  =      7635.26157172
  ---------------------------------------------------
  free energy    TOTEN  =      -464.88685656 eV

  energy without entropy =     -464.88685656  energy(sigma->0) =     -464.88685656


--------------------------------------------------------------------------------------------------------




--------------------------------------- Iteration      1(   4)  ---------------------------------------


    TRIAL :  cpu time     10.4253: real time     10.4328
    CORREC:  cpu time      0.0003: real time      0.0003
    --------------------------------------------
      LOOP:  cpu time     10.4555: real time     10.4632

 eigenvalue-minimisations  :  5824
 total energy-change (2. order) :-0.1071212E+02  (-0.1064858E+02)
 number of electron     180.0000000 magnetization 
 augmentation part      180.0000000 magnetization 

 Free energy of the ion-electron system (eV)
  ---------------------------------------------------
  alpha Z        PSCENC =       171.08921574
  Ewald energy   TEWEN  =     -3544.07936003
  -Hartree energ DENC   =     -3369.15698467
  -exchange      EXHF   =         0.00000000
  -V(xc)+E(xc)   XCENC  =       619.82986661
  PAW double counting   =      5659.78435010    -5625.58335659
  entropy T*S    EENTRO =        -0.00000000
  eigenvalues    EBANDS =     -2022.74428041
  atomic energy  EATOM  =      7635.26157172
  ---------------------------------------------------
  free energy    TOTEN  =      -475.59897753 eV

  energy without entropy =     -475.59897753  energy(sigma->0) =     -475.59897753


--------------------------------------------------------------------------------------------------------




--------------------------------------- Iteration      1(   5)  ---------------------------------------


    TRIAL :  cpu time     10.6722: real time     10.6799
    CORREC:  cpu time      0.0008: real time      0.0008
    CHARGE:  cpu time      1.7035: real time      1.7071
    --------------------------------------------
      LOOP:  cpu time     12.3911: real time     12.4176

 eigenvalue-minimisations  :  6016
 total energy-change (2. order) :-0.3406892E+00  (-0.3399427E+00)
 number of electron     180.0000000 magnetization 
 augmentation part       -0.7597026 magnetization 

 Free energy of the ion-electron system (eV)
  ---------------------------------------------------
  alpha Z        PSCENC =       171.08921574
  Ewald energy   TEWEN  =     -3544.07936003
  -Hartree energ DENC   =     -3369.15698467
  -exchange      EXHF   =         0.00000000
  -V(xc)+E(xc)   XCENC  =       619.82986661
  PAW double counting   =      5659.78435010    -5625.58335659
  entropy T*S    EENTRO =        -0.00000000
  eigenvalues    EBANDS =     -2023.08496960
  atomic energy  EATOM  =      7635.26157172
  ---------------------------------------------------
  free energy    TOTEN  =      -475.93966672 eV

  energy without entropy =     -475.93966672  energy(sigma->0) =     -475.93966672


--------------------------------------------------------------------------------------------------------




--------------------------------------- Iteration      1(   6)  ---------------------------------------


    POTLOK:  cpu time      0.1439: real time      0.1441
    SETDIJ:  cpu time      0.2662: real time      0.2662
    TRIAL :  cpu time      7.7448: real time      7.7508
    CORREC:  cpu time      4.0448: real time      4.0472
    CHARGE:  cpu time      1.7072: real time      1.7075
    --------------------------------------------
      LOOP:  cpu time     13.9223: real time     13.9460

 eigenvalue-minimisations  :     0
 total energy-change (2. order) : 0.9165282E+02  (-0.1548580E+02)
 number of electron     180.0000000 magnetization 
 augmentation part       -0.8040709 magnetization 

 Free energy of the ion-electron system (eV)
  ---------------------------------------------------
  alpha Z        PSCENC =       171.08921574
  Ewald energy   TEWEN  =     -3544.07936003
  -Hartree energ DENC   =     -4123.57811627
  -exchange      EXHF   =         0.00000000
  -V(xc)+E(xc)   XCENC  =       691.57703717
  PAW double counting   =     73111.96253570   -73083.58305717
  entropy T*S    EENTRO =        -0.00000000
  eigenvalues    EBANDS =     -1242.93667512
  atomic energy  EATOM  =      7635.26157172
  ---------------------------------------------------
  free energy    TOTEN  =      -384.28684825 eV

  energy without entropy =     -384.28684825  energy(sigma->0) =     -384.28684825


--------------------------------------------------------------------------------------------------------




--------------------------------------- Iteration      1(   7)  ---------------------------------------


    POTLOK:  cpu time      0.1420: real time      0.1420
    SETDIJ:  cpu time      0.2763: real time      0.2765
    TRIAL :  cpu time      7.7162: real time      7.7210
    CORREC:  cpu time      4.0110: real time      4.0129
    CHARGE:  cpu time      1.6985: real time      1.6997
    --------------------------------------------
      LOOP:  cpu time     13.8738: real time     13.8822

 eigenvalue-minimisations  :     0
 total energy-change (2. order) :-0.1550023E+02  (-0.1714363E+01)
 number of electron     180.0000000 magnetization 
 augmentation part       -0.8685214 magnetization 

 Free energy of the ion-electron system (eV)
  ---------------------------------------------------
  alpha Z        PSCENC =       171.08921574
  Ewald energy   TEWEN  =     -3544.07936003
  -Hartree energ DENC   =     -3804.47891662
  -exchange      EXHF   =         0.00000000
  -V(xc)+E(xc)   XCENC  =       667.40409089
  PAW double counting   =     92943.78368029   -92911.42658893
  entropy T*S    EENTRO =        -0.00000000
  eigenvalues    EBANDS =     -1557.34077360
  atomic energy  EATOM  =      7635.26157172
  ---------------------------------------------------
  free energy    TOTEN  =      -399.78708054 eV

  energy without entropy =     -399.78708054  energy(sigma->0) =     -399.78708054


--------------------------------------------------------------------------------------------------------




--------------------------------------- Iteration      1(   8)  ---------------------------------------


    POTLOK:  cpu time      0.1425: real time      0.1425
    SETDIJ:  cpu time      0.2647: real time      0.2649
    TRIAL :  cpu time      7.7063: real time      7.7106
    CORREC:  cpu time      4.0034: real time      4.0051
    CHARGE:  cpu time      1.6912: real time      1.6922
    --------------------------------------------
      LOOP:  cpu time     13.8203: real time     13.8455

 eigenvalue-minimisations  :     0
 total energy-change (2. order) :-0.1718067E+01  (-0.4688581E+00)
 number of electron     180.0000000 magnetization 
 augmentation part       -0.8708563 magnetization 

 Free energy of the ion-electron system (eV)
  ---------------------------------------------------
  alpha Z        PSCENC =       171.08921574
  Ewald energy   TEWEN  =     -3544.07936003
  -Hartree energ DENC   =     -3805.37750558
  -exchange      EXHF   =         0.00000000
  -V(xc)+E(xc)   XCENC  =       666.40384965
  PAW double counting   =    102066.57948225  -102033.62091713
  entropy T*S    EENTRO =        -0.00000000
  eigenvalues    EBANDS =     -1557.76148439
  atomic energy  EATOM  =      7635.26157172
  ---------------------------------------------------
  free energy    TOTEN  =      -401.50514777 eV

  energy without entropy =     -401.50514777  energy(sigma->0) =     -401.50514777


--------------------------------------------------------------------------------------------------------




--------------------------------------- Iteration      1(   9)  ---------------------------------------


    POTLOK:  cpu time      0.1414: real time      0.1414
    SETDIJ:  cpu time      0.2654: real time      0.2654
    TRIAL :  cpu time      7.7670: real time      7.7711
    CORREC:  cpu time      4.0199: real time      4.0219
    CHARGE:  cpu time      1.6932: real time      1.6941
    --------------------------------------------
      LOOP:  cpu time     13.9071: real time     13.9285

 eigenvalue-minimisations  :     0
 total energy-change (2. order) :-0.4689839E+00  (-0.1387247E+00)
 number of electron     180.0000000 magnetization 
 augmentation part       -0.8639811 magnetization 

 Free energy of the ion-electron system (eV)
  ---------------------------------------------------
  alpha Z        PSCENC =       171.08921574
  Ewald energy   TEWEN  =     -3544.07936003
  -Hartree energ DENC   =     -3803.67106784
  -exchange      EXHF   =         0.00000000
  -V(xc)+E(xc)   XCENC  =       666.21646920
  PAW double counting   =    106517.71732510  -106484.61376538
  entropy T*S    EENTRO =        -0.00000000
  eigenvalues    EBANDS =     -1559.89452013
  atomic energy  EATOM  =      7635.26157172
  ---------------------------------------------------
  free energy    TOTEN  =      -401.97413162 eV

  energy without entropy =     -401.97413162  energy(sigma->0) =     -401.97413162


--------------------------------------------------------------------------------------------------------




--------------------------------------- Iteration      1(  10)  ---------------------------------------


    POTLOK:  cpu time      0.1413: real time      0.1414
    SETDIJ:  cpu time      0.2654: real time      0.2654
    TRIAL :  cpu time      7.7205: real time      7.7256
    CORREC:  cpu time      4.0377: real time      4.0395
    CHARGE:  cpu time      1.6888: real time      1.6898
    --------------------------------------------
      LOOP:  cpu time     13.8689: real time     13.8945

 eigenvalue-minimisations  :     0
 total energy-change (2. order) :-0.1386238E+00  (-0.4277915E-01)
 number of electron     180.0000000 magnetization 
 augmentation part       -0.8597828 magnetization 

 Free energy of the ion-electron system (eV)
  ---------------------------------------------------
  alpha Z        PSCENC =       171.08921574
  Ewald energy   TEWEN  =     -3544.07936003
  -Hartree energ DENC   =     -3794.43109240
  -exchange      EXHF   =         0.00000000
  -V(xc)+E(xc)   XCENC  =       665.81210093
  PAW double counting   =    107475.65047999  -107442.52508386
  entropy T*S    EENTRO =        -0.00000000
  eigenvalues    EBANDS =     -1568.89058752
  atomic energy  EATOM  =      7635.26157172
  ---------------------------------------------------
  free energy    TOTEN  =      -402.11275544 eV

  energy without entropy =     -402.11275544  energy(sigma->0) =     -402.11275544


--------------------------------------------------------------------------------------------------------




--------------------------------------- Iteration      1(  11)  ---------------------------------------


    POTLOK:  cpu time      0.1413: real time      0.1413
    SETDIJ:  cpu time      0.2646: real time      0.2647
    TRIAL :  cpu time      7.6973: real time      7.7022
    CORREC:  cpu time      4.0540: real time      4.0560
    CHARGE:  cpu time      1.6918: real time      1.6927
    --------------------------------------------
      LOOP:  cpu time     13.8650: real time     13.8895

 eigenvalue-minimisations  :     0
 total energy-change (2. order) :-0.4276805E-01  (-0.1104254E-01)
 number of electron     180.0000000 magnetization 
 augmentation part       -0.8584757 magnetization 

 Free energy of the ion-electron system (eV)
  ---------------------------------------------------
  alpha Z        PSCENC =       171.08921574
  Ewald energy   TEWEN  =     -3544.07936003
  -Hartree energ DENC   =     -3793.54808221
  -exchange      EXHF   =         0.00000000
  -V(xc)+E(xc)   XCENC  =       665.78202431
  PAW double counting   =    106885.61598289  -106852.52949029
  entropy T*S    EENTRO =        -0.00000000
  eigenvalues    EBANDS =     -1569.74738563
  atomic energy  EATOM  =      7635.26157172
  ---------------------------------------------------
  free energy    TOTEN  =      -402.15552349 eV

  energy without entropy =     -402.15552349  energy(sigma->0) =     -402.15552349


--------------------------------------------------------------------------------------------------------




--------------------------------------- Iteration      1(  12)  ---------------------------------------


    POTLOK:  cpu time      0.1417: real time      0.1418
    SETDIJ:  cpu time      0.2632: real time      0.2632
    TRIAL :  cpu time      7.7165: real time      7.7211
    CORREC:  cpu time      4.0193: real time      4.0216
    CHARGE:  cpu time      1.6924: real time      1.6933
    --------------------------------------------
      LOOP:  cpu time     13.8457: real time     13.8720

 eigenvalue-minimisations  :     0
 total energy-change (2. order) :-0.1103349E-01  (-0.2915204E-02)
 number of electron     180.0000000 magnetization 
 augmentation part       -0.8595764 magnetization 

 Free energy of the ion-electron system (eV)
  ---------------------------------------------------
  alpha Z        PSCENC =       171.08921574
  Ewald energy   TEWEN  =     -3544.07936003
  -Hartree energ DENC   =     -3792.87247270
  -exchange      EXHF   =         0.00000000
  -V(xc)+E(xc)   XCENC  =       665.70296097
  PAW double counting   =    106392.55474149  -106359.48186268
  entropy T*S    EENTRO =        -0.00000000
  eigenvalues    EBANDS =     -1570.34135149
  atomic energy  EATOM  =      7635.26157172
  ---------------------------------------------------
  free energy    TOTEN  =      -402.16655698 eV

  energy without entropy =     -402.16655698  energy(sigma->0) =     -402.16655698


--------------------------------------------------------------------------------------------------------




--------------------------------------- Iteration      1(  13)  ---------------------------------------


    POTLOK:  cpu time      0.1414: real time      0.1414
    SETDIJ:  cpu time      0.2642: real time      0.2642
    TRIAL :  cpu time      7.7217: real time      7.7269
    CORREC:  cpu time      4.0247: real time      4.0267
    CHARGE:  cpu time      1.6903: real time      1.6914
    --------------------------------------------
      LOOP:  cpu time     13.8632: real time     13.8848

 eigenvalue-minimisations  :     0
 total energy-change (2. order) :-0.2909517E-02  (-0.6948935E-03)
 number of electron     180.0000000 magnetization 
 augmentation part       -0.8604082 magnetization 

 Free energy of the ion-electron system (eV)
  ---------------------------------------------------
  alpha Z        PSCENC =       171.08921574
  Ewald energy   TEWEN  =     -3544.07936003
  -Hartree energ DENC   =     -3792.08742943
  -exchange      EXHF   =         0.00000000
  -V(xc)+E(xc)   XCENC  =       665.65023986
  PAW double counting   =    106154.06773480  -106120.99490901
  entropy T*S    EENTRO =        -0.00000000
  eigenvalues    EBANDS =     -1571.07653015
  atomic energy  EATOM  =      7635.26157172
  ---------------------------------------------------
  free energy    TOTEN  =      -402.16946650 eV

  energy without entropy =     -402.16946650  energy(sigma->0) =     -402.16946650


--------------------------------------------------------------------------------------------------------




--------------------------------------- Iteration      1(  14)  ---------------------------------------


    POTLOK:  cpu time      0.1412: real time      0.1412
    SETDIJ:  cpu time      0.2647: real time      0.2647
    TRIAL :  cpu time      7.7040: real time      7.7093
    CORREC:  cpu time      4.0427: real time      4.0447
    CHARGE:  cpu time      1.6939: real time      1.6949
    --------------------------------------------
      LOOP:  cpu time     13.8586: real time     13.8856

 eigenvalue-minimisations  :     0
 total energy-change (2. order) :-0.6885984E-03  (-0.1538875E-03)
 number of electron     180.0000000 magnetization 
 augmentation part       -0.8606807 magnetization 

 Free energy of the ion-electron system (eV)
  ---------------------------------------------------
  alpha Z        PSCENC =       171.08921574
  Ewald energy   TEWEN  =     -3544.07936003
  -Hartree energ DENC   =     -3792.21560028
  -exchange      EXHF   =         0.00000000
  -V(xc)+E(xc)   XCENC  =       665.65477456
  PAW double counting   =    106035.13694027  -106002.06256163
  entropy T*S    EENTRO =        -0.00000000
  eigenvalues    EBANDS =     -1570.95513544
  atomic energy  EATOM  =      7635.26157172
  ---------------------------------------------------
  free energy    TOTEN  =      -402.17015510 eV

  energy without entropy =     -402.17015510  energy(sigma->0) =     -402.17015510


--------------------------------------------------------------------------------------------------------




--------------------------------------- Iteration      1(  15)  ---------------------------------------


    POTLOK:  cpu time      0.1444: real time      0.1446
    SETDIJ:  cpu time      0.2618: real time      0.2618
    TRIAL :  cpu time      7.7130: real time      7.7181
    CORREC:  cpu time      4.1481: real time      4.1502
    CHARGE:  cpu time      1.7637: real time      1.7668
    --------------------------------------------
      LOOP:  cpu time     14.0608: real time     14.0716

 eigenvalue-minimisations  :     0
 total energy-change (2. order) :-0.1527255E-03  (-0.4051700E-04)
 number of electron     180.0000000 magnetization 
 augmentation part       -0.8607965 magnetization 

 Free energy of the ion-electron system (eV)
  ---------------------------------------------------
  alpha Z        PSCENC =       171.08921574
  Ewald energy   TEWEN  =     -3544.07936003
  -Hartree energ DENC   =     -3792.14375892
  -exchange      EXHF   =         0.00000000
  -V(xc)+E(xc)   XCENC  =       665.64618666
  PAW double counting   =    105971.48131828  -105938.40541638
  entropy T*S    EENTRO =        -0.00000000
  eigenvalues    EBANDS =     -1571.02006490
  atomic energy  EATOM  =      7635.26157172
  ---------------------------------------------------
  free energy    TOTEN  =      -402.17030782 eV

  energy without entropy =     -402.17030782  energy(sigma->0) =     -402.17030782


--------------------------------------------------------------------------------------------------------




--------------------------------------- Iteration      1(  16)  ---------------------------------------


    POTLOK:  cpu time      0.1409: real time      0.1413
    SETDIJ:  cpu time      0.2649: real time      0.2649
    TRIAL :  cpu time      7.7313: real time      7.7363
    CORREC:  cpu time      4.0161: real time      4.0185
    CHARGE:  cpu time      1.6901: real time      1.6908
    --------------------------------------------
      LOOP:  cpu time     13.8571: real time     13.8838

 eigenvalue-minimisations  :     0
 total energy-change (2. order) :-0.3960889E-04  (-0.1176514E-04)
 number of electron     180.0000000 magnetization 
 augmentation part       -0.8608639 magnetization 

 Free energy of the ion-electron system (eV)
  ---------------------------------------------------
  alpha Z        PSCENC =       171.08921574
  Ewald energy   TEWEN  =     -3544.07936003
  -Hartree energ DENC   =     -3792.19601976
  -exchange      EXHF   =         0.00000000
  -V(xc)+E(xc)   XCENC  =       665.64992611
  PAW double counting   =    105936.32528068  -105903.25022612
  entropy T*S    EENTRO =        -0.00000000
  eigenvalues    EBANDS =     -1570.97073578
  atomic energy  EATOM  =      7635.26157172
  ---------------------------------------------------
  free energy    TOTEN  =      -402.17034743 eV

  energy without entropy =     -402.17034743  energy(sigma->0) =     -402.17034743


--------------------------------------------------------------------------------------------------------




--------------------------------------- Iteration      1(  17)  ---------------------------------------


    POTLOK:  cpu time      0.1407: real time      0.1410
    SETDIJ:  cpu time      0.2644: real time      0.2644
    TRIAL :  cpu time      7.7274: real time      7.7327
    CORREC:  cpu time      4.0179: real time      4.0199
    CHARGE:  cpu time      1.6930: real time      1.6938
    --------------------------------------------
      LOOP:  cpu time     13.9120: real time     13.9389

 eigenvalue-minimisations  :     0
 total energy-change (2. order) :-0.1148225E-04  (-0.3366591E-05)
 number of electron     180.0000000 magnetization 
 augmentation part       -0.8608924 magnetization 

 Free energy of the ion-electron system (eV)
  ---------------------------------------------------
  alpha Z        PSCENC =       171.08921574
  Ewald energy   TEWEN  =     -3544.07936003
  -Hartree energ DENC   =     -3792.21665422
  -exchange      EXHF   =         0.00000000
  -V(xc)+E(xc)   XCENC  =       665.65121734
  PAW double counting   =    105933.55684232  -105900.48166566
  entropy T*S    EENTRO =        -0.00000000
  eigenvalues    EBANDS =     -1570.95152613
  atomic energy  EATOM  =      7635.26157172
  ---------------------------------------------------
  free energy    TOTEN  =      -402.17035891 eV

  energy without entropy =     -402.17035891  energy(sigma->0) =     -402.17035891


--------------------------------------------------------------------------------------------------------




--------------------------------------- Iteration      1(  18)  ---------------------------------------


    POTLOK:  cpu time      0.1407: real time      0.1407
    SETDIJ:  cpu time      0.2957: real time      0.2957
    TRIAL :  cpu time      7.7450: real time      7.7511
    CORREC:  cpu time      4.0144: real time      4.0166
    CHARGE:  cpu time      1.6916: real time      1.6923
    --------------------------------------------
      LOOP:  cpu time     14.1430: real time     14.1525

 eigenvalue-minimisations  :     0
 total energy-change (2. order) :-0.3449080E-05  (-0.9836667E-06)
 number of electron     180.0000000 magnetization 
 augmentation part       -0.8608970 magnetization 

 Free energy of the ion-electron system (eV)
  ---------------------------------------------------
  alpha Z        PSCENC =       171.08921574
  Ewald energy   TEWEN  =     -3544.07936003
  -Hartree energ DENC   =     -3792.21616272
  -exchange      EXHF   =         0.00000000
  -V(xc)+E(xc)   XCENC  =       665.65102730
  PAW double counting   =    105942.62579344  -105909.55035547
  entropy T*S    EENTRO =        -0.00000000
  eigenvalues    EBANDS =     -1570.95209234
  atomic energy  EATOM  =      7635.26157172
  ---------------------------------------------------
  free energy    TOTEN  =      -402.17036236 eV

  energy without entropy =     -402.17036236  energy(sigma->0) =     -402.17036236


--------------------------------------------------------------------------------------------------------




--------------------------------------- Iteration      1(  19)  ---------------------------------------


    POTLOK:  cpu time      0.1413: real time      0.1414
    SETDIJ:  cpu time      0.2641: real time      0.2641
    TRIAL :  cpu time      7.7216: real time      7.7266
    CORREC:  cpu time      4.0252: real time      4.0273
    CHARGE:  cpu time      1.6920: real time      1.6927
    --------------------------------------------
      LOOP:  cpu time     13.8590: real time     13.8836

 eigenvalue-minimisations  :     0
 total energy-change (2. order) :-0.9952637E-06  (-0.2140477E-06)
 number of electron     180.0000000 magnetization 
 augmentation part       -0.8608973 magnetization 

 Free energy of the ion-electron system (eV)
  ---------------------------------------------------
  alpha Z        PSCENC =       171.08921574
  Ewald energy   TEWEN  =     -3544.07936003
  -Hartree energ DENC   =     -3792.22601884
  -exchange      EXHF   =         0.00000000
  -V(xc)+E(xc)   XCENC  =       665.65197419
  PAW double counting   =    105949.21517388  -105916.13980486
  entropy T*S    EENTRO =        -0.00000000
  eigenvalues    EBANDS =     -1570.94311516
  atomic energy  EATOM  =      7635.26157172
  ---------------------------------------------------
  free energy    TOTEN  =      -402.17036336 eV

  energy without entropy =     -402.17036336  energy(sigma->0) =     -402.17036336


--------------------------------------------------------------------------------------------------------




--------------------------------------- Iteration      1(  20)  ---------------------------------------


    POTLOK:  cpu time      0.1415: real time      0.1415
    SETDIJ:  cpu time      0.2661: real time      0.2663
    TRIAL :  cpu time      7.7491: real time      7.7539
    CORREC:  cpu time      4.0682: real time      4.0711
    CHARGE:  cpu time      1.7498: real time      1.7504
    --------------------------------------------
      LOOP:  cpu time     13.9877: real time     14.0132

 eigenvalue-minimisations  :     0
 total energy-change (2. order) :-0.2230954E-06  (-0.6024299E-07)
 number of electron     180.0000000 magnetization 
 augmentation part       -0.8608963 magnetization 

 Free energy of the ion-electron system (eV)
  ---------------------------------------------------
  alpha Z        PSCENC =       171.08921574
  Ewald energy   TEWEN  =     -3544.07936003
  -Hartree energ DENC   =     -3792.22264404
  -exchange      EXHF   =         0.00000000
  -V(xc)+E(xc)   XCENC  =       665.65188542
  PAW double counting   =    105951.53010082  -105918.45472795
  entropy T*S    EENTRO =        -0.00000000
  eigenvalues    EBANDS =     -1570.94640526
  atomic energy  EATOM  =      7635.26157172
  ---------------------------------------------------
  free energy    TOTEN  =      -402.17036358 eV

  energy without entropy =     -402.17036358  energy(sigma->0) =     -402.17036358


--------------------------------------------------------------------------------------------------------




--------------------------------------- Iteration      1(  21)  ---------------------------------------


    POTLOK:  cpu time      0.1409: real time      0.1409
    SETDIJ:  cpu time      0.2652: real time      0.2654
    TRIAL :  cpu time      7.7275: real time      7.7328
    CORREC:  cpu time      4.0189: real time      4.0218
    EDDIAG:  cpu time      1.8547: real time      1.8565
    CHARGE:  cpu time      1.6945: real time      1.6952
    --------------------------------------------
      LOOP:  cpu time     15.7201: real time     15.7484

 eigenvalue-minimisations  :     0
 total energy-change (2. order) :-0.6228220E-07  (-0.2658879E-07)
 number of electron     180.0000000 magnetization 
 augmentation part       -0.8608969 magnetization 

 Free energy of the ion-electron system (eV)
  ---------------------------------------------------
  alpha Z        PSCENC =       171.08921574
  Ewald energy   TEWEN  =     -3544.07936003
  -Hartree energ DENC   =     -3792.22286440
  -exchange      EXHF   =         0.00000000
  -V(xc)+E(xc)   XCENC  =       665.65191209
  PAW double counting   =    105952.14851597  -105919.07316039
  entropy T*S    EENTRO =        -0.00000000
  eigenvalues    EBANDS =     -1570.94619435
  atomic energy  EATOM  =      7635.26157172
  ---------------------------------------------------
  free energy    TOTEN  =      -402.17036364 eV

  energy without entropy =     -402.17036364  energy(sigma->0) =     -402.17036364


--------------------------------------------------------------------------------------------------------


  average scaling for gradient   0.7964


 average (electrostatic) potential at core
  the test charge radii are     0.5770  0.4325  0.5902
  (the norm of the test charge is              1.0000)
       1 -85.0991       2 -85.0991       3 -85.0991       4 -85.0991       5 -85.0991
       6 -85.0991       7 -85.0996       8 -85.0996       9 -85.0996      10 -85.0996
      11 -85.0996      12 -85.0996      13 -85.0996      14 -85.0996      15 -85.0996
      16 -85.0996      17 -85.0996      18 -85.0996      19 -42.2313      20 -42.2313
      21 -42.2313      22 -42.2313      23 -42.2313      24 -42.2313      25 -42.2325
      26 -42.2325      27 -42.2325      28 -42.2325      29 -42.2325      30 -42.2325
      31 -42.2325      32 -42.2325      33 -42.2325      34 -42.2325      35 -42.2325
      36 -42.2325      37-101.6353      38-101.6353      39-101.6353      40-101.6353
      41-101.6353      42-101.6353      43-101.6356      44-101.6356      45-101.6356
      46-101.6356      47-101.6356      48-101.6356      49-101.6356      50-101.6356
      51-101.6356      52-101.6356      53-101.6356      54-101.6356



 E-fermi :  -0.9667     XC(G=0):  -8.5032     alpha+bet : -6.9123

 Fermi energy:        -0.9667362242

 k-point     1 :       0.0000    0.0000    0.0000
  band No.  band energies     occupation 
      1     -21.6732      2.00000
      2     -21.6272      2.00000
      3     -21.6270      2.00000
      4     -21.5751      2.00000
      5     -21.5750      2.00000
      6     -21.5458      2.00000
      7     -18.4117      2.00000
      8     -18.4117      2.00000
      9     -18.4116      2.00000
     10     -18.4116      2.00000
     11     -18.3566      2.00000
     12     -18.3565      2.00000
     13     -18.3380      2.00000
     14     -18.3380      2.00000
     15     -18.3093      2.00000
     16     -18.3093      2.00000
     17     -18.3091      2.00000
     18     -18.3091      2.00000
     19     -12.5069      2.00000
     20     -12.5069      2.00000
     21     -12.4592      2.00000
     22     -12.4592      2.00000
     23     -12.4590      2.00000
     24     -12.4590      2.00000
     25     -12.3929      2.00000
     26     -12.3929      2.00000
     27     -12.3929      2.00000
     28     -12.3929      2.00000
     29     -12.3352      2.00000
     30     -12.3352      2.00000
     31      -9.1577      2.00000
     32      -8.8264      2.00000
     33      -8.8261      2.00000
     34      -8.7693      2.00000
     35      -8.7688      2.00000
     36      -8.7639      2.00000
     37      -8.6267      2.00000
     38      -8.5764      2.00000
     39      -8.5754      2.00000
     40      -8.3599      2.00000
     41      -8.3010      2.00000
     42      -8.3009      2.00000
     43      -6.7374      2.00000
     44      -6.7372      2.00000
     45      -6.7011      2.00000
     46      -5.8176      2.00000
     47      -5.8174      2.00000
     48      -5.7705      2.00000
     49      -5.7415      2.00000
     50      -5.7415      2.00000
     51      -5.7411      2.00000
     52      -5.7411      2.00000
     53      -5.5822      2.00000
     54      -5.5822      2.00000
     55      -5.3784      2.00000
     56      -5.3784      2.00000
     57      -5.3779      2.00000
     58      -5.3779      2.00000
     59      -5.1682      2.00000
     60      -5.1682      2.00000
     61      -4.7406      2.00000
     62      -4.3548      2.00000
     63      -4.3544      2.00000
     64      -3.9487      2.00000
     65      -3.9485      2.00000
     66      -3.7843      2.00000
     67      -3.6412      2.00000
     68      -3.6412      2.00000
     69      -3.5236      2.00000
     70      -3.5236      2.00000
     71      -3.5234      2.00000
     72      -3.5234      2.00000
     73      -2.8286      2.00000
[...]
     98       3.0718      0.00000
     99       3.0929      0.00000
    100       3.0995      0.00000
    101       3.1143      0.00000
    102       3.1374      0.00000
    103       6.6232      0.00000
    104       6.6270      0.00000
    105       6.9135      0.00000
    106       6.9311      0.00000
    107       6.9746      0.00000
    108       6.9806      0.00000
    109       7.4871      0.00000
    110       7.5114      0.00000
    111       7.7229      0.00000
    112       7.8109      0.00000
    113       7.8641      0.00000
    114       7.9700      0.00000
    115       8.1243      0.00000
    116       8.1619      0.00000
    117       8.3622      0.00000
    118       8.4668      0.00000
    119       8.6639      0.00000
    120       8.7817      0.00000

 k-point    19 :       0.3333    0.3333    0.5000
  band No.  band energies     occupation 
      1     -21.6044      2.00000
      2     -21.6044      2.00000
      3     -21.6044      2.00000
      4     -21.6044      2.00000
      5     -21.6042      2.00000
      6     -21.6042      2.00000
      7     -18.3813      2.00000
      8     -18.3813      2.00000
      9     -18.3812      2.00000
     10     -18.3812      2.00000
     11     -18.3812      2.00000
     12     -18.3812      2.00000
     13     -18.3309      2.00000
     14     -18.3309      2.00000
     15     -18.3308      2.00000
     16     -18.3308      2.00000
     17     -18.3307      2.00000
     18     -18.3307      2.00000
     19     -12.4943      2.00000
     20     -12.4943      2.00000
     21     -12.4939      2.00000
     22     -12.4939      2.00000
     23     -12.4939      2.00000
     24     -12.4939      2.00000
     25     -12.3586      2.00000
     26     -12.3586      2.00000
     27     -12.3584      2.00000
     28     -12.3584      2.00000
     29     -12.3584      2.00000
     30     -12.3583      2.00000
     31      -8.7114      2.00000
     32      -8.7114      2.00000
     33      -8.7114      2.00000
     34      -8.7114      2.00000
     35      -8.7111      2.00000
     36      -8.7111      2.00000
     37      -8.6125      2.00000
     38      -8.6125      2.00000
     39      -8.6125      2.00000
     40      -8.6125      2.00000
     41      -8.6117      2.00000
     42      -8.6117      2.00000
     43      -6.3274      2.00000
     44      -6.3274      2.00000
     45      -6.3274      2.00000
     46      -6.3274      2.00000
     47      -6.3271      2.00000
     48      -6.3271      2.00000
     49      -5.6950      2.00000
     50      -5.6950      2.00000
     51      -5.6946      2.00000
     52      -5.6945      2.00000
     53      -5.6945      2.00000
     54      -5.6945      2.00000
     55      -5.2660      2.00000
     56      -5.2660      2.00000
     57      -5.2656      2.00000
     58      -5.2656      2.00000
     59      -5.2656      2.00000
     60      -5.2656      2.00000
     61      -4.1526      2.00000
     62      -4.1526      2.00000
     63      -4.1526      2.00000
     64      -4.1526      2.00000
     65      -4.1523      2.00000
     66      -4.1523      2.00000
     67      -3.2256      2.00000
     68      -3.2256      2.00000
     69      -3.2254      2.00000
     70      -3.2254      2.00000
     71      -3.2254      2.00000
     72      -3.2254      2.00000
     73      -3.1510      2.00000
     74      -3.1510      2.00000
     75      -3.1508      2.00000
     76      -3.1508      2.00000
     77      -3.1508      2.00000
     78      -3.1508      2.00000
     79      -1.5512      2.00000
     80      -1.5512      2.00000
     81      -1.5511      2.00000
     82      -1.5511      2.00000
     83      -1.5511      2.00000
     84      -1.5511      2.00000
     85      -1.0866      2.00000
     86      -1.0866      2.00000
     87      -1.0866      2.00000
     88      -1.0866      2.00000
     89      -1.0866      2.00000
     90      -1.0866      2.00000
     91       2.9262      0.00000
     92       2.9262      0.00000
     93       2.9265      0.00000
     94       2.9265      0.00000
     95       2.9265      0.00000
     96       2.9265      0.00000
     97       3.1131      0.00000
     98       3.1131      0.00000
     99       3.1133      0.00000
    100       3.1133      0.00000
    101       3.1134      0.00000
    102       3.1134      0.00000
    103       6.9086      0.00000
    104       6.9090      0.00000
    105       6.9097      0.00000
    106       6.9100      0.00000
    107       6.9102      0.00000
    108       6.9113      0.00000
    109       7.6355      0.00000
    110       7.6356      0.00000
    111       7.6358      0.00000
    112       7.6371      0.00000
    113       7.6376      0.00000
    114       7.6483      0.00000
    115       8.2772      0.00000
    116       8.2874      0.00000
    117       8.2955      0.00000
    118       8.3077      0.00000
    119       8.3909      0.00000
    120       8.7149      0.00000


--------------------------------------------------------------------------------------------------------


 soft charge-density along one line, spin component           1
         0         1         2         3         4         5         6         7         8         9
 total charge-density along one line

 pseudopotential strength for first ion, spin component:           1
 12.528  21.078  -0.010  -0.000   0.006  -0.018  -0.000   0.010
 21.078  35.462  -0.017  -0.000   0.010  -0.030  -0.000   0.017
 -0.010  -0.017  -3.191  -0.000  -0.001  -5.711  -0.000  -0.001
 -0.000  -0.000  -0.000  -3.192  -0.000  -0.000  -5.713  -0.000
  0.006   0.010  -0.001  -0.000  -3.191  -0.001  -0.000  -5.713
 -0.018  -0.030  -5.711  -0.000  -0.001 -10.201  -0.000  -0.002
 -0.000  -0.000  -0.000  -5.713  -0.000  -0.000 -10.202  -0.000
  0.010   0.017  -0.001  -0.000  -5.713  -0.002  -0.000 -10.203
 total augmentation occupancy for first ion, spin component:           1
 10.218  -3.911  -1.213   0.000   0.700   0.593  -0.000  -0.343
 -3.911   1.557   0.662  -0.000  -0.382  -0.305   0.000   0.176
 -1.213   0.662   8.044  -0.001   0.855  -2.828   0.000  -0.438
  0.000  -0.000  -0.001   3.438  -0.001   0.000  -1.036   0.000
  0.700  -0.382   0.855  -0.001   9.031  -0.438   0.000  -3.334
  0.593  -0.305  -2.828   0.000  -0.438   1.014  -0.000   0.208
 -0.000   0.000   0.000  -1.036   0.000  -0.000   0.315  -0.000
 -0.343   0.176  -0.438   0.000  -3.334   0.208  -0.000   1.254


------------------------ aborting loop because EDIFF is reached ----------------------------------------


    FORLOC:  cpu time      0.0155: real time      0.0155
    FORNL :  cpu time      1.6811: real time      1.6822
    FORCOR:  cpu time      0.4070: real time      0.4075
    OFIELD:  cpu time      0.0017: real time      0.0017

 VOLUME and BASIS-vectors are now :
 -----------------------------------------------------------------------------
  energy-cutoff  :     1000.00
  volume of cell :      586.82
      direct lattice vectors                 reciprocal lattice vectors
     9.647000000  0.000000000  0.000000000     0.103659169  0.059847628 -0.000000000
    -4.823500000  8.354550000  0.000000000     0.000000000  0.119695256  0.000000000
     0.000000000  0.000000000  7.281000000     0.000000000 -0.000000000  0.137343771

  length of vectors
     9.647000000  9.647002537  7.281000000     0.119695287  0.119695256  0.137343771


 FORCES acting on ions:
    Electron-Ion                     Ewald-Force                    Non-Local-Force
 -----------------------------------------------------------------------------------------------
   0.753E+02 -.130E+03 0.820E-04   -.781E+02 0.135E+03 -.260E-04   0.290E+01 -.502E+01 0.245E-05
   -.753E+02 0.130E+03 0.495E-04   0.781E+02 -.135E+03 0.565E-05   -.290E+01 0.502E+01 -.245E-05
   0.753E+02 0.130E+03 0.772E-04   -.781E+02 -.135E+03 -.111E-03   0.290E+01 0.502E+01 0.201E-05
   -.753E+02 -.130E+03 -.172E-03   0.781E+02 0.135E+03 0.128E-03   -.290E+01 -.502E+01 -.201E-05
   -.151E+03 0.199E-03 0.490E-04   0.156E+03 -.155E-03 0.685E-04   -.580E+01 -.242E-04 -.995E-06
   0.151E+03 -.204E-03 0.236E-03   -.156E+03 0.246E-03 -.109E-03   0.580E+01 0.242E-04 0.995E-06
   0.754E+02 -.130E+03 0.155E-01   -.781E+02 0.135E+03 -.145E-01   0.290E+01 -.503E+01 0.348E-03
   -.753E+02 0.130E+03 0.154E-01   0.780E+02 -.135E+03 -.146E-01   -.290E+01 0.503E+01 0.345E-03
   0.753E+02 0.130E+03 0.157E-01   -.780E+02 -.135E+03 -.146E-01   0.290E+01 0.503E+01 0.347E-03
   -.754E+02 -.130E+03 0.153E-01   0.781E+02 0.135E+03 -.145E-01   -.290E+01 -.503E+01 0.348E-03
   -.151E+03 -.590E-01 0.155E-01   0.156E+03 0.591E-01 -.145E-01   -.580E+01 0.243E-03 0.345E-03
   0.151E+03 -.594E-01 0.154E-01   -.156E+03 0.595E-01 -.146E-01   0.580E+01 0.299E-03 0.349E-03
   0.753E+02 -.130E+03 -.154E-01   -.780E+02 0.135E+03 0.145E-01   0.290E+01 -.503E+01 -.345E-03
   -.754E+02 0.130E+03 -.154E-01   0.781E+02 -.135E+03 0.146E-01   -.290E+01 0.503E+01 -.348E-03
   0.754E+02 0.130E+03 -.156E-01   -.781E+02 -.135E+03 0.146E-01   0.290E+01 0.503E+01 -.348E-03
   -.753E+02 -.130E+03 -.152E-01   0.780E+02 0.135E+03 0.145E-01   -.290E+01 -.503E+01 -.347E-03
   -.151E+03 0.594E-01 -.155E-01   0.156E+03 -.596E-01 0.146E-01   -.580E+01 -.299E-03 -.349E-03
   0.151E+03 0.590E-01 -.154E-01   -.156E+03 -.591E-01 0.146E-01   0.580E+01 -.243E-03 -.345E-03
   0.265E+02 -.460E+02 -.140E-04   -.296E+02 0.512E+02 0.197E-04   0.314E+01 -.544E+01 -.121E-05
   -.265E+02 0.460E+02 0.150E-04   0.296E+02 -.512E+02 -.100E-04   -.314E+01 0.544E+01 0.121E-05
   0.265E+02 0.460E+02 -.172E-04   -.296E+02 -.512E+02 0.891E-05   0.314E+01 0.544E+01 -.253E-05
   -.265E+02 -.460E+02 0.458E-05   0.296E+02 0.512E+02 -.130E-04   -.314E+01 -.544E+01 0.253E-05
   -.531E+02 0.312E-04 0.169E-04   0.591E+02 -.356E-04 -.245E-05   -.628E+01 0.993E-06 0.203E-05
   0.531E+02 -.306E-04 -.341E-05   -.591E+02 0.337E-04 0.177E-04   0.628E+01 -.993E-06 -.203E-05
   0.265E+02 -.460E+02 -.429E-02   -.296E+02 0.512E+02 0.462E-02   0.314E+01 -.544E+01 -.561E-03
   -.265E+02 0.460E+02 -.428E-02   0.296E+02 -.512E+02 0.459E-02   -.314E+01 0.544E+01 -.560E-03
   0.265E+02 0.460E+02 -.427E-02   -.296E+02 -.512E+02 0.461E-02   0.314E+01 0.544E+01 -.561E-03
   -.265E+02 -.460E+02 -.431E-02   0.296E+02 0.512E+02 0.461E-02   -.314E+01 -.544E+01 -.561E-03
   -.531E+02 -.133E-02 -.428E-02   0.591E+02 0.226E-02 0.461E-02   -.628E+01 0.813E-03 -.560E-03
   0.531E+02 -.135E-02 -.431E-02   -.591E+02 0.231E-02 0.462E-02   0.628E+01 0.810E-03 -.562E-03
   0.265E+02 -.460E+02 0.428E-02   -.296E+02 0.512E+02 -.460E-02   0.314E+01 -.544E+01 0.560E-03
   -.265E+02 0.460E+02 0.431E-02   0.296E+02 -.512E+02 -.462E-02   -.314E+01 0.544E+01 0.561E-03
   0.265E+02 0.460E+02 0.428E-02   -.296E+02 -.512E+02 -.463E-02   0.314E+01 0.544E+01 0.561E-03
   -.265E+02 -.460E+02 0.430E-02   0.296E+02 0.512E+02 -.460E-02   -.314E+01 -.544E+01 0.561E-03
   -.531E+02 0.138E-02 0.430E-02   0.591E+02 -.230E-02 -.463E-02   -.628E+01 -.810E-03 0.562E-03
   0.531E+02 0.131E-02 0.429E-02   -.591E+02 -.225E-02 -.460E-02   0.628E+01 -.813E-03 0.560E-03
   0.197E+03 -.227E-03 -.148E-03   -.234E+03 0.119E-03 0.870E-04   0.374E+02 -.324E-04 -.194E-04
   -.197E+03 0.610E-04 -.252E-04   0.234E+03 -.230E-03 -.655E-04   -.374E+02 0.324E-04 0.194E-04
   -.984E+02 0.170E+03 0.895E-04   0.117E+03 -.203E+03 -.397E-04   -.187E+02 0.323E+02 0.726E-05
   0.984E+02 -.170E+03 0.226E-04   -.117E+03 0.203E+03 0.450E-04   0.187E+02 -.323E+02 -.726E-05
   -.984E+02 -.170E+03 0.176E-03   0.117E+03 0.203E+03 0.545E-04   -.187E+02 -.323E+02 -.362E-05
   0.984E+02 0.170E+03 0.281E-03   -.117E+03 -.203E+03 -.582E-04   0.187E+02 0.323E+02 0.362E-05
   0.197E+03 0.120E-01 -.747E-02   -.234E+03 -.198E-01 0.105E-01   0.373E+02 0.114E-01 -.384E-02
   -.197E+03 0.123E-01 -.782E-02   0.234E+03 -.201E-01 0.104E-01   -.373E+02 0.114E-01 -.383E-02
   -.984E+02 0.170E+03 -.740E-02   0.117E+03 -.203E+03 0.104E-01   -.187E+02 0.323E+02 -.382E-02
   0.984E+02 -.170E+03 -.787E-02   -.117E+03 0.203E+03 0.105E-01   0.187E+02 -.324E+02 -.385E-02
   -.984E+02 -.170E+03 -.758E-02   0.117E+03 0.203E+03 0.105E-01   -.187E+02 -.324E+02 -.384E-02
   0.984E+02 0.170E+03 -.774E-02   -.117E+03 -.203E+03 0.104E-01   0.187E+02 0.323E+02 -.384E-02
   0.197E+03 -.125E-01 0.748E-02   -.234E+03 0.202E-01 -.104E-01   0.373E+02 -.114E-01 0.383E-02
   -.197E+03 -.122E-01 0.791E-02   0.234E+03 0.197E-01 -.105E-01   -.373E+02 -.114E-01 0.384E-02
   -.984E+02 0.170E+03 0.762E-02   0.117E+03 -.203E+03 -.106E-01   -.187E+02 0.324E+02 0.385E-02
   0.984E+02 -.170E+03 0.780E-02   -.117E+03 0.203E+03 -.103E-01   0.187E+02 -.323E+02 0.382E-02
   -.984E+02 -.170E+03 0.752E-02   0.117E+03 0.203E+03 -.104E-01   -.187E+02 -.323E+02 0.384E-02
   0.984E+02 0.170E+03 0.778E-02   -.117E+03 -.203E+03 -.104E-01   0.187E+02 0.324E+02 0.384E-02
 -----------------------------------------------------------------------------------------------
   -.509E-02 -.572E-03 0.120E-02   0.142E-13 -.568E-13 0.971E-16   -.355E-14 0.000E+00 0.867E-18


 POSITION                                       TOTAL-FORCE (eV/Angst)
 -----------------------------------------------------------------------------------
     -0.65236      1.12991      1.82025         0.161108     -0.279118      0.000003
      5.47586      7.22464      5.46075        -0.161108      0.279118     -0.000003
      4.17114      7.22463      1.82025         0.161161      0.279173      0.000008
      0.65236      1.12992      5.46075        -0.161161     -0.279173     -0.000008
      1.30471      0.00000      1.82025        -0.322255     -0.000022     -0.000006
      3.51879      8.35455      5.46075         0.322255      0.000022      0.000006
      4.17094      3.91468      4.24718         0.162612     -0.282612      0.001315
      5.47568      1.65480      0.60668        -0.163395      0.282166      0.001313
      4.17132      1.65480      4.24718         0.163445      0.282197      0.001315
      5.47606      3.91468      0.60668        -0.162684     -0.282639      0.001317
      6.12824      2.78507      4.24718        -0.326051      0.000414      0.001314
      3.51876      2.78507      0.60668         0.326045      0.000487      0.001319
     -0.65218      6.69975      6.67432         0.163395     -0.282166     -0.001313
      0.65256      4.43987      3.03382        -0.162612      0.282612     -0.001315
     -0.65256      4.43987      6.67432         0.162684      0.282639     -0.001317
      0.65218      6.69975      3.03382        -0.163445     -0.282197     -0.001315
      1.30474      5.56948      6.67432        -0.326045     -0.000487     -0.001319
     -1.30474      5.56948      3.03382         0.326051     -0.000414     -0.001314
      8.44845      2.07594      1.82025         0.121484     -0.210414     -0.000001
     -3.62495      6.27861      5.46075        -0.121484      0.210414      0.000001
      3.62495      6.27860      1.82025         0.121473      0.210395     -0.000002
      1.19855      2.07595      5.46075        -0.121473     -0.210395      0.000002
     -2.42641      8.35455      1.82025        -0.242984     -0.000003      0.000002
      7.24991      0.00000      5.46075         0.242984      0.000003     -0.000002
      3.62482      4.86067      4.24727         0.118887     -0.209412     -0.000240
      6.02187      0.70885      0.60677        -0.121914      0.207663     -0.000240
      3.62513      0.70885      4.24727         0.121901      0.207647     -0.000240
      6.02218      4.86067      0.60677        -0.118873     -0.209393     -0.000240
      7.22056      2.78503      4.24727        -0.240807      0.001747     -0.000240
      2.42644      2.78503      0.60677         0.240806      0.001751     -0.000241
     -1.19837      7.64570      6.67423         0.121914     -0.207663      0.000240
      1.19868      3.49388      3.03373        -0.118887      0.209412      0.000240
     -1.19868      3.49388      6.67423         0.118873      0.209393      0.000240
      1.19838      7.64570      3.03373        -0.121901     -0.207647      0.000240
      2.39706      5.56952      6.67423        -0.240806     -0.001751      0.000241
     -2.39706      5.56952      3.03373         0.240807     -0.001747      0.000240
      3.44795      8.35455      1.82025         0.373885     -0.000000     -0.000005
      1.37555      0.00000      5.46075        -0.373885      0.000000      0.000005
     -4.13572      7.16329      1.82025        -0.186929      0.323768     -0.000002
     -0.68777      1.19126      5.46075         0.186929     -0.323768      0.000002
      0.68778      1.19126      1.82025        -0.186941     -0.323774     -0.000000
      4.13572      7.16329      5.46075         0.186941      0.323774      0.000000
      3.44796      2.78456      4.24724         0.374005      0.003955     -0.001220
      6.19904      2.78456      0.60673        -0.373995      0.003938     -0.001221
      5.51152      1.59374      4.24723        -0.190416      0.321923     -0.001221
      4.13598      3.97625      0.60674         0.183577     -0.325873     -0.001223
      5.51102      3.97625      4.24724        -0.183573     -0.325864     -0.001222
      4.13548      1.59374      0.60673         0.190436      0.321905     -0.001222
     -1.37554      5.56999      6.67427         0.373995     -0.003938      0.001221
      1.37554      5.56999      3.03376        -0.374005     -0.003955      0.001220
      0.68752      4.37830      6.67426        -0.183577      0.325873      0.001223
     -0.68802      6.76081      3.03377         0.190416     -0.321923      0.001221
      0.68802      6.76081      6.67427        -0.190436     -0.321905      0.001222
     -0.68752      4.37830      3.03376         0.183573      0.325864      0.001222
 -----------------------------------------------------------------------------------
    total drift:                               -0.005094     -0.000572      0.001202


--------------------------------------------------------------------------------------------------------



  FREE ENERGIE OF THE ION-ELECTRON SYSTEM (eV)
  ---------------------------------------------------
  free  energy   TOTEN  =      -402.17036364 eV

  energy  without entropy=     -402.17036364  energy(sigma->0) =     -402.17036364



--------------------------------------------------------------------------------------------------------


    POTLOK:  cpu time      0.4089: real time      0.4096


--------------------------------------------------------------------------------------------------------


 stress matrix after NEB project (eV)
      0.00000      0.00000      0.00000
      0.00000      0.00000      0.00000
      0.00000      0.00000      0.00000
  FORCES: max atom, RMS     0.374028    0.318170
  FORCE total and by dimension    2.338062    0.374005
  Stress total and by dimension    0.000000    0.000000
     LOOP+:  cpu time    280.0519: real time    280.5080
    4ORBIT:  cpu time      0.0000: real time      0.0000

 total amount of memory used by VASP MPI-rank0    82880. kBytes
=======================================================================

   base      :      30000. kBytes
   nonl-proj :       6009. kBytes
   fftplans  :       3024. kBytes
   grid      :       6962. kBytes
   one-center:          6. kBytes
   wavefun   :      36879. kBytes

  
  
 General timing and accounting informations for this job:
 ========================================================
  
                  Total CPU time used (sec):      292.861
                            User time (sec):      276.384
                          System time (sec):       16.477
                         Elapsed time (sec):      296.870
  
                   Maximum memory used (kb):      428080.
                   Average memory used (kb):          N/A
  
                          Minor page faults:      1110118
                          Major page faults:         1119
                 Voluntary context switches:         3784
