 vasp.6.4.1 05Apr23 (build Jun  6 2023 14:36:51) complex                         
 executed on        HPECrayEX_GCC date 2024.08.20  14:58:05
 running  256 mpi-ranks, with    1 threads/rank, on    2 nodes
 distrk:  each k-point on  256 cores,    1 groups
 distr:  one band on NCORE=   2 cores,  128 groups


--------------------------------------------------------------------------------------------------------


 INCAR:
   ALGO = Conjugate
   NCORE = 2
   PREC = Accurate
   EDIFF = 1E-7
   ENCUT = 1000
   ISMEAR = 0
   SIGMA = 0.01
   ISIF = 0
   SYMPREC = 1E-7
   GGA = B5
   ALDAX = 1.0
   AGGAX = 1.0
   AGGAC = 1.0
   ALDAC = 0.0
   IVDW = 11
   VDW_S8 = 1.682
   VDW_SR = 1.094
   LWAVE = .FALSE.
   LCHARGE = .FALSE.
   LWAVE = .FALSE.
   LCHARGE = .FALSE.

 POTCAR:    PAW_PBE C_h 06Feb2004                 
 POTCAR:    PAW_PBE H_h 06Feb2004                 
 POTCAR:    PAW_PBE N_h 06Feb2004                 
 POTCAR:    PAW_PBE C_h 06Feb2004                 
   VRHFIN =C: s2p2                                                                                  
   LEXCH  = PE                                                                                      
   EATOM  =   147.1560 eV,   10.8157 Ry                                                             
                                                                                                    
   TITEL  = PAW_PBE C_h 06Feb2004                                                                   
   LULTRA =        F    use ultrasoft PP ?                                                          
   IUNSCR =        1    unscreen: 0-lin 1-nonlin 2-no                                               
   RPACOR =    0.800    partial core radius                                                         
   POMASS =   12.011; ZVAL   =    4.000    mass and valenz                                          
   RCORE  =    1.100    outmost cutoff radius                                                       
   RWIGS  =    1.630; RWIGS  =    0.863    wigner-seitz radius (au A)                               
   ENMAX  =  700.000; ENMIN  =  500.000 eV                                                          
   ICORE  =        2    local potential                                                             
   LCOR   =        T    correct aug charges                                                         
   LPAW   =        T    paw PP                                                                      
   EAUG   =  946.768                                                                                
   DEXC   =    0.000                                                                                
   RMAX   =    1.128    core radius for proj-oper                                                   
   RAUG   =    1.300    factor for augmentation sphere                                              
   RDEP   =    1.162    radius for radial grids                                                     
   RDEPT  =    1.088    core radius for aug-charge                                                  
                                                                                                    
   Atomic configuration                                                                             
    4 entries                                                                                       
     n  l   j            E        occ.                                                              
     1  0  0.50      -273.3789   2.0000                                                             
     2  0  0.50       -13.7508   2.0000                                                             
     2  1  0.50        -5.2854   2.0000                                                             
     3  2  1.50        -5.4423   0.0000                                                             
   Description                                                                                      
     l       E           TYP  RCUT    TYP  RCUT                                                     
     0    -13.7508458     23  1.100                                                                 
     0     -8.2022199     23  1.100                                                                 
     1     -5.2854383     23  1.100                                                                 
     1      1.1560700     23  1.100                                                                 
     2     -5.4423304      7  1.100                                                                 
  local pseudopotential read in
  partial core-charges read in
  partial kinetic energy density read in
  atomic valenz-charges read in
  non local Contribution for L=           0  read in
    real space projection operators read in
  non local Contribution for L=           0  read in
    real space projection operators read in
  non local Contribution for L=           1  read in
    real space projection operators read in
  non local Contribution for L=           1  read in
    real space projection operators read in
    PAW grid and wavefunctions read in

   number of l-projection  operators is LMAX  =           4
   number of lm-projection operators is LMMAX =           8

 POTCAR:    PAW_PBE H_h 06Feb2004                 
   VRHFIN =H: ultrasoft test                                                                        
   LEXCH  = PE                                                                                      
   EATOM  =    12.4884 eV,    0.9179 Ry                                                             
                                                                                                    
   TITEL  = PAW_PBE H_h 06Feb2004                                                                   
   LULTRA =        F    use ultrasoft PP ?                                                          
   IUNSCR =        0    unscreen: 0-lin 1-nonlin 2-no                                               
   RPACOR =    0.000    partial core radius                                                         
   POMASS =    1.000; ZVAL   =    1.000    mass and valenz                                          
   RCORE  =    0.800    outmost cutoff radius                                                       
   RWIGS  =    0.700; RWIGS  =    0.370    wigner-seitz radius (au A)                               
   ENMAX  =  700.000; ENMIN  =  350.000 eV                                                          
   RCLOC  =    0.701    cutoff for local pot                                                        
   LCOR   =        T    correct aug charges                                                         
   LPAW   =        T    paw PP                                                                      
   EAUG   = 1000.000                                                                                
   RMAX   =    0.819    core radius for proj-oper                                                   
   RAUG   =    1.000    factor for augmentation sphere                                              
   RDEP   =    0.817    radius for radial grids                                                     
   RDEPT  =    0.817    core radius for aug-charge                                                  
                                                                                                    
   Atomic configuration                                                                             
    2 entries                                                                                       
     n  l   j            E        occ.                                                              
     1  0  0.50        -6.4927   1.0000                                                             
     2  1  0.50        -3.4015   0.0000                                                             
   Description                                                                                      
     l       E           TYP  RCUT    TYP  RCUT                                                     
     0     -6.4927493     23  0.800                                                                 
     0      6.8029130     23  0.800                                                                 
     1     -6.8029130     23  0.800                                                                 
  local pseudopotential read in
  atomic valenz-charges read in
  non local Contribution for L=           0  read in
    real space projection operators read in
  non local Contribution for L=           0  read in
    real space projection operators read in
  non local Contribution for L=           1  read in
    real space projection operators read in
    PAW grid and wavefunctions read in

   number of l-projection  operators is LMAX  =           3
   number of lm-projection operators is LMMAX =           5

 POTCAR:    PAW_PBE N_h 06Feb2004                 
   VRHFIN =N: s2p3                                                                                  
   LEXCH  = PE                                                                                      
   EATOM  =   264.5486 eV,   19.4438 Ry                                                             
                                                                                                    
   TITEL  = PAW_PBE N_h 06Feb2004                                                                   
   LULTRA =        F    use ultrasoft PP ?                                                          
   IUNSCR =        1    unscreen: 0-lin 1-nonlin 2-no                                               
   RPACOR =    0.800    partial core radius                                                         
   POMASS =   14.001; ZVAL   =    5.000    mass and valenz                                          
   RCORE  =    1.100    outmost cutoff radius                                                       
   RWIGS  =    1.480; RWIGS  =    0.783    wigner-seitz radius (au A)                               
   ENMAX  =  700.000; ENMIN  =  500.000 eV                                                          
   ICORE  =        2    local potential                                                             
   LCOR   =        T    correct aug charges                                                         
   LPAW   =        T    paw PP                                                                      
   EAUG   =  904.640                                                                                
   DEXC   =    0.000                                                                                
   RMAX   =    1.127    core radius for proj-oper                                                   
   RAUG   =    1.300    factor for augmentation sphere                                              
   RDEP   =    1.115    radius for radial grids                                                     
   RDEPT  =    1.106    core radius for aug-charge                                                  
                                                                                                    
   Atomic configuration                                                                             
    4 entries                                                                                       
     n  l   j            E        occ.                                                              
     1  0  0.50      -384.7179   2.0000                                                             
     2  0  0.50       -18.5828   2.0000                                                             
     2  1  0.50        -7.0898   3.0000                                                             
     3  2  1.50        -6.8029   0.0000                                                             
   Description                                                                                      
     l       E           TYP  RCUT    TYP  RCUT                                                     
     0    -18.5828117     23  1.100                                                                 
     0    -15.0750597     23  1.100                                                                 
     1     -7.0897851     23  1.100                                                                 
     1     -1.9663412     23  1.100                                                                 
     2     -6.8029130      7  1.100                                                                 
  local pseudopotential read in
  partial core-charges read in
  partial kinetic energy density read in
  kinetic energy density of atom read in
  atomic valenz-charges read in
  non local Contribution for L=           0  read in
    real space projection operators read in
  non local Contribution for L=           0  read in
    real space projection operators read in
  non local Contribution for L=           1  read in
    real space projection operators read in
  non local Contribution for L=           1  read in
    real space projection operators read in
    PAW grid and wavefunctions read in

   number of l-projection  operators is LMAX  =           4
   number of lm-projection operators is LMMAX =           8

 -----------------------------------------------------------------------------
|                                                                             |
|               ----> ADVICE to this user running VASP <----                  |
|                                                                             |
|     You have a (more or less) 'large supercell' and for larger cells it     |
|     might be more efficient to use real-space projection operators.         |
|     Therefore, try LREAL= Auto in the INCAR file.                           |
|     Mind: For very accurate calculation, you might also keep the            |
|     reciprocal projection scheme (i.e. LREAL=.FALSE.).                      |
|                                                                             |
 -----------------------------------------------------------------------------

 -----------------------------------------------------------------------------
|                                                                             |
|               ----> ADVICE to this user running VASP <----                  |
|                                                                             |
|     You enforced a specific xc type in the INCAR file but a different       |
|     type was found in the POTCAR file.                                      |
|     I HOPE YOU KNOW WHAT YOU ARE DOING!                                     |
|                                                                             |
 -----------------------------------------------------------------------------

  PAW_PBE C_h 06Feb2004                 :
 energy of atom  1       EATOM= -147.1560
 kinetic energy error for atom=    0.0031 (will be added to EATOM!!)
  PAW_PBE H_h 06Feb2004                 :
 energy of atom  2       EATOM=  -12.4884
 kinetic energy error for atom=    0.0006 (will be added to EATOM!!)
  PAW_PBE N_h 06Feb2004                 :
 energy of atom  3       EATOM= -264.5486
 kinetic energy error for atom=    0.0081 (will be added to EATOM!!)


 POSCAR:  C  H  N
  positions in cartesian coordinates
  No initial velocities read in
 exchange correlation table for  LEXCH =       12
   RHO(1)=    0.500       N(1)  =     2000
   RHO(2)=  100.500       N(2)  =     4000

 VTST: version 4.1, (05/19/21)

 CHAIN: initializing optimizer
 
 OPT: Using VASP Dynamics algorithm
 CHAIN: Read ICHAIN            0

 POSCAR:  C  H  N
  positions in cartesian coordinates
  No initial velocities read in



--------------------------------------------------------------------------------------------------------


 ion  position               nearest neighbor table
   1  0.000  0.135  0.250-  19 1.09  41 1.34  37 1.34
   2  1.000  0.865  0.750-  20 1.09  42 1.34  38 1.34
   3  0.865  0.865  0.250-  21 1.09  39 1.34  37 1.34
   4  0.135  0.135  0.750-  22 1.09  40 1.34  38 1.34
   5  0.135  0.000  0.250-  23 1.09  41 1.34  39 1.34
   6  0.865  1.000  0.750-  24 1.09  42 1.34  40 1.34
   7  0.667  0.469  0.583-  25 1.09  47 1.34  43 1.34
   8  0.667  0.198  0.083-  26 1.09  44 1.34  48 1.34
   9  0.531  0.198  0.583-  27 1.09  43 1.34  45 1.34
  10  0.802  0.469  0.083-  28 1.09  46 1.34  44 1.34
  11  0.802  0.333  0.583-  29 1.09  45 1.34  47 1.34
  12  0.531  0.333  0.083-  30 1.09  48 1.34  46 1.34
  13  0.333  0.802  0.917-  31 1.09  49 1.34  53 1.34
  14  0.333  0.531  0.417-  32 1.09  54 1.34  50 1.34
  15  0.198  0.531  0.917-  33 1.09  51 1.34  49 1.34
  16  0.469  0.802  0.417-  34 1.09  50 1.34  52 1.34
  17  0.469  0.667  0.917-  35 1.09  53 1.34  51 1.34
  18  0.198  0.667  0.417-  36 1.09  52 1.34  54 1.34
  19  1.000  0.248  0.250-   1 1.09
  20  0.000  0.752  0.750-   2 1.09
  21  0.752  0.752  0.250-   3 1.09
  22  0.248  0.248  0.750-   4 1.09
  23  0.248  1.000  0.250-   5 1.09
  24  0.752  0.000  0.750-   6 1.09
  25  0.667  0.582  0.583-   7 1.09
  26  0.667  0.085  0.083-   8 1.09
  27  0.418  0.085  0.583-   9 1.09
  28  0.915  0.582  0.083-  10 1.09
  29  0.915  0.333  0.583-  11 1.09
  30  0.418  0.333  0.083-  12 1.09
  31  0.333  0.915  0.917-  13 1.09
  32  0.333  0.418  0.417-  14 1.09
  33  0.085  0.418  0.917-  15 1.09
  34  0.582  0.915  0.417-  16 1.09
  35  0.582  0.667  0.917-  17 1.09
  36  0.085  0.667  0.417-  18 1.09
  37  0.857  1.000  0.250-   1 1.34   3 1.34
  38  0.143  0.000  0.750-   4 1.34   2 1.34
  39  0.000  0.857  0.250-   5 1.34   3 1.34
  40  0.000  0.143  0.750-   4 1.34   6 1.34
  41  0.143  0.143  0.250-   5 1.34   1 1.34
  42  0.857  0.857  0.750-   6 1.34   2 1.34
  43  0.524  0.333  0.583-   9 1.34   7 1.34
  44  0.809  0.333  0.083-   8 1.34  10 1.34
  45  0.667  0.191  0.583-  11 1.34   9 1.34
  46  0.667  0.476  0.083-  10 1.34  12 1.34
  47  0.809  0.476  0.583-   7 1.34  11 1.34
  48  0.524  0.191  0.083-  12 1.34   8 1.34
  49  0.191  0.667  0.917-  13 1.34  15 1.34
  50  0.476  0.667  0.417-  16 1.34  14 1.34
  51  0.333  0.524  0.917-  15 1.34  17 1.34
  52  0.333  0.809  0.417-  18 1.34  16 1.34
  53  0.476  0.809  0.917-  17 1.34  13 1.34
  54  0.191  0.524  0.417-  14 1.34  18 1.34

  LATTYP: Found a base centered orthorhombic cell.
 ALAT       =     9.6470000000
 B/A-ratio  =     1.7320514149
 C/A-ratio  =     0.7547424070
  
  Lattice vectors:
  
 A1 = (   4.8235000000,  -8.3545500000,   0.0000000000)
 A2 = (   4.8235000000,   8.3545500000,   0.0000000000)
 A3 = (   0.0000000000,   0.0000000000,   7.2810000000)


Analysis of symmetry for initial positions (statically):
=====================================================================
 Subroutine PRICEL returns:
 Original cell was already a primitive cell.
 

 Routine SETGRP: Setting up the symmetry group for a 
 base centered orthorhombic supercell.


 Subroutine GETGRP returns: Found  2 space group operations
 (whereof  2 operations were pure point group operations)
 out of a pool of  8 trial point group operations.


The static configuration has the point symmetry S_2 .


Analysis of symmetry for dynamics (positions and initial velocities):
=====================================================================
 Subroutine PRICEL returns:
 Original cell was already a primitive cell.
 

 Routine SETGRP: Setting up the symmetry group for a 
 base centered orthorhombic supercell.


 Subroutine GETGRP returns: Found  2 space group operations
 (whereof  2 operations were pure point group operations)
 out of a pool of  8 trial point group operations.


The dynamic configuration has the point symmetry S_2 .


 Subroutine INISYM returns: Found  2 space group operations
 (whereof  2 operations are pure point group operations),
 and found     1 'primitive' translations


----------------------------------------------------------------------------------------

                                     Primitive cell                                     

  volume of cell :     586.8220

  direct lattice vectors                    reciprocal lattice vectors
     9.647000000  0.000000000  0.000000000     0.103659169  0.059847628 -0.000000000
    -4.823500000  8.354550000  0.000000000     0.000000000  0.119695256  0.000000000
     0.000000000  0.000000000  7.281000000     0.000000000 -0.000000000  0.137343771

  length of vectors
     9.647000000  9.647002537  7.281000000     0.119695287  0.119695256  0.137343771

  position of ions in fractional coordinates (direct lattice)
     0.000000044  0.135245414  0.249999996
     0.999999970  0.864754587  0.749999980
     0.864754434  0.864754411  0.249999926
     0.135245665  0.135245633  0.750000092
     0.135245497  0.000000022  0.250000009
     0.864754564  0.999999982  0.749999938
     0.666640051  0.468568282  0.583323250
     0.666640035  0.198071780  0.083323204
     0.531431568  0.198071637  0.583323179
     0.801928431  0.468568453  0.083323270
     0.801928319  0.333360006  0.583323205
     0.531431676  0.333359948  0.083323227
     0.333360033  0.801928266  0.916676794
     0.333359979  0.531431678  0.416676734
     0.198071530  0.531431545  0.916676796
     0.468568518  0.801928412  0.416676740
     0.468568365  0.666640023  0.916676789
     0.198071711  0.666639992  0.416676774
     0.999999978  0.248480678  0.250000035
     0.000000065  0.751519324  0.749999966
     0.751519165  0.751519175  0.249999971
     0.248480892  0.248480836  0.750000043
     0.248480867  0.999999987  0.249999991
     0.751519188  0.000000013  0.749999990
     0.666645377  0.581799577  0.583335836
     0.666645487  0.084845884  0.083335772
     0.418200329  0.084845758  0.583335770
     0.915154290  0.581799689  0.083335848
     0.915154268  0.333354585  0.583335785
     0.418200330  0.333354592  0.083335844
     0.333354565  0.915154130  0.916664239
     0.333354659  0.418200425  0.416664140
     0.084845712  0.418200302  0.916664186
     0.581799734  0.915154249  0.416664175
     0.581799696  0.666645375  0.916664175
     0.084845764  0.666645437  0.416664199
     0.857411563  0.999999962  0.250000027
     0.142588509  0.000000059  0.749999991
     0.000000022  0.857411635  0.249999942
     0.000000063  0.142588392  0.750000047
     0.142588504  0.142588419  0.250000013
     0.857411558  0.857411605  0.749999941
     0.524061618  0.333298402  0.583331299
     0.809236814  0.333298495  0.083331269
     0.666701559  0.190763255  0.583331209
     0.666701600  0.475938344  0.083331351
     0.809236811  0.475938360  0.583331287
     0.524061599  0.190763240  0.083331267
     0.190763225  0.666701527  0.916668765
     0.475938440  0.666701621  0.416668656
     0.333298377  0.524061615  0.916668674
     0.333298480  0.809236746  0.416668750
     0.475938427  0.809236705  0.916668754
     0.190763251  0.524061663  0.416668693

  ion indices of the primitive-cell ions
   primitive index   ion index
                 1           1
                 2           2
                 3           3
                 4           4
                 5           5
                 6           6
                 7           7
                 8           8
                 9           9
                10          10
                11          11
                12          12
                13          13
                14          14
                15          15
                16          16
                17          17
                18          18
                19          19
                20          20
                21          21
                22          22
                23          23
                24          24
                25          25
                26          26
                27          27
                28          28
                29          29
                30          30
                31          31
                32          32
                33          33
                34          34
                35          35
                36          36
                37          37
                38          38
                39          39
                40          40
                41          41
                42          42
                43          43
                44          44
                45          45
                46          46
                47          47
                48          48
                49          49
                50          50
                51          51
                52          52
                53          53
                54          54

----------------------------------------------------------------------------------------



 KPOINTS: auto                                    

Automatic generation of k-mesh.
 Grid dimensions read from file:
 generate k-points for:    3    3    4

 Generating k-lattice:

  Cartesian coordinates                     Fractional coordinates (reciprocal lattice)
     0.034553056  0.019949209 -0.000000000     0.333333333 -0.000000000  0.000000000
     0.000000000  0.039898419  0.000000000     0.000000000  0.333333333  0.000000000
     0.000000000 -0.000000000  0.034335943     0.000000000  0.000000000  0.250000000

  Length of vectors
     0.039898429  0.039898419  0.034335943

  Shift w.r.t. Gamma in fractional coordinates (k-lattice)
     0.000000000  0.000000000  0.000000000

 
 Subroutine IBZKPT returns following result:
 ===========================================
 
 Found     19 irreducible k-points:
 
 Following reciprocal coordinates:
            Coordinates               Weight
  0.000000  0.000000  0.000000      1.000000
  0.333333  0.000000  0.000000      2.000000
  0.333333 -0.333333  0.000000      2.000000
  0.000000  0.333333  0.000000      2.000000
  0.333333  0.333333  0.000000      2.000000
  0.000000  0.000000  0.250000      2.000000
  0.333333  0.000000  0.250000      2.000000
 -0.333333  0.000000  0.250000      2.000000
  0.333333 -0.333333 -0.250000      2.000000
 -0.333333  0.333333 -0.250000      2.000000
  0.000000  0.333333  0.250000      2.000000
  0.000000 -0.333333  0.250000      2.000000
  0.333333  0.333333  0.250000      2.000000
 -0.333333 -0.333333  0.250000      2.000000
  0.000000  0.000000  0.500000      1.000000
  0.333333  0.000000  0.500000      2.000000
  0.333333 -0.333333  0.500000      2.000000
  0.000000  0.333333  0.500000      2.000000
  0.333333  0.333333  0.500000      2.000000
 
 Following cartesian coordinates:
            Coordinates               Weight
  0.000000  0.000000  0.000000      1.000000
  0.034553  0.019949  0.000000      2.000000
  0.034553 -0.019949  0.000000      2.000000
  0.000000  0.039898  0.000000      2.000000
  0.034553  0.059848  0.000000      2.000000
  0.000000  0.000000  0.034336      2.000000
  0.034553  0.019949  0.034336      2.000000
 -0.034553 -0.019949  0.034336      2.000000
  0.034553 -0.019949 -0.034336      2.000000
 -0.034553  0.019949 -0.034336      2.000000
  0.000000  0.039898  0.034336      2.000000
  0.000000 -0.039898  0.034336      2.000000
  0.034553  0.059848  0.034336      2.000000
 -0.034553 -0.059848  0.034336      2.000000
  0.000000  0.000000  0.068672      1.000000
  0.034553  0.019949  0.068672      2.000000
  0.034553 -0.019949  0.068672      2.000000
  0.000000  0.039898  0.068672      2.000000
  0.034553  0.059848  0.068672      2.000000
 


--------------------------------------------------------------------------------------------------------




 Dimension of arrays:
   k-points           NKPTS =     19   k-points in BZ     NKDIM =     19   number of bands    NBANDS=    128
   number of dos      NEDOS =    301   number of ions     NIONS =     54
   non local maximal  LDIM  =      4   non local SUM 2l+1 LMDIM =      8
   total plane-waves  NPLWV = 800000
   max r-space proj   IRMAX =      1   max aug-charges    IRDMAX=   9881
   dimension x,y,z NGX =   100 NGY =  100 NGZ =   80
   dimension x,y,z NGXF=   200 NGYF=  200 NGZF=  160
   support grid    NGXF=   200 NGYF=  200 NGZF=  160
   ions per type =              18  18  18
   NGX,Y,Z   is equivalent  to a cutoff of  17.23, 17.23, 18.27 a.u.
   NGXF,Y,Z  is equivalent  to a cutoff of  34.47, 34.47, 36.53 a.u.

 SYSTEM =  unknown system                          
 POSCAR =   C  H  N                                

 Startparameter for this run:
   NWRITE =      2    write-flag & timer
   PREC   = accura    normal or accurate (medium, high low for compatibility)
   ISTART =      0    job   : 0-new  1-cont  2-samecut
   ICHARG =      2    charge: 1-file 2-atom 10-const
   ISPIN  =      1    spin polarized calculation?
   LNONCOLLINEAR =      F non collinear calculations
   LSORBIT =      F    spin-orbit coupling
   INIWAV =      1    electr: 0-lowe 1-rand  2-diag
   LASPH  =      F    aspherical Exc in radial PAW
 Electronic Relaxation 1
   ENCUT  = 1000.0 eV  73.50 Ry    8.57 a.u.  24.87 24.87 18.77*2*pi/ulx,y,z
   ENINI  = 1000.0     initial cutoff
   ENAUG  = 1000.0 eV  augmentation charge cutoff
   NELM   =     60;   NELMIN=  2; NELMDL= -5     # of ELM steps 
   EDIFF  = 0.1E-06   stopping-criterion for ELM
   LREAL  =      F    real-space projection
   NLSPLINE    = F    spline interpolate recip. space projectors
   LCOMPAT=      F    compatible to vasp.4.4
   GGA_COMPAT  = T    GGA compatible to vasp.4.4-vasp.4.6
   LMAXPAW     = -100 max onsite density
   LMAXMIX     =    2 max onsite mixed and CHGCAR
   VOSKOWN=      0    Vosko Wilk Nusair interpolation
   ROPT   =    0.00000   0.00000   0.00000
 Ionic relaxation
   EDIFFG = 0.1E-05   stopping-criterion for IOM
   NSW    =      0    number of steps for IOM
   NBLOCK =      1;   KBLOCK =      1    inner block; outer block 
   IBRION =     -1    ionic relax: 0-MD 1-quasi-New 2-CG
   NFREE  =      0    steps in history (QN), initial steepest desc. (CG)
   ISIF   =      0    stress and relaxation
   IWAVPR =     10    prediction:  0-non 1-charg 2-wave 3-comb
   ISYM   =      2    0-nonsym 1-usesym 2-fastsym
   LCORR  =      T    Harris-Foulkes like correction to forces

   POTIM  = 0.5000    time-step for ionic-motion
   TEIN   =    0.0    initial temperature
   TEBEG  =    0.0;   TEEND  =   0.0 temperature during run
   SMASS  =  -3.00    Nose mass-parameter (am)
   estimated Nose-frequenzy (Omega)   =  0.10E-29 period in steps = 0.13E+47 mass=  -0.213E-26a.u.
   SCALEE = 1.0000    scale energy and forces
   NPACO  =    256;   APACO  = 10.0  distance and # of slots for P.C.
   PSTRESS=    0.0 pullay stress

  Mass of Ions in am
   POMASS =  12.01  1.00 14.00
  Ionic Valenz
   ZVAL   =   4.00  1.00  5.00
  Atomic Wigner-Seitz radii
   RWIGS  =  -1.00 -1.00 -1.00
  virtual crystal weights 
   VCA    =   1.00  1.00  1.00
   NELECT =     180.0000    total number of electrons
   NUPDOWN=      -1.0000    fix difference up-down

 DOS related values:
   EMIN   =  10.00;   EMAX   =-10.00  energy-range for DOS
   EFERMI =   0.00;   METHOD = LEGACY      
   ISMEAR =     0;   SIGMA  =   0.01  broadening in eV -4-tet -1-fermi 0-gaus

 Electronic relaxation 2 (details)
   IALGO  =     58    algorithm
   LDIAG  =      T    sub-space diagonalisation (order eigenvalues)
   LSUBROT=      F    optimize rotation matrix (better conditioning)
   TURBO    =      0    0=normal 1=particle mesh
   IRESTART =      0    0=no restart 2=restart with 2 vectors
   NREBOOT  =      0    no. of reboots
   NMIN     =      0    reboot dimension
   EREF     =   0.00    reference energy to select bands
   IMIX   =      4    mixing-type and parameters
     AMIX     =   0.40;   BMIX     =  1.00
     AMIX_MAG =   1.60;   BMIX_MAG =  1.00
     AMIN     =   0.10
     WC   =   100.;   INIMIX=   1;  MIXPRE=   1;  MAXMIX= -45

 Intra band minimization:
   WEIMIN = 0.0000     energy-eigenvalue tresh-hold
   EBREAK =  0.20E-09  absolut break condition
   DEPER  =   0.30     relativ break condition  

   TIME   =   0.40     timestep for ELM

  volume/ion in A,a.u.               =      10.87        73.33
  Fermi-wavevector in a.u.,A,eV,Ry     =   1.104071  2.086391 16.585122  1.218972
  Thomas-Fermi vector in A             =   2.240538

 Write flags
   LWAVE        =      F    write WAVECAR
   LDOWNSAMPLE  =      F    k-point downsampling of WAVECAR
   LCHARG       =      T    write CHGCAR
   LVTOT        =      F    write LOCPOT, total local potential
   LVHAR        =      F    write LOCPOT, Hartree potential only
   LELF         =      F    write electronic localiz. function (ELF)
   LORBIT       =      0    0 simple, 1 ext, 2 COOP (PROOUT), +10 PAW based schemes


 Dipole corrections
   LMONO  =      F    monopole corrections only (constant potential shift)
   LDIPOL =      F    correct potential (dipole corrections)
   IDIPOL =      0    1-x, 2-y, 3-z, 4-all directions 
   EPSILON=  1.0000000 bulk dielectric constant

 Exchange correlation treatment:
   GGA     =    B5    GGA type
   LEXCH   =    12    internal setting for exchange type
   LIBXC   =     F    Libxc                    
   VOSKOWN =     0    Vosko Wilk Nusair interpolation
   LHFCALC =     F    Hartree Fock is set to
   LHFONE  =     F    Hartree Fock one center treatment
   AEXX    =    0.0000 exact exchange contribution

 Linear response parameters
   LEPSILON=     F    determine dielectric tensor
   LRPA    =     F    only Hartree local field effects (RPA)
   LNABLA  =     F    use nabla operator in PAW spheres
   LVEL    =     F    velocity operator in full k-point grid
   CSHIFT  =0.1000    complex shift for real part using Kramers Kronig
   OMEGAMAX=  -1.0    maximum frequency
   DEG_THRESHOLD= 0.2000000E-02 threshold for treating states as degnerate
   RTIME   =   -0.100 relaxation time in fs
  (WPLASMAI=    0.000 imaginary part of plasma frequency in eV, 0.658/RTIME)
   DFIELD  = 0.0000000 0.0000000 0.0000000 field for delta impulse in time

  Optional k-point grid parameters
   LKPOINTS_OPT  =     F    use optional k-point grid
   KPOINTS_OPT_MODE=     1    mode for optional k-point grid

 Orbital magnetization related:
   ORBITALMAG=     F  switch on orbital magnetization
   LCHIMAG   =     F  perturbation theory with respect to B field
   DQ        =  0.001000  dq finite difference perturbation B field
   LLRAUG    =     F  two centre corrections for induced B field
   LBONE     =     F  B-component reconstruction in AE one-centre
   LVGVCALC  =     T  calculate vGv susceptibility
   LVGVAPPL  =     F  apply vGv susceptibility instead of pGv for G=0

 Random number generation:
   RANDOM_GENERATOR = DEFAULT
   PCG_SEED         = not used


--------------------------------------------------------------------------------------------------------


 Static calculation
 charge density and potential will be updated during run
 non-spin polarized calculation
 Conjugate gradient for all bands (Freysoldt, et al. PRB 79, 241103 (2009))
 preconditioned conjugated gradient                                        
 perform sub-space diagonalisation
    before iterative eigenvector-optimisation
 modified Broyden-mixing scheme, WC =      100.0
 initial mixing is a Kerker type mixing with AMIX =  0.4000 and BMIX =      1.0000
 Hartree-type preconditioning will be used
 using additional bands           38
 reciprocal scheme for non local part
 use partial core corrections
 no Harris-corrections to forces 
 use gradient corrections 
 use of overlap-Matrix (Vanderbilt PP)
 Gauss-broadening in eV      SIGMA  =   0.01


--------------------------------------------------------------------------------------------------------


  energy-cutoff  :     1000.00
  volume of cell :      586.82
      direct lattice vectors                 reciprocal lattice vectors
     9.647000000  0.000000000  0.000000000     0.103659169  0.059847628 -0.000000000
    -4.823500000  8.354550000  0.000000000     0.000000000  0.119695256  0.000000000
     0.000000000  0.000000000  7.281000000     0.000000000 -0.000000000  0.137343771

  length of vectors
     9.647000000  9.647002537  7.281000000     0.119695287  0.119695256  0.137343771



 k-points in units of 2pi/SCALE and weight: auto                                    
   0.00000000  0.00000000  0.00000000       0.028
   0.03455306  0.01994921  0.00000000       0.056
   0.03455306 -0.01994921  0.00000000       0.056
   0.00000000  0.03989842  0.00000000       0.056
   0.03455306  0.05984763  0.00000000       0.056
   0.00000000  0.00000000  0.03433594       0.056
   0.03455306  0.01994921  0.03433594       0.056
  -0.03455306 -0.01994921  0.03433594       0.056
   0.03455306 -0.01994921 -0.03433594       0.056
  -0.03455306  0.01994921 -0.03433594       0.056
   0.00000000  0.03989842  0.03433594       0.056
   0.00000000 -0.03989842  0.03433594       0.056
   0.03455306  0.05984763  0.03433594       0.056
  -0.03455306 -0.05984763  0.03433594       0.056
   0.00000000  0.00000000  0.06867189       0.028
   0.03455306  0.01994921  0.06867189       0.056
   0.03455306 -0.01994921  0.06867189       0.056
   0.00000000  0.03989842  0.06867189       0.056
   0.03455306  0.05984763  0.06867189       0.056

 k-points in reciprocal lattice and weights: auto                                    
   0.00000000  0.00000000  0.00000000       0.028
   0.33333333  0.00000000  0.00000000       0.056
   0.33333333 -0.33333333  0.00000000       0.056
   0.00000000  0.33333333  0.00000000       0.056
   0.33333333  0.33333333  0.00000000       0.056
   0.00000000  0.00000000  0.25000000       0.056
   0.33333333  0.00000000  0.25000000       0.056
  -0.33333333  0.00000000  0.25000000       0.056
   0.33333333 -0.33333333 -0.25000000       0.056
  -0.33333333  0.33333333 -0.25000000       0.056
   0.00000000  0.33333333  0.25000000       0.056
   0.00000000 -0.33333333  0.25000000       0.056
   0.33333333  0.33333333  0.25000000       0.056
  -0.33333333 -0.33333333  0.25000000       0.056
   0.00000000  0.00000000  0.50000000       0.028
   0.33333333  0.00000000  0.50000000       0.056
   0.33333333 -0.33333333  0.50000000       0.056
   0.00000000  0.33333333  0.50000000       0.056
   0.33333333  0.33333333  0.50000000       0.056

 position of ions in fractional coordinates (direct lattice) 
   0.00000004  0.13524541  0.25000000
   0.99999997  0.86475459  0.74999998
   0.86475443  0.86475441  0.24999993
   0.13524566  0.13524563  0.75000009
   0.13524550  0.00000002  0.25000001
   0.86475456  0.99999998  0.74999994
   0.66664005  0.46856828  0.58332325
   0.66664004  0.19807178  0.08332320
   0.53143157  0.19807164  0.58332318
   0.80192843  0.46856845  0.08332327
   0.80192832  0.33336001  0.58332320
   0.53143168  0.33335995  0.08332323
   0.33336003  0.80192827  0.91667679
   0.33335998  0.53143168  0.41667673
   0.19807153  0.53143154  0.91667680
   0.46856852  0.80192841  0.41667674
   0.46856837  0.66664002  0.91667679
   0.19807171  0.66663999  0.41667677
   0.99999998  0.24848068  0.25000004
   0.00000007  0.75151932  0.74999997
   0.75151916  0.75151917  0.24999997
   0.24848089  0.24848084  0.75000004
   0.24848087  0.99999999  0.24999999
   0.75151919  0.00000001  0.74999999
   0.66664538  0.58179958  0.58333584
   0.66664549  0.08484588  0.08333577
   0.41820033  0.08484576  0.58333577
   0.91515429  0.58179969  0.08333585
   0.91515427  0.33335458  0.58333578
   0.41820033  0.33335459  0.08333584
   0.33335457  0.91515413  0.91666424
   0.33335466  0.41820043  0.41666414
   0.08484571  0.41820030  0.91666419
   0.58179973  0.91515425  0.41666418
   0.58179970  0.66664538  0.91666418
   0.08484576  0.66664544  0.41666420
   0.85741156  0.99999996  0.25000003
   0.14258851  0.00000006  0.74999999
   0.00000002  0.85741163  0.24999994
   0.00000006  0.14258839  0.75000005
   0.14258850  0.14258842  0.25000001
   0.85741156  0.85741160  0.74999994
   0.52406162  0.33329840  0.58333130
   0.80923681  0.33329850  0.08333127
   0.66670156  0.19076326  0.58333121
   0.66670160  0.47593834  0.08333135
   0.80923681  0.47593836  0.58333129
   0.52406160  0.19076324  0.08333127
   0.19076322  0.66670153  0.91666877
   0.47593844  0.66670162  0.41666866
   0.33329838  0.52406161  0.91666867
   0.33329848  0.80923675  0.41666875
   0.47593843  0.80923670  0.91666875
   0.19076325  0.52406166  0.41666869

 position of ions in cartesian coordinates  (Angst):
  -0.65235583  1.12991458  1.82024997
   5.47585596  7.22463544  5.46074985
   4.17114312  7.22463397  1.82024946
   0.65235762  1.12991641  5.46075067
   1.30471321  0.00000018  1.82025006
   3.51878737  8.35454985  5.46074955
   4.17093746  3.91467714  4.24717658
   5.47567719  1.65480059  0.60667625
   4.17132180  1.65479939  4.24717607
   5.47606364  3.91467857  0.60667673
   6.12824050  2.78507284  4.24717625
   3.51875967  2.78507236  0.60667642
  -0.65217675  6.69974979  6.67432374
   0.65256302  4.43987253  3.03382330
  -0.65256401  4.43987141  6.67432375
   0.65217880  6.69975102  3.03382334
   1.30474087  5.56947740  6.67432370
  -1.30474020  5.56947714  3.03382359
   8.44845324  2.07594425  1.82025026
  -3.62495283  6.27860577  5.46074975
   3.62495264  6.27860452  1.82024979
   1.19854785  2.07594557  5.46075032
  -2.42640502  8.35454989  1.82024993
   7.24990554  0.00000011  5.46074993
   3.62481769  4.86067365  4.24726822
   6.02187490  0.70884918  0.60676776
   3.62512506  0.70884813  4.24726774
   6.02218264  4.86067459  0.60676831
   7.22055738  2.78502755  4.24726785
   2.42644271  2.78502761  0.60676828
  -1.19837445  7.64570093  6.67423232
   1.19868264  3.49387636  3.03373160
  -1.19868258  3.49387533  6.67423194
   1.19837551  7.64570193  3.03373186
   2.39705770  5.56952212  6.67423186
  -2.39705718  5.56952264  3.03373203
   3.44794953  8.35454968  1.82025019
   1.37555106  0.00000050  5.46074993
  -4.13572481  7.16328837  1.82024958
  -0.68777450  1.19126185  5.46075034
   0.68777606  1.19126208  1.82025009
   4.13572442  7.16328812  5.46074957
   3.44795759  2.78455816  4.24723519
   6.19904226  2.78455894  0.60673497
   5.51152337  1.59374116  4.24723453
   4.13598173  3.97625069  0.60673557
   5.51101884  3.97625082  4.24723510
   4.13547576  1.59374102  0.60673496
  -1.37554199  5.56999124  6.67426528
   1.37554286  5.56999203  3.03376449
   0.68751824  4.37829896  6.67426461
  -0.68802301  6.76080886  3.03376517
   0.68802476  6.76080851  6.67426520
  -0.68751835  4.37829937  3.03376475



--------------------------------------------------------------------------------------------------------


 k-point   1 :   0.0000 0.0000 0.0000  plane waves:   42031
 k-point   2 :   0.3333 0.0000 0.0000  plane waves:   42161
 k-point   3 :   0.3333-0.3333 0.0000  plane waves:   42161
 k-point   4 :   0.0000 0.3333 0.0000  plane waves:   42161
 k-point   5 :   0.3333 0.3333 0.0000  plane waves:   42159
 k-point   6 :   0.0000 0.0000 0.2500  plane waves:   42152
 k-point   7 :   0.3333 0.0000 0.2500  plane waves:   42112
 k-point   8 :  -0.3333 0.0000 0.2500  plane waves:   42112
 k-point   9 :   0.3333-0.3333-0.2500  plane waves:   42112
 k-point  10 :  -0.3333 0.3333-0.2500  plane waves:   42112
 k-point  11 :   0.0000 0.3333 0.2500  plane waves:   42112
 k-point  12 :   0.0000-0.3333 0.2500  plane waves:   42112
 k-point  13 :   0.3333 0.3333 0.2500  plane waves:   42159
 k-point  14 :  -0.3333-0.3333 0.2500  plane waves:   42159
 k-point  15 :   0.0000 0.0000 0.5000  plane waves:   42086
 k-point  16 :   0.3333 0.0000 0.5000  plane waves:   42136
 k-point  17 :   0.3333-0.3333 0.5000  plane waves:   42136
 k-point  18 :   0.0000 0.3333 0.5000  plane waves:   42136
 k-point  19 :   0.3333 0.3333 0.5000  plane waves:   42138

 maximum and minimum number of plane-waves per node :     21116    20992

 maximum number of plane-waves:     42161
 maximum index in each direction: 
   IXMAX=   25   IYMAX=   25   IZMAX=   19
   IXMIN=  -25   IYMIN=  -25   IZMIN=  -19


 parallel 3D FFT for wavefunctions:
    minimum data exchange during FFTs selected (reduces bandwidth)
 parallel 3D FFT for charge:
    minimum data exchange during FFTs selected (reduces bandwidth)


 total amount of memory used by VASP MPI-rank0   175995. kBytes
=======================================================================

   base      :      30000. kBytes
   nonl-proj :      95293. kBytes
   fftplans  :      12979. kBytes
   grid      :      18147. kBytes
   one-center:         82. kBytes
   wavefun   :      19494. kBytes

     INWAV:  cpu time      0.0000: real time      0.0000
 Broyden mixing: mesh for mixing (old mesh)
   NGX = 49   NGY = 49   NGZ = 37
  (NGX  =200   NGY  =200   NGZ  =160)
  gives a total of  88837 points

 initial charge density was supplied:
 charge density of overlapping atoms calculated
 number of electron     180.0000000 magnetization 
 keeping initial charge density in first step


--------------------------------------------------------------------------------------------------------


 Maximum index for augmentation-charges          498 (set IRDMAX)


--------------------------------------------------------------------------------------------------------


 First call to EWALD:  gamma=   0.212
 Maximum number of real-space cells 3x 3x 3
 Maximum number of reciprocal cells 3x 3x 2

    FEWALD:  cpu time      0.0036: real time      0.0036


--------------------------------------- Ionic step        1  -------------------------------------------




--------------------------------------- Iteration      1(   1)  ---------------------------------------


    POTLOK:  cpu time      0.1867: real time      0.1870
    SETDIJ:  cpu time      0.0131: real time      0.0140
    TRIAL :  cpu time     14.8809: real time     14.8905
    CORREC:  cpu time      0.0012: real time      0.0012
    --------------------------------------------
      LOOP:  cpu time     15.0963: real time     15.1074

 eigenvalue-minimisations  :  4864
 total energy-change (2. order) : 0.1243792E+04  (-0.1376567E+05)
 number of electron     180.0000000 magnetization 
 augmentation part      180.0000000 magnetization 

 Free energy of the ion-electron system (eV)
  ---------------------------------------------------
  alpha Z        PSCENC =       171.08921574
  Ewald energy   TEWEN  =     -3544.07936003
  -Hartree energ DENC   =     -3369.15698467
  -exchange      EXHF   =         0.00000000
  -V(xc)+E(xc)   XCENC  =       446.30348102
  PAW double counting   =      5824.06906820    -5709.90963702
  entropy T*S    EENTRO =        -0.00028328
  eigenvalues    EBANDS =      -218.22518647
  atomic energy  EATOM  =      7643.70125208
  ---------------------------------------------------
  free energy    TOTEN  =      1243.79156557 eV

  energy without entropy =     1243.79184885  energy(sigma->0) =     1243.79170721


--------------------------------------------------------------------------------------------------------




--------------------------------------- Iteration      1(   2)  ---------------------------------------


    TRIAL :  cpu time     68.2913: real time     68.3278
    CORREC:  cpu time      0.0002: real time      0.0002
    --------------------------------------------
      LOOP:  cpu time     68.3043: real time     68.3579

 eigenvalue-minimisations  :  9728
 total energy-change (2. order) :-0.1561740E+04  (-0.1559728E+04)
 number of electron     180.0000000 magnetization 
 augmentation part      180.0000000 magnetization 

 Free energy of the ion-electron system (eV)
  ---------------------------------------------------
  alpha Z        PSCENC =       171.08921574
  Ewald energy   TEWEN  =     -3544.07936003
  -Hartree energ DENC   =     -3369.15698467
  -exchange      EXHF   =         0.00000000
  -V(xc)+E(xc)   XCENC  =       446.30348102
  PAW double counting   =      5824.06906820    -5709.90963702
  entropy T*S    EENTRO =        -0.00000000
  eigenvalues    EBANDS =     -1779.96522162
  atomic energy  EATOM  =      7643.70125208
  ---------------------------------------------------
  free energy    TOTEN  =      -317.94818629 eV

  energy without entropy =     -317.94818629  energy(sigma->0) =     -317.94818629


--------------------------------------------------------------------------------------------------------




--------------------------------------- Iteration      1(   3)  ---------------------------------------


    TRIAL :  cpu time     22.9879: real time     23.0030
    CORREC:  cpu time      0.0002: real time      0.0002
    --------------------------------------------
      LOOP:  cpu time     23.0079: real time     23.0334

 eigenvalue-minimisations  :  5760
 total energy-change (2. order) :-0.6530462E+02  (-0.6530462E+02)
 number of electron     180.0000000 magnetization 
 augmentation part      180.0000000 magnetization 

 Free energy of the ion-electron system (eV)
  ---------------------------------------------------
  alpha Z        PSCENC =       171.08921574
  Ewald energy   TEWEN  =     -3544.07936003
  -Hartree energ DENC   =     -3369.15698467
  -exchange      EXHF   =         0.00000000
  -V(xc)+E(xc)   XCENC  =       446.30348102
  PAW double counting   =      5824.06906820    -5709.90963702
  entropy T*S    EENTRO =        -0.00000000
  eigenvalues    EBANDS =     -1845.26984540
  atomic energy  EATOM  =      7643.70125208
  ---------------------------------------------------
  free energy    TOTEN  =      -383.25281008 eV

  energy without entropy =     -383.25281008  energy(sigma->0) =     -383.25281008


--------------------------------------------------------------------------------------------------------




--------------------------------------- Iteration      1(   4)  ---------------------------------------


    TRIAL :  cpu time     64.4679: real time     64.5028
    CORREC:  cpu time      0.0002: real time      0.0002
    --------------------------------------------
      LOOP:  cpu time     64.4976: real time     64.5328

 eigenvalue-minimisations  :  9472
 total energy-change (2. order) :-0.8805207E+00  (-0.8805207E+00)
 number of electron     180.0000000 magnetization 
 augmentation part      180.0000000 magnetization 

 Free energy of the ion-electron system (eV)
  ---------------------------------------------------
  alpha Z        PSCENC =       171.08921574
  Ewald energy   TEWEN  =     -3544.07936003
  -Hartree energ DENC   =     -3369.15698467
  -exchange      EXHF   =         0.00000000
  -V(xc)+E(xc)   XCENC  =       446.30348102
  PAW double counting   =      5824.06906820    -5709.90963702
  entropy T*S    EENTRO =        -0.00000000
  eigenvalues    EBANDS =     -1846.15036608
  atomic energy  EATOM  =      7643.70125208
  ---------------------------------------------------
  free energy    TOTEN  =      -384.13333075 eV

  energy without entropy =     -384.13333075  energy(sigma->0) =     -384.13333075


--------------------------------------------------------------------------------------------------------




--------------------------------------- Iteration      1(   5)  ---------------------------------------


    TRIAL :  cpu time     30.3844: real time     30.4035
    CORREC:  cpu time      0.0002: real time      0.0002
    CHARGE:  cpu time      0.7446: real time      0.7471
    --------------------------------------------
      LOOP:  cpu time     31.1417: real time     31.1811

 eigenvalue-minimisations  :  6528
 total energy-change (2. order) :-0.6335851E-03  (-0.6335851E-03)
 number of electron     180.0000000 magnetization 
 augmentation part       -0.4892444 magnetization 

 Free energy of the ion-electron system (eV)
  ---------------------------------------------------
  alpha Z        PSCENC =       171.08921574
  Ewald energy   TEWEN  =     -3544.07936003
  -Hartree energ DENC   =     -3369.15698467
  -exchange      EXHF   =         0.00000000
  -V(xc)+E(xc)   XCENC  =       446.30348102
  PAW double counting   =      5824.06906820    -5709.90963702
  entropy T*S    EENTRO =        -0.00000000
  eigenvalues    EBANDS =     -1846.15099966
  atomic energy  EATOM  =      7643.70125208
  ---------------------------------------------------
  free energy    TOTEN  =      -384.13396434 eV

  energy without entropy =     -384.13396434  energy(sigma->0) =     -384.13396434


--------------------------------------------------------------------------------------------------------




--------------------------------------- Iteration      1(   6)  ---------------------------------------


    POTLOK:  cpu time      0.1400: real time      0.1400
    SETDIJ:  cpu time      0.0051: real time      0.0051
    TRIAL :  cpu time      4.5114: real time      4.5156
    CORREC:  cpu time      2.0377: real time      2.0404
    CHARGE:  cpu time      0.7048: real time      0.7057
    --------------------------------------------
      LOOP:  cpu time      7.4125: real time      7.4355

 eigenvalue-minimisations  :     0
 total energy-change (2. order) : 0.5434638E+02  (-0.2281603E+02)
 number of electron     180.0000000 magnetization 
 augmentation part       -0.6056688 magnetization 

 Free energy of the ion-electron system (eV)
  ---------------------------------------------------
  alpha Z        PSCENC =       171.08921574
  Ewald energy   TEWEN  =     -3544.07936003
  -Hartree energ DENC   =     -4226.99196801
  -exchange      EXHF   =         0.00000000
  -V(xc)+E(xc)   XCENC  =       501.86311319
  PAW double counting   =     45341.42565011   -45237.34663076
  entropy T*S    EENTRO =        -0.00000000
  eigenvalues    EBANDS =      -979.44885680
  atomic energy  EATOM  =      7643.70125208
  ---------------------------------------------------
  free energy    TOTEN  =      -329.78758447 eV

  energy without entropy =     -329.78758447  energy(sigma->0) =     -329.78758447


--------------------------------------------------------------------------------------------------------




--------------------------------------- Iteration      1(   7)  ---------------------------------------


    POTLOK:  cpu time      0.1832: real time      0.1832
    SETDIJ:  cpu time      0.0051: real time      0.0051
    TRIAL :  cpu time      4.3730: real time      4.3781
    CORREC:  cpu time      1.9932: real time      1.9943
    CHARGE:  cpu time      0.6747: real time      0.6747
    --------------------------------------------
      LOOP:  cpu time      7.2414: real time      7.2657

 eigenvalue-minimisations  :     0
 total energy-change (2. order) :-0.2284685E+02  (-0.2293727E+01)
 number of electron     180.0000000 magnetization 
 augmentation part       -0.6957068 magnetization 

 Free energy of the ion-electron system (eV)
  ---------------------------------------------------
  alpha Z        PSCENC =       171.08921574
  Ewald energy   TEWEN  =     -3544.07936003
  -Hartree energ DENC   =     -3837.99258640
  -exchange      EXHF   =         0.00000000
  -V(xc)+E(xc)   XCENC  =       479.65268208
  PAW double counting   =     60251.61583461   -60143.22739229
  entropy T*S    EENTRO =        -0.00000000
  eigenvalues    EBANDS =     -1373.39408048
  atomic energy  EATOM  =      7643.70125208
  ---------------------------------------------------
  free energy    TOTEN  =      -352.63443468 eV

  energy without entropy =     -352.63443468  energy(sigma->0) =     -352.63443468


--------------------------------------------------------------------------------------------------------




--------------------------------------- Iteration      1(   8)  ---------------------------------------


    POTLOK:  cpu time      0.1357: real time      0.1363
    SETDIJ:  cpu time      0.0051: real time      0.0051
    TRIAL :  cpu time      4.3749: real time      4.3783
    CORREC:  cpu time      1.9854: real time      1.9870
    CHARGE:  cpu time      0.6698: real time      0.6708
    --------------------------------------------
      LOOP:  cpu time      7.1873: real time      7.2078

 eigenvalue-minimisations  :     0
 total energy-change (2. order) :-0.2296142E+01  (-0.7039685E+00)
 number of electron     180.0000000 magnetization 
 augmentation part       -0.7056896 magnetization 

 Free energy of the ion-electron system (eV)
  ---------------------------------------------------
  alpha Z        PSCENC =       171.08921574
  Ewald energy   TEWEN  =     -3544.07936003
  -Hartree energ DENC   =     -3834.52914609
  -exchange      EXHF   =         0.00000000
  -V(xc)+E(xc)   XCENC  =       478.74452520
  PAW double counting   =     63482.71332489   -63373.79046311
  entropy T*S    EENTRO =        -0.00000000
  eigenvalues    EBANDS =     -1378.77992550
  atomic energy  EATOM  =      7643.70125208
  ---------------------------------------------------
  free energy    TOTEN  =      -354.93057682 eV

  energy without entropy =     -354.93057682  energy(sigma->0) =     -354.93057682


--------------------------------------------------------------------------------------------------------




--------------------------------------- Iteration      1(   9)  ---------------------------------------


    POTLOK:  cpu time      0.1363: real time      0.1363
    SETDIJ:  cpu time      0.0052: real time      0.0052
    TRIAL :  cpu time      4.4465: real time      4.4504
    CORREC:  cpu time      1.9899: real time      1.9919
    CHARGE:  cpu time      0.6738: real time      0.6748
    --------------------------------------------
      LOOP:  cpu time      7.2679: real time      7.2891

 eigenvalue-minimisations  :     0
 total energy-change (2. order) :-0.7003607E+00  (-0.2411062E+00)
 number of electron     180.0000000 magnetization 
 augmentation part       -0.7002245 magnetization 

 Free energy of the ion-electron system (eV)
  ---------------------------------------------------
  alpha Z        PSCENC =       171.08921574
  Ewald energy   TEWEN  =     -3544.07936003
  -Hartree energ DENC   =     -3823.63322228
  -exchange      EXHF   =         0.00000000
  -V(xc)+E(xc)   XCENC  =       478.14913925
  PAW double counting   =     63731.54391182   -63622.45676106
  entropy T*S    EENTRO =        -0.00000000
  eigenvalues    EBANDS =     -1389.94511308
  atomic energy  EATOM  =      7643.70125208
  ---------------------------------------------------
  free energy    TOTEN  =      -355.63093756 eV

  energy without entropy =     -355.63093756  energy(sigma->0) =     -355.63093756


--------------------------------------------------------------------------------------------------------




--------------------------------------- Iteration      1(  10)  ---------------------------------------


    POTLOK:  cpu time      0.1366: real time      0.1366
    SETDIJ:  cpu time      0.0051: real time      0.0051
    TRIAL :  cpu time      4.3725: real time      4.3756
    CORREC:  cpu time      1.9848: real time      1.9869
    CHARGE:  cpu time      0.6713: real time      0.6722
    --------------------------------------------
      LOOP:  cpu time      7.2007: real time      7.2068

 eigenvalue-minimisations  :     0
 total energy-change (2. order) :-0.2397911E+00  (-0.6677472E-01)
 number of electron     180.0000000 magnetization 
 augmentation part       -0.6968197 magnetization 

 Free energy of the ion-electron system (eV)
  ---------------------------------------------------
  alpha Z        PSCENC =       171.08921574
  Ewald energy   TEWEN  =     -3544.07936003
  -Hartree energ DENC   =     -3810.90771507
  -exchange      EXHF   =         0.00000000
  -V(xc)+E(xc)   XCENC  =       477.65746880
  PAW double counting   =     62776.09599385   -62667.00202351
  entropy T*S    EENTRO =        -0.00000000
  eigenvalues    EBANDS =     -1402.42556052
  atomic energy  EATOM  =      7643.70125208
  ---------------------------------------------------
  free energy    TOTEN  =      -355.87072865 eV

  energy without entropy =     -355.87072865  energy(sigma->0) =     -355.87072865


--------------------------------------------------------------------------------------------------------




--------------------------------------- Iteration      1(  11)  ---------------------------------------


    POTLOK:  cpu time      0.1648: real time      0.1648
    SETDIJ:  cpu time      0.0051: real time      0.0051
    TRIAL :  cpu time      4.4128: real time      4.4170
    CORREC:  cpu time      2.0040: real time      2.0053
    CHARGE:  cpu time      0.6746: real time      0.6747
    --------------------------------------------
      LOOP:  cpu time      7.2764: real time      7.2971

 eigenvalue-minimisations  :     0
 total energy-change (2. order) :-0.6666963E-01  (-0.1475945E-01)
 number of electron     180.0000000 magnetization 
 augmentation part       -0.6967244 magnetization 

 Free energy of the ion-electron system (eV)
  ---------------------------------------------------
  alpha Z        PSCENC =       171.08921574
  Ewald energy   TEWEN  =     -3544.07936003
  -Hartree energ DENC   =     -3810.94258343
  -exchange      EXHF   =         0.00000000
  -V(xc)+E(xc)   XCENC  =       477.62871823
  PAW double counting   =     62024.29726889   -61915.27067221
  entropy T*S    EENTRO =        -0.00000000
  eigenvalues    EBANDS =     -1402.36123755
  atomic energy  EATOM  =      7643.70125208
  ---------------------------------------------------
  free energy    TOTEN  =      -355.93739828 eV

  energy without entropy =     -355.93739828  energy(sigma->0) =     -355.93739828


--------------------------------------------------------------------------------------------------------




--------------------------------------- Iteration      1(  12)  ---------------------------------------


    POTLOK:  cpu time      0.1357: real time      0.1363
    SETDIJ:  cpu time      0.0051: real time      0.0051
    TRIAL :  cpu time      4.3712: real time      4.3744
    CORREC:  cpu time      1.9868: real time      1.9884
    CHARGE:  cpu time      0.6745: real time      0.6754
    --------------------------------------------
      LOOP:  cpu time      7.1862: real time      7.2093

 eigenvalue-minimisations  :     0
 total energy-change (2. order) :-0.1475276E-01  (-0.3285135E-02)
 number of electron     180.0000000 magnetization 
 augmentation part       -0.6982475 magnetization 

 Free energy of the ion-electron system (eV)
  ---------------------------------------------------
  alpha Z        PSCENC =       171.08921574
  Ewald energy   TEWEN  =     -3544.07936003
  -Hartree energ DENC   =     -3810.01439684
  -exchange      EXHF   =         0.00000000
  -V(xc)+E(xc)   XCENC  =       477.53407639
  PAW double counting   =     61932.88581032   -61823.86851792
  entropy T*S    EENTRO =        -0.00000000
  eigenvalues    EBANDS =     -1403.20023079
  atomic energy  EATOM  =      7643.70125208
  ---------------------------------------------------
  free energy    TOTEN  =      -355.95215104 eV

  energy without entropy =     -355.95215104  energy(sigma->0) =     -355.95215104


--------------------------------------------------------------------------------------------------------




--------------------------------------- Iteration      1(  13)  ---------------------------------------


    POTLOK:  cpu time      0.1363: real time      0.1364
    SETDIJ:  cpu time      0.0051: real time      0.0051
    TRIAL :  cpu time      4.3632: real time      4.3668
    CORREC:  cpu time      1.9897: real time      1.9915
    CHARGE:  cpu time      0.6749: real time      0.6758
    --------------------------------------------
      LOOP:  cpu time      7.1840: real time      7.2058

 eigenvalue-minimisations  :     0
 total energy-change (2. order) :-0.3282117E-02  (-0.7872625E-03)
 number of electron     180.0000000 magnetization 
 augmentation part       -0.6990097 magnetization 

 Free energy of the ion-electron system (eV)
  ---------------------------------------------------
  alpha Z        PSCENC =       171.08921574
  Ewald energy   TEWEN  =     -3544.07936003
  -Hartree energ DENC   =     -3809.85325542
  -exchange      EXHF   =         0.00000000
  -V(xc)+E(xc)   XCENC  =       477.52257941
  PAW double counting   =     61980.66927419   -61871.65124101
  entropy T*S    EENTRO =        -0.00000000
  eigenvalues    EBANDS =     -1403.35389812
  atomic energy  EATOM  =      7643.70125208
  ---------------------------------------------------
  free energy    TOTEN  =      -355.95543316 eV

  energy without entropy =     -355.95543316  energy(sigma->0) =     -355.95543316


--------------------------------------------------------------------------------------------------------




--------------------------------------- Iteration      1(  14)  ---------------------------------------


    POTLOK:  cpu time      0.1373: real time      0.1373
    SETDIJ:  cpu time      0.0051: real time      0.0051
    TRIAL :  cpu time      4.4229: real time      4.4263
    CORREC:  cpu time      1.9878: real time      1.9897
    CHARGE:  cpu time      0.6727: real time      0.6735
    --------------------------------------------
      LOOP:  cpu time      7.2415: real time      7.2622

 eigenvalue-minimisations  :     0
 total energy-change (2. order) :-0.7845395E-03  (-0.2098622E-03)
 number of electron     180.0000000 magnetization 
 augmentation part       -0.6992288 magnetization 

 Free energy of the ion-electron system (eV)
  ---------------------------------------------------
  alpha Z        PSCENC =       171.08921574
  Ewald energy   TEWEN  =     -3544.07936003
  -Hartree energ DENC   =     -3810.16639981
  -exchange      EXHF   =         0.00000000
  -V(xc)+E(xc)   XCENC  =       477.53463077
  PAW double counting   =     61995.83112914   -61886.81319804
  entropy T*S    EENTRO =        -0.00000000
  eigenvalues    EBANDS =     -1403.05348756
  atomic energy  EATOM  =      7643.70125208
  ---------------------------------------------------
  free energy    TOTEN  =      -355.95621770 eV

  energy without entropy =     -355.95621770  energy(sigma->0) =     -355.95621770


--------------------------------------------------------------------------------------------------------




--------------------------------------- Iteration      1(  15)  ---------------------------------------


    POTLOK:  cpu time      0.1365: real time      0.1365
    SETDIJ:  cpu time      0.0051: real time      0.0051
    TRIAL :  cpu time      4.4119: real time      4.4152
    CORREC:  cpu time      1.9876: real time      1.9887
    CHARGE:  cpu time      0.6718: real time      0.6718
    --------------------------------------------
      LOOP:  cpu time      7.2439: real time      7.2486

 eigenvalue-minimisations  :     0
 total energy-change (2. order) :-0.2101843E-03  (-0.6877645E-04)
 number of electron     180.0000000 magnetization 
 augmentation part       -0.6993386 magnetization 

 Free energy of the ion-electron system (eV)
  ---------------------------------------------------
  alpha Z        PSCENC =       171.08921574
  Ewald energy   TEWEN  =     -3544.07936003
  -Hartree energ DENC   =     -3810.12924953
  -exchange      EXHF   =         0.00000000
  -V(xc)+E(xc)   XCENC  =       477.53073306
  PAW double counting   =     61983.55867795   -61874.53969062
  entropy T*S    EENTRO =        -0.00000000
  eigenvalues    EBANDS =     -1403.08800655
  atomic energy  EATOM  =      7643.70125208
  ---------------------------------------------------
  free energy    TOTEN  =      -355.95642788 eV

  energy without entropy =     -355.95642788  energy(sigma->0) =     -355.95642788


--------------------------------------------------------------------------------------------------------




--------------------------------------- Iteration      1(  16)  ---------------------------------------


    POTLOK:  cpu time      0.1363: real time      0.1369
    SETDIJ:  cpu time      0.0051: real time      0.0051
    TRIAL :  cpu time      4.4023: real time      4.4058
    CORREC:  cpu time      2.0289: real time      2.0306
    CHARGE:  cpu time      0.6737: real time      0.6747
    --------------------------------------------
      LOOP:  cpu time      7.2630: real time      7.2825

 eigenvalue-minimisations  :     0
 total energy-change (2. order) :-0.6765474E-04  (-0.1980832E-04)
 number of electron     180.0000000 magnetization 
 augmentation part       -0.6994647 magnetization 

 Free energy of the ion-electron system (eV)
  ---------------------------------------------------
  alpha Z        PSCENC =       171.08921574
  Ewald energy   TEWEN  =     -3544.07936003
  -Hartree energ DENC   =     -3810.28859112
  -exchange      EXHF   =         0.00000000
  -V(xc)+E(xc)   XCENC  =       477.53980662
  PAW double counting   =     61971.02923936   -61862.01109023
  entropy T*S    EENTRO =        -0.00000000
  eigenvalues    EBANDS =     -1402.93696796
  atomic energy  EATOM  =      7643.70125208
  ---------------------------------------------------
  free energy    TOTEN  =      -355.95649554 eV

  energy without entropy =     -355.95649554  energy(sigma->0) =     -355.95649554


--------------------------------------------------------------------------------------------------------




--------------------------------------- Iteration      1(  17)  ---------------------------------------


    POTLOK:  cpu time      0.1363: real time      0.1363
    SETDIJ:  cpu time      0.0051: real time      0.0051
    TRIAL :  cpu time      4.3651: real time      4.3689
    CORREC:  cpu time      1.9866: real time      1.9885
    CHARGE:  cpu time      0.6753: real time      0.6762
    --------------------------------------------
      LOOP:  cpu time      7.1834: real time      7.2046

 eigenvalue-minimisations  :     0
 total energy-change (2. order) :-0.1964435E-04  (-0.5876536E-05)
 number of electron     180.0000000 magnetization 
 augmentation part       -0.6995106 magnetization 

 Free energy of the ion-electron system (eV)
  ---------------------------------------------------
  alpha Z        PSCENC =       171.08921574
  Ewald energy   TEWEN  =     -3544.07936003
  -Hartree energ DENC   =     -3810.27363544
  -exchange      EXHF   =         0.00000000
  -V(xc)+E(xc)   XCENC  =       477.53904175
  PAW double counting   =     61977.19122953   -61868.17219894
  entropy T*S    EENTRO =        -0.00000000
  eigenvalues    EBANDS =     -1402.95205987
  atomic energy  EATOM  =      7643.70125208
  ---------------------------------------------------
  free energy    TOTEN  =      -355.95651518 eV

  energy without entropy =     -355.95651518  energy(sigma->0) =     -355.95651518


--------------------------------------------------------------------------------------------------------




--------------------------------------- Iteration      1(  18)  ---------------------------------------


    POTLOK:  cpu time      0.1368: real time      0.1368
    SETDIJ:  cpu time      0.0051: real time      0.0051
    TRIAL :  cpu time      4.3657: real time      4.3696
    CORREC:  cpu time      1.9965: real time      1.9984
    CHARGE:  cpu time      0.6746: real time      0.6756
    --------------------------------------------
      LOOP:  cpu time      7.1925: real time      7.2150

 eigenvalue-minimisations  :     0
 total energy-change (2. order) :-0.5671252E-05  (-0.1348053E-05)
 number of electron     180.0000000 magnetization 
 augmentation part       -0.6995203 magnetization 

 Free energy of the ion-electron system (eV)
  ---------------------------------------------------
  alpha Z        PSCENC =       171.08921574
  Ewald energy   TEWEN  =     -3544.07936003
  -Hartree energ DENC   =     -3810.29699896
  -exchange      EXHF   =         0.00000000
  -V(xc)+E(xc)   XCENC  =       477.54018589
  PAW double counting   =     61983.29047670   -61874.27135033
  entropy T*S    EENTRO =        -0.00000000
  eigenvalues    EBANDS =     -1402.92994195
  atomic energy  EATOM  =      7643.70125208
  ---------------------------------------------------
  free energy    TOTEN  =      -355.95652085 eV

  energy without entropy =     -355.95652085  energy(sigma->0) =     -355.95652085


--------------------------------------------------------------------------------------------------------




--------------------------------------- Iteration      1(  19)  ---------------------------------------


    POTLOK:  cpu time      0.1366: real time      0.1366
    SETDIJ:  cpu time      0.0050: real time      0.0050
    TRIAL :  cpu time      4.4123: real time      4.4156
    CORREC:  cpu time      1.9939: real time      1.9955
    CHARGE:  cpu time      0.6698: real time      0.6698
    --------------------------------------------
      LOOP:  cpu time      7.2311: real time      7.2538

 eigenvalue-minimisations  :     0
 total energy-change (2. order) :-0.1382752E-05  (-0.4773579E-06)
 number of electron     180.0000000 magnetization 
 augmentation part       -0.6995144 magnetization 

 Free energy of the ion-electron system (eV)
  ---------------------------------------------------
  alpha Z        PSCENC =       171.08921574
  Ewald energy   TEWEN  =     -3544.07936003
  -Hartree energ DENC   =     -3810.27742467
  -exchange      EXHF   =         0.00000000
  -V(xc)+E(xc)   XCENC  =       477.53936028
  PAW double counting   =     61984.57149175   -61875.55225876
  entropy T*S    EENTRO =        -0.00000000
  eigenvalues    EBANDS =     -1402.94879865
  atomic energy  EATOM  =      7643.70125208
  ---------------------------------------------------
  free energy    TOTEN  =      -355.95652224 eV

  energy without entropy =     -355.95652224  energy(sigma->0) =     -355.95652224


--------------------------------------------------------------------------------------------------------




--------------------------------------- Iteration      1(  20)  ---------------------------------------


    POTLOK:  cpu time      0.1366: real time      0.1366
    SETDIJ:  cpu time      0.0051: real time      0.0051
    TRIAL :  cpu time      4.3697: real time      4.3728
    CORREC:  cpu time      1.9883: real time      1.9895
    CHARGE:  cpu time      0.6698: real time      0.6703
    --------------------------------------------
      LOOP:  cpu time      7.1829: real time      7.2050

 eigenvalue-minimisations  :     0
 total energy-change (2. order) :-0.4534813E-06  (-0.8059466E-07)
 number of electron     180.0000000 magnetization 
 augmentation part       -0.6995165 magnetization 

 Free energy of the ion-electron system (eV)
  ---------------------------------------------------
  alpha Z        PSCENC =       171.08921574
  Ewald energy   TEWEN  =     -3544.07936003
  -Hartree energ DENC   =     -3810.28218834
  -exchange      EXHF   =         0.00000000
  -V(xc)+E(xc)   XCENC  =       477.53959894
  PAW double counting   =     61983.40912751   -61874.39003383
  entropy T*S    EENTRO =        -0.00000000
  eigenvalues    EBANDS =     -1402.94413477
  atomic energy  EATOM  =      7643.70125208
  ---------------------------------------------------
  free energy    TOTEN  =      -355.95652269 eV

  energy without entropy =     -355.95652269  energy(sigma->0) =     -355.95652269


--------------------------------------------------------------------------------------------------------




--------------------------------------- Iteration      1(  21)  ---------------------------------------


    POTLOK:  cpu time      0.1367: real time      0.1368
    SETDIJ:  cpu time      0.0051: real time      0.0051
    TRIAL :  cpu time      4.4304: real time      4.4326
    CORREC:  cpu time      1.9865: real time      1.9885
    EDDIAG:  cpu time      1.5216: real time      1.5238
    CHARGE:  cpu time      0.6741: real time      0.6741
    --------------------------------------------
      LOOP:  cpu time      8.7842: real time      8.7910

 eigenvalue-minimisations  :     0
 total energy-change (2. order) :-0.7721246E-07  (-0.3429368E-07)
 number of electron     180.0000000 magnetization 
 augmentation part       -0.6995190 magnetization 

 Free energy of the ion-electron system (eV)
  ---------------------------------------------------
  alpha Z        PSCENC =       171.08921574
  Ewald energy   TEWEN  =     -3544.07936003
  -Hartree energ DENC   =     -3810.27681450
  -exchange      EXHF   =         0.00000000
  -V(xc)+E(xc)   XCENC  =       477.53930059
  PAW double counting   =     61983.15050923   -61874.13138715
  entropy T*S    EENTRO =        -0.00000000
  eigenvalues    EBANDS =     -1402.94923874
  atomic energy  EATOM  =      7643.70125208
  ---------------------------------------------------
  free energy    TOTEN  =      -355.95652277 eV

  energy without entropy =     -355.95652277  energy(sigma->0) =     -355.95652277


--------------------------------------------------------------------------------------------------------


  average scaling for gradient   0.8634


 average (electrostatic) potential at core
  the test charge radii are     0.5770  0.4325  0.5902
  (the norm of the test charge is              1.0000)
       1 -83.1250       2 -83.1250       3 -83.1250       4 -83.1250       5 -83.1250
       6 -83.1250       7 -83.1254       8 -83.1254       9 -83.1254      10 -83.1254
      11 -83.1254      12 -83.1254      13 -83.1254      14 -83.1254      15 -83.1254
      16 -83.1254      17 -83.1254      18 -83.1254      19 -40.5968      20 -40.5967
      21 -40.5967      22 -40.5968      23 -40.5968      24 -40.5967      25 -40.5978
      26 -40.5978      27 -40.5978      28 -40.5978      29 -40.5978      30 -40.5978
      31 -40.5978      32 -40.5978      33 -40.5978      34 -40.5978      35 -40.5978
      36 -40.5978      37 -98.7358      38 -98.7358      39 -98.7358      40 -98.7358
      41 -98.7358      42 -98.7358      43 -98.7362      44 -98.7362      45 -98.7362
      46 -98.7362      47 -98.7362      48 -98.7362      49 -98.7362      50 -98.7362
      51 -98.7362      52 -98.7362      53 -98.7362      54 -98.7362



 E-fermi :  -0.4316     XC(G=0):  -7.7542     alpha+bet : -6.9123

 Fermi energy:        -0.4315651264

 k-point     1 :       0.0000    0.0000    0.0000
  band No.  band energies     occupation 
      1     -19.9660      2.00000
      2     -19.9205      2.00000
      3     -19.9204      2.00000
      4     -19.8664      2.00000
      5     -19.8663      2.00000
      6     -19.8379      2.00000
      7     -16.8449      2.00000
      8     -16.8449      2.00000
      9     -16.8447      2.00000
     10     -16.8447      2.00000
     11     -16.7887      2.00000
     12     -16.7887      2.00000
     13     -16.7706      2.00000
     14     -16.7706      2.00000
     15     -16.7417      2.00000
     16     -16.7416      2.00000
     17     -16.7415      2.00000
     18     -16.7415      2.00000
     19     -11.3543      2.00000
     20     -11.3543      2.00000
     21     -11.3073      2.00000
     22     -11.3073      2.00000
     23     -11.3070      2.00000
     24     -11.3070      2.00000
     25     -11.2387      2.00000
     26     -11.2387      2.00000
     27     -11.2386      2.00000
     28     -11.2386      2.00000
     29     -11.1805      2.00000
     30     -11.1805      2.00000
     31      -8.3009      2.00000
     32      -8.0197      2.00000
     33      -8.0195      2.00000
     34      -7.9646      2.00000
     35      -7.9431      2.00000
     36      -7.9426      2.00000
     37      -7.8313      2.00000
     38      -7.7507      2.00000
     39      -7.7497      2.00000
     40      -7.5088      2.00000
     41      -7.4548      2.00000
     42      -7.4547      2.00000
     43      -5.9764      2.00000
     44      -5.9763      2.00000
     45      -5.9422      2.00000
     46      -5.0989      2.00000
     47      -5.0989      2.00000
     48      -5.0985      2.00000
     49      -5.0984      2.00000
     50      -5.0734      2.00000
     51      -5.0732      2.00000
     52      -5.0274      2.00000
[...]
      7     -16.8140      2.00000
      8     -16.8140      2.00000
      9     -16.8139      2.00000
     10     -16.8139      2.00000
     11     -16.8139      2.00000
     12     -16.8139      2.00000
     13     -16.7635      2.00000
     14     -16.7635      2.00000
     15     -16.7634      2.00000
     16     -16.7634      2.00000
     17     -16.7634      2.00000
     18     -16.7634      2.00000
     19     -11.3403      2.00000
     20     -11.3403      2.00000
     21     -11.3400      2.00000
     22     -11.3400      2.00000
     23     -11.3400      2.00000
     24     -11.3400      2.00000
     25     -11.2064      2.00000
     26     -11.2064      2.00000
     27     -11.2062      2.00000
     28     -11.2062      2.00000
     29     -11.2062      2.00000
     30     -11.2062      2.00000
     31      -7.9136      2.00000
     32      -7.9136      2.00000
     33      -7.9136      2.00000
     34      -7.9136      2.00000
     35      -7.9132      2.00000
     36      -7.9132      2.00000
     37      -7.7594      2.00000
     38      -7.7594      2.00000
     39      -7.7594      2.00000
     40      -7.7594      2.00000
     41      -7.7585      2.00000
     42      -7.7585      2.00000
     43      -5.5786      2.00000
     44      -5.5786      2.00000
     45      -5.5786      2.00000
     46      -5.5786      2.00000
     47      -5.5784      2.00000
     48      -5.5784      2.00000
     49      -5.0402      2.00000
     50      -5.0402      2.00000
     51      -5.0398      2.00000
     52      -5.0398      2.00000
     53      -5.0398      2.00000
     54      -5.0398      2.00000
     55      -4.6342      2.00000
     56      -4.6342      2.00000
     57      -4.6338      2.00000
     58      -4.6338      2.00000
     59      -4.6338      2.00000
     60      -4.6338      2.00000
     61      -3.2994      2.00000
     62      -3.2994      2.00000
     63      -3.2994      2.00000
     64      -3.2994      2.00000
     65      -3.2992      2.00000
     66      -3.2992      2.00000
     67      -2.6402      2.00000
     68      -2.6402      2.00000
     69      -2.6400      2.00000
     70      -2.6400      2.00000
     71      -2.6400      2.00000
     72      -2.6400      2.00000
     73      -2.5691      2.00000
     74      -2.5691      2.00000
     75      -2.5689      2.00000
     76      -2.5689      2.00000
     77      -2.5689      2.00000
     78      -2.5689      2.00000
     79      -0.9703      2.00000
     80      -0.9703      2.00000
     81      -0.9701      2.00000
     82      -0.9701      2.00000
     83      -0.9701      2.00000
     84      -0.9701      2.00000
     85      -0.5231      2.00000
     86      -0.5231      2.00000
     87      -0.5231      2.00000
     88      -0.5230      2.00000
     89      -0.5230      2.00000
     90      -0.5230      2.00000
     91       3.1072      0.00000
     92       3.1072      0.00000
     93       3.1075      0.00000
     94       3.1075      0.00000
     95       3.1075      0.00000
     96       3.1075      0.00000
     97       3.2810      0.00000
     98       3.2810      0.00000
     99       3.2813      0.00000
    100       3.2813      0.00000
    101       3.2813      0.00000
    102       3.2813      0.00000
    103       6.8769      0.00000
    104       6.8769      0.00000
    105       6.8769      0.00000
    106       6.8769      0.00000
    107       6.8774      0.00000
    108       6.8774      0.00000
    109       7.5801      0.00000
    110       7.5801      0.00000
    111       7.5803      0.00000
    112       7.5806      0.00000
    113       7.5806      0.00000
    114       7.5807      0.00000
    115       8.2690      0.00000
    116       8.2691      0.00000
    117       8.2721      0.00000
    118       8.2728      0.00000
    119       8.2733      0.00000
    120       8.2738      0.00000
    121       9.0381      0.00000
    122       9.0384      0.00000
    123       9.0627      0.00000
    124       9.0692      0.00000
    125       9.0728      0.00000
    126       9.0780      0.00000
    127       9.6767      0.00000
    128       9.6823      0.00000


--------------------------------------------------------------------------------------------------------


 soft charge-density along one line, spin component           1
         0         1         2         3         4         5         6         7         8         9
 total charge-density along one line

 pseudopotential strength for first ion, spin component:           1
 12.551  21.118  -0.009  -0.000   0.005  -0.015  -0.000   0.009
 21.118  35.533  -0.014  -0.000   0.008  -0.025  -0.000   0.015
 -0.009  -0.014  -3.217  -0.000  -0.001  -5.763  -0.000  -0.001
 -0.000  -0.000  -0.000  -3.219  -0.000  -0.000  -5.766  -0.000
  0.005   0.008  -0.001  -0.000  -3.218  -0.001  -0.000  -5.764
 -0.015  -0.025  -5.763  -0.000  -0.001 -10.300  -0.000  -0.002
 -0.000  -0.000  -0.000  -5.766  -0.000  -0.000 -10.305  -0.000
  0.009   0.015  -0.001  -0.000  -5.764  -0.002  -0.000 -10.303
 total augmentation occupancy for first ion, spin component:           1
  6.546  -2.210  -1.010   0.000   0.583   0.477  -0.000  -0.275
 -2.210   0.837   0.538  -0.000  -0.311  -0.235   0.000   0.135
 -1.010   0.538   6.067  -0.001   0.768  -1.921   0.000  -0.382
  0.000  -0.000  -0.001   2.340  -0.001   0.000  -0.552   0.000
  0.583  -0.311   0.768  -0.001   6.953  -0.382   0.000  -2.363
  0.477  -0.235  -1.921   0.000  -0.382   0.635  -0.000   0.172
 -0.000   0.000   0.000  -0.552   0.000  -0.000   0.134  -0.000
 -0.275   0.135  -0.382   0.000  -2.363   0.172  -0.000   0.833


------------------------ aborting loop because EDIFF is reached ----------------------------------------


    FORLOC:  cpu time      0.0101: real time      0.0101
    FORNL :  cpu time      2.6566: real time      2.6584
    FORCOR:  cpu time      0.1348: real time      0.1355
    OFIELD:  cpu time      0.0036: real time      0.0043
 WARNING: Using user supplied parameters
     VDW_S8 = 1.682
     VDW_SR = 1.094
     because the xc functional is not supported. Required parameters not
     defined in the INCAR file will be replaced with PBE defaults ones.


 ---------------------------------------------------------------------------------------------

         DFTD3 V3.0 Rev 1        
 IVDW         = 11
 DF unknown   
 parameters
 VDW_S6       =    1.0000
 VDW_S8       =    1.6820
 VDW_SR       =    1.0940
 rs18     =    1.0000
 alpha6   =   14.0000
 alpha8   =   16.0000
 k1-k3    =   16.0000    1.3333   -4.0000
 VDW_RADIUS   =   50.2022 A
 VDW_CNRADIUS =   21.1671 A
 Edisp (eV)   -5.22157

 E6    (eV) :    -2.7854
 E8    (eV) :    -2.4362
 % E8        : 46.66
    FORVDW:  cpu time      0.7532: real time      0.7565

 VOLUME and BASIS-vectors are now :
 -----------------------------------------------------------------------------
  energy-cutoff  :     1000.00
  volume of cell :      586.82
      direct lattice vectors                 reciprocal lattice vectors
     9.647000000  0.000000000  0.000000000     0.103659169  0.059847628 -0.000000000
    -4.823500000  8.354550000  0.000000000     0.000000000  0.119695256  0.000000000
     0.000000000  0.000000000  7.281000000     0.000000000 -0.000000000  0.137343771

  length of vectors
     9.647000000  9.647002537  7.281000000     0.119695287  0.119695256  0.137343771


 FORCES acting on ions:
    Electron-Ion                     Ewald-Force                    Non-Local-Force
 -----------------------------------------------------------------------------------------------
   0.751E+02 -.130E+03 0.839E-04   -.781E+02 0.135E+03 -.260E-04   0.284E+01 -.493E+01 0.185E-05
   -.751E+02 0.130E+03 0.502E-04   0.781E+02 -.135E+03 0.565E-05   -.284E+01 0.493E+01 -.185E-05
   0.751E+02 0.130E+03 0.737E-04   -.781E+02 -.135E+03 -.111E-03   0.284E+01 0.493E+01 0.410E-05
   -.751E+02 -.130E+03 -.170E-03   0.781E+02 0.135E+03 0.128E-03   -.284E+01 -.493E+01 -.410E-05
   -.150E+03 0.194E-03 0.540E-04   0.156E+03 -.155E-03 0.685E-04   -.569E+01 -.204E-04 -.231E-05
   0.150E+03 -.201E-03 0.237E-03   -.156E+03 0.246E-03 -.109E-03   0.569E+01 0.204E-04 0.231E-05
   0.752E+02 -.130E+03 0.153E-01   -.781E+02 0.135E+03 -.145E-01   0.285E+01 -.493E+01 0.417E-03
   -.751E+02 0.130E+03 0.153E-01   0.780E+02 -.135E+03 -.146E-01   -.285E+01 0.493E+01 0.415E-03
   0.751E+02 0.130E+03 0.155E-01   -.780E+02 -.135E+03 -.146E-01   0.285E+01 0.493E+01 0.417E-03
   -.752E+02 -.130E+03 0.151E-01   0.781E+02 0.135E+03 -.145E-01   -.285E+01 -.493E+01 0.417E-03
   -.150E+03 -.587E-01 0.154E-01   0.156E+03 0.591E-01 -.145E-01   -.569E+01 -.359E-04 0.415E-03
   0.150E+03 -.590E-01 0.153E-01   -.156E+03 0.595E-01 -.146E-01   0.569E+01 0.832E-05 0.417E-03
   0.751E+02 -.130E+03 -.153E-01   -.780E+02 0.135E+03 0.145E-01   0.285E+01 -.493E+01 -.415E-03
   -.752E+02 0.130E+03 -.152E-01   0.781E+02 -.135E+03 0.146E-01   -.285E+01 0.493E+01 -.417E-03
   0.752E+02 0.130E+03 -.155E-01   -.781E+02 -.135E+03 0.146E-01   0.285E+01 0.493E+01 -.417E-03
   -.751E+02 -.130E+03 -.151E-01   0.780E+02 0.135E+03 0.145E-01   -.285E+01 -.493E+01 -.417E-03
   -.150E+03 0.591E-01 -.154E-01   0.156E+03 -.596E-01 0.146E-01   -.569E+01 -.832E-05 -.417E-03
   0.150E+03 0.587E-01 -.152E-01   -.156E+03 -.591E-01 0.146E-01   0.569E+01 0.359E-04 -.415E-03
   0.265E+02 -.459E+02 -.139E-04   -.296E+02 0.512E+02 0.197E-04   0.314E+01 -.543E+01 -.114E-05
   -.265E+02 0.459E+02 0.149E-04   0.296E+02 -.512E+02 -.100E-04   -.314E+01 0.543E+01 0.114E-05
   0.265E+02 0.459E+02 -.171E-04   -.296E+02 -.512E+02 0.891E-05   0.314E+01 0.543E+01 -.251E-05
   -.265E+02 -.459E+02 0.442E-05   0.296E+02 0.512E+02 -.130E-04   -.314E+01 -.543E+01 0.251E-05
   -.530E+02 0.311E-04 0.170E-04   0.591E+02 -.356E-04 -.245E-05   -.627E+01 0.117E-05 0.192E-05
   0.530E+02 -.304E-04 -.328E-05   -.591E+02 0.337E-04 0.177E-04   0.627E+01 -.117E-05 -.192E-05
   0.265E+02 -.459E+02 -.428E-02   -.296E+02 0.512E+02 0.462E-02   0.314E+01 -.543E+01 -.557E-03
   -.265E+02 0.459E+02 -.427E-02   0.296E+02 -.512E+02 0.459E-02   -.314E+01 0.543E+01 -.556E-03
   0.265E+02 0.459E+02 -.425E-02   -.296E+02 -.512E+02 0.461E-02   0.314E+01 0.543E+01 -.557E-03
   -.265E+02 -.459E+02 -.430E-02   0.296E+02 0.512E+02 0.461E-02   -.314E+01 -.543E+01 -.557E-03
   -.530E+02 -.135E-02 -.427E-02   0.591E+02 0.226E-02 0.461E-02   -.627E+01 0.804E-03 -.556E-03
   0.530E+02 -.138E-02 -.430E-02   -.591E+02 0.231E-02 0.462E-02   0.627E+01 0.800E-03 -.558E-03
   0.265E+02 -.459E+02 0.426E-02   -.296E+02 0.512E+02 -.460E-02   0.314E+01 -.543E+01 0.556E-03
   -.265E+02 0.459E+02 0.430E-02   0.296E+02 -.512E+02 -.462E-02   -.314E+01 0.543E+01 0.557E-03
   0.265E+02 0.459E+02 0.427E-02   -.296E+02 -.512E+02 -.463E-02   0.314E+01 0.543E+01 0.557E-03
   -.265E+02 -.459E+02 0.429E-02   0.296E+02 0.512E+02 -.460E-02   -.314E+01 -.543E+01 0.557E-03
   -.530E+02 0.140E-02 0.429E-02   0.591E+02 -.230E-02 -.463E-02   -.627E+01 -.800E-03 0.558E-03
   0.530E+02 0.134E-02 0.428E-02   -.591E+02 -.225E-02 -.460E-02   0.627E+01 -.804E-03 0.556E-03
   0.197E+03 -.231E-03 -.149E-03   -.234E+03 0.119E-03 0.870E-04   0.372E+02 -.318E-04 -.192E-04
   -.197E+03 0.621E-04 -.263E-04   0.234E+03 -.230E-03 -.655E-04   -.372E+02 0.318E-04 0.192E-04
   -.986E+02 0.171E+03 0.897E-04   0.117E+03 -.203E+03 -.397E-04   -.186E+02 0.322E+02 0.930E-05
   0.986E+02 -.171E+03 0.237E-04   -.117E+03 0.203E+03 0.450E-04   0.186E+02 -.322E+02 -.930E-05
   -.986E+02 -.171E+03 0.179E-03   0.117E+03 0.203E+03 0.545E-04   -.186E+02 -.322E+02 -.453E-05
   0.986E+02 0.171E+03 0.283E-03   -.117E+03 -.203E+03 -.582E-04   0.186E+02 0.322E+02 0.453E-05
   0.197E+03 0.124E-01 -.766E-02   -.234E+03 -.198E-01 0.105E-01   0.372E+02 0.110E-01 -.358E-02
   -.197E+03 0.127E-01 -.801E-02   0.234E+03 -.201E-01 0.104E-01   -.372E+02 0.111E-01 -.356E-02
   -.986E+02 0.171E+03 -.759E-02   0.117E+03 -.203E+03 0.104E-01   -.186E+02 0.322E+02 -.356E-02
   0.985E+02 -.171E+03 -.807E-02   -.117E+03 0.203E+03 0.105E-01   0.186E+02 -.322E+02 -.359E-02
   -.985E+02 -.171E+03 -.778E-02   0.117E+03 0.203E+03 0.105E-01   -.186E+02 -.322E+02 -.357E-02
   0.986E+02 0.171E+03 -.794E-02   -.117E+03 -.203E+03 0.104E-01   0.186E+02 0.322E+02 -.357E-02
   0.197E+03 -.129E-01 0.767E-02   -.234E+03 0.202E-01 -.104E-01   0.372E+02 -.111E-01 0.356E-02
   -.197E+03 -.126E-01 0.811E-02   0.234E+03 0.197E-01 -.105E-01   -.372E+02 -.110E-01 0.358E-02
   -.985E+02 0.171E+03 0.781E-02   0.117E+03 -.203E+03 -.106E-01   -.186E+02 0.322E+02 0.359E-02
   0.986E+02 -.171E+03 0.800E-02   -.117E+03 0.203E+03 -.103E-01   0.186E+02 -.322E+02 0.356E-02
   -.986E+02 -.171E+03 0.772E-02   0.117E+03 0.203E+03 -.104E-01   -.186E+02 -.322E+02 0.357E-02
   0.985E+02 0.171E+03 0.798E-02   -.117E+03 -.203E+03 -.104E-01   0.186E+02 0.322E+02 0.357E-02
 -----------------------------------------------------------------------------------------------
   -.513E-02 -.578E-03 0.121E-02   0.142E-13 -.568E-13 0.971E-16   -.355E-14 -.711E-14 0.173E-17


 POSITION                                       TOTAL-FORCE (eV/Angst)
 -----------------------------------------------------------------------------------
     -0.65236      1.12991      1.82025        -0.208938      0.361817      0.000003
      5.47586      7.22464      5.46075         0.208938     -0.361817     -0.000003
      4.17114      7.22463      1.82025        -0.208882     -0.361761      0.000007
      0.65236      1.12992      5.46075         0.208882      0.361761     -0.000007
      1.30471      0.00000      1.82025         0.417835     -0.000023     -0.000005
      3.51879      8.35455      5.46075        -0.417835      0.000023      0.000005
      4.17094      3.91468      4.24718        -0.207424      0.358464      0.001188
      5.47568      1.65480      0.60668         0.206760     -0.358838      0.001186
      4.17132      1.65480      4.24718        -0.206717     -0.358800      0.001188
      5.47606      3.91468      0.60668         0.207350      0.358427      0.001190
      6.12824      2.78507      4.24718         0.414151      0.000339      0.001187
      3.51876      2.78507      0.60668        -0.414157      0.000401      0.001192
     -0.65218      6.69975      6.67432        -0.206760      0.358838     -0.001186
      0.65256      4.43987      3.03382         0.207424     -0.358464     -0.001188
     -0.65256      4.43987      6.67432        -0.207350     -0.358427     -0.001190
      0.65218      6.69975      3.03382         0.206717      0.358800     -0.001188
      1.30474      5.56948      6.67432         0.414157     -0.000401     -0.001192
     -1.30474      5.56948      3.03382        -0.414151     -0.000339     -0.001187
      8.44845      2.07594      1.82025         0.060028     -0.103971     -0.000001
     -3.62495      6.27861      5.46075        -0.060028      0.103971      0.000001
      3.62495      6.27860      1.82025         0.060019      0.103955     -0.000002
      1.19855      2.07595      5.46075        -0.060019     -0.103955      0.000002
     -2.42641      8.35455      1.82025        -0.120073     -0.000003      0.000002
      7.24991      0.00000      5.46075         0.120073      0.000003     -0.000002
      3.62482      4.86067      4.24727         0.057493     -0.102995     -0.000218
      6.02187      0.70885      0.60677        -0.060453      0.101288     -0.000218
      3.62513      0.70885      4.24727         0.060440      0.101272     -0.000218
      6.02218      4.86067      0.60677        -0.057481     -0.102978     -0.000218
      7.22056      2.78503      4.24727        -0.117953      0.001706     -0.000218
      2.42644      2.78503      0.60677         0.117952      0.001709     -0.000219
     -1.19837      7.64570      6.67423         0.060453     -0.101288      0.000218
      1.19868      3.49388      3.03373        -0.057493      0.102995      0.000218
     -1.19868      3.49388      6.67423         0.057481      0.102978      0.000218
      1.19838      7.64570      3.03373        -0.060440     -0.101272      0.000218
      2.39706      5.56952      6.67423        -0.117952     -0.001709      0.000219
     -2.39706      5.56952      3.03373         0.117953     -0.001706      0.000218
      3.44795      8.35455      1.82025        -0.169800     -0.000003     -0.000004
      1.37555      0.00000      5.46075         0.169800      0.000003      0.000004
     -4.13572      7.16329      1.82025         0.084910     -0.147074     -0.000000
     -0.68777      1.19126      5.46075        -0.084910      0.147074      0.000000
      0.68778      1.19126      1.82025         0.084900      0.147061     -0.000000
      4.13572      7.16329      5.46075        -0.084900     -0.147061      0.000000
      3.44796      2.78456      4.24724        -0.170100      0.003490     -0.000926
      6.19904      2.78456      0.60673         0.170107      0.003473     -0.000927
      5.51152      1.59374      4.24723         0.082034     -0.149057     -0.000926
      4.13598      3.97625      0.60674        -0.088078      0.145563     -0.000929
      5.51102      3.97625      4.24724         0.088075      0.145566     -0.000927
      4.13548      1.59374      0.60673        -0.082009     -0.149064     -0.000927
     -1.37554      5.56999      6.67427        -0.170107     -0.003473      0.000927
      1.37554      5.56999      3.03376         0.170100     -0.003490      0.000926
      0.68752      4.37830      6.67426         0.088078     -0.145563      0.000929
     -0.68802      6.76081      3.03377        -0.082034      0.149057      0.000926
      0.68802      6.76081      6.67427         0.082009      0.149064      0.000927
     -0.68752      4.37830      3.03376        -0.088075     -0.145566      0.000927
 -----------------------------------------------------------------------------------
    total drift:                               -0.005133     -0.000578      0.001212


--------------------------------------------------------------------------------------------------------



  FREE ENERGIE OF THE ION-ELECTRON SYSTEM (eV)
  ---------------------------------------------------
  free  energy   TOTEN  =      -361.17809378 eV

  energy  without entropy=     -361.17809378  energy(sigma->0) =     -361.17809378



--------------------------------------------------------------------------------------------------------


    POTLOK:  cpu time      0.1467: real time      0.1468


--------------------------------------------------------------------------------------------------------


 stress matrix after NEB project (eV)
     -4.54050     -0.00000     -0.00000
     -0.00000     -4.54051     -0.00000
     -0.00000     -0.00000    -10.09417
  FORCES: max atom, RMS     0.417835    0.268024
  FORCE total and by dimension    1.969563    0.417835
  Stress total and by dimension   11.963473   10.094173
     LOOP+:  cpu time    332.9167: real time    333.7352
    4ORBIT:  cpu time      0.0000: real time      0.0000

 total amount of memory used by VASP MPI-rank0   175995. kBytes
=======================================================================

   base      :      30000. kBytes
   nonl-proj :      95293. kBytes
   fftplans  :      12979. kBytes
   grid      :      18147. kBytes
   one-center:         82. kBytes
   wavefun   :      19494. kBytes

  
  
 General timing and accounting informations for this job:
 ========================================================
  
                  Total CPU time used (sec):      372.275
                            User time (sec):      369.269
                          System time (sec):        3.006
                         Elapsed time (sec):      376.875
  
                   Maximum memory used (kb):      469708.
                   Average memory used (kb):          N/A
  
                          Minor page faults:        95470
                          Major page faults:         1172
                 Voluntary context switches:         6177
