 vasp.6.4.1 05Apr23 (build Jun  6 2023 14:36:51) complex                         
 executed on        HPECrayEX_GCC date 2024.08.20  14:36:21
 running  256 mpi-ranks, with    1 threads/rank, on    2 nodes
 distrk:  each k-point on  128 cores,    2 groups
 distr:  one band on NCORE=  32 cores,    4 groups


--------------------------------------------------------------------------------------------------------


 INCAR:
   ALGO = Conjugate
   KPAR = 2
   NCORE = 32
   PREC = Accurate
   EDIFF = 1E-7
   ENCUT = 1000
   ISMEAR = 0
   SIGMA = 0.01
   ISIF = 0
   SYMPREC = 1E-7
   LWAVE = .FALSE.
   LCHARGE = .FALSE.

 POTCAR:    PAW_PBE C_h 06Feb2004                 
 POTCAR:    PAW_PBE H_h 06Feb2004                 
 POTCAR:    PAW_PBE N_h 06Feb2004                 
 POTCAR:    PAW_PBE C_h 06Feb2004                 
   VRHFIN =C: s2p2                                                                                  
   LEXCH  = PE                                                                                      
   EATOM  =   147.1560 eV,   10.8157 Ry                                                             
                                                                                                    
   TITEL  = PAW_PBE C_h 06Feb2004                                                                   
   LULTRA =        F    use ultrasoft PP ?                                                          
   IUNSCR =        1    unscreen: 0-lin 1-nonlin 2-no                                               
   RPACOR =    0.800    partial core radius                                                         
   POMASS =   12.011; ZVAL   =    4.000    mass and valenz                                          
   RCORE  =    1.100    outmost cutoff radius                                                       
   RWIGS  =    1.630; RWIGS  =    0.863    wigner-seitz radius (au A)                               
   ENMAX  =  700.000; ENMIN  =  500.000 eV                                                          
   ICORE  =        2    local potential                                                             
   LCOR   =        T    correct aug charges                                                         
   LPAW   =        T    paw PP                                                                      
   EAUG   =  946.768                                                                                
   DEXC   =    0.000                                                                                
   RMAX   =    1.128    core radius for proj-oper                                                   
   RAUG   =    1.300    factor for augmentation sphere                                              
   RDEP   =    1.162    radius for radial grids                                                     
   RDEPT  =    1.088    core radius for aug-charge                                                  
                                                                                                    
   Atomic configuration                                                                             
    4 entries                                                                                       
     n  l   j            E        occ.                                                              
     1  0  0.50      -273.3789   2.0000                                                             
     2  0  0.50       -13.7508   2.0000                                                             
     2  1  0.50        -5.2854   2.0000                                                             
     3  2  1.50        -5.4423   0.0000                                                             
   Description                                                                                      
     l       E           TYP  RCUT    TYP  RCUT                                                     
     0    -13.7508458     23  1.100                                                                 
     0     -8.2022199     23  1.100                                                                 
     1     -5.2854383     23  1.100                                                                 
     1      1.1560700     23  1.100                                                                 
     2     -5.4423304      7  1.100                                                                 
  local pseudopotential read in
  partial core-charges read in
  partial kinetic energy density read in
  atomic valenz-charges read in
  non local Contribution for L=           0  read in
    real space projection operators read in
  non local Contribution for L=           0  read in
    real space projection operators read in
  non local Contribution for L=           1  read in
    real space projection operators read in
  non local Contribution for L=           1  read in
    real space projection operators read in
    PAW grid and wavefunctions read in

   number of l-projection  operators is LMAX  =           4
   number of lm-projection operators is LMMAX =           8

 POTCAR:    PAW_PBE H_h 06Feb2004                 
   VRHFIN =H: ultrasoft test                                                                        
   LEXCH  = PE                                                                                      
   EATOM  =    12.4884 eV,    0.9179 Ry                                                             
                                                                                                    
   TITEL  = PAW_PBE H_h 06Feb2004                                                                   
   LULTRA =        F    use ultrasoft PP ?                                                          
   IUNSCR =        0    unscreen: 0-lin 1-nonlin 2-no                                               
   RPACOR =    0.000    partial core radius                                                         
   POMASS =    1.000; ZVAL   =    1.000    mass and valenz                                          
   RCORE  =    0.800    outmost cutoff radius                                                       
   RWIGS  =    0.700; RWIGS  =    0.370    wigner-seitz radius (au A)                               
   ENMAX  =  700.000; ENMIN  =  350.000 eV                                                          
   RCLOC  =    0.701    cutoff for local pot                                                        
   LCOR   =        T    correct aug charges                                                         
   LPAW   =        T    paw PP                                                                      
   EAUG   = 1000.000                                                                                
   RMAX   =    0.819    core radius for proj-oper                                                   
   RAUG   =    1.000    factor for augmentation sphere                                              
   RDEP   =    0.817    radius for radial grids                                                     
   RDEPT  =    0.817    core radius for aug-charge                                                  
                                                                                                    
   Atomic configuration                                                                             
    2 entries                                                                                       
     n  l   j            E        occ.                                                              
     1  0  0.50        -6.4927   1.0000                                                             
     2  1  0.50        -3.4015   0.0000                                                             
   Description                                                                                      
     l       E           TYP  RCUT    TYP  RCUT                                                     
     0     -6.4927493     23  0.800                                                                 
     0      6.8029130     23  0.800                                                                 
     1     -6.8029130     23  0.800                                                                 
  local pseudopotential read in
  atomic valenz-charges read in
  non local Contribution for L=           0  read in
    real space projection operators read in
  non local Contribution for L=           0  read in
    real space projection operators read in
  non local Contribution for L=           1  read in
    real space projection operators read in
    PAW grid and wavefunctions read in

   number of l-projection  operators is LMAX  =           3
   number of lm-projection operators is LMMAX =           5

 POTCAR:    PAW_PBE N_h 06Feb2004                 
   VRHFIN =N: s2p3                                                                                  
   LEXCH  = PE                                                                                      
   EATOM  =   264.5486 eV,   19.4438 Ry                                                             
                                                                                                    
   TITEL  = PAW_PBE N_h 06Feb2004                                                                   
   LULTRA =        F    use ultrasoft PP ?                                                          
   IUNSCR =        1    unscreen: 0-lin 1-nonlin 2-no                                               
   RPACOR =    0.800    partial core radius                                                         
   POMASS =   14.001; ZVAL   =    5.000    mass and valenz                                          
   RCORE  =    1.100    outmost cutoff radius                                                       
   RWIGS  =    1.480; RWIGS  =    0.783    wigner-seitz radius (au A)                               
   ENMAX  =  700.000; ENMIN  =  500.000 eV                                                          
   ICORE  =        2    local potential                                                             
   LCOR   =        T    correct aug charges                                                         
   LPAW   =        T    paw PP                                                                      
   EAUG   =  904.640                                                                                
   DEXC   =    0.000                                                                                
   RMAX   =    1.127    core radius for proj-oper                                                   
   RAUG   =    1.300    factor for augmentation sphere                                              
   RDEP   =    1.115    radius for radial grids                                                     
   RDEPT  =    1.106    core radius for aug-charge                                                  
                                                                                                    
   Atomic configuration                                                                             
    4 entries                                                                                       
     n  l   j            E        occ.                                                              
     1  0  0.50      -384.7179   2.0000                                                             
     2  0  0.50       -18.5828   2.0000                                                             
     2  1  0.50        -7.0898   3.0000                                                             
     3  2  1.50        -6.8029   0.0000                                                             
   Description                                                                                      
     l       E           TYP  RCUT    TYP  RCUT                                                     
     0    -18.5828117     23  1.100                                                                 
     0    -15.0750597     23  1.100                                                                 
     1     -7.0897851     23  1.100                                                                 
     1     -1.9663412     23  1.100                                                                 
     2     -6.8029130      7  1.100                                                                 
  local pseudopotential read in
  partial core-charges read in
  partial kinetic energy density read in
  kinetic energy density of atom read in
  atomic valenz-charges read in
  non local Contribution for L=           0  read in
    real space projection operators read in
  non local Contribution for L=           0  read in
    real space projection operators read in
  non local Contribution for L=           1  read in
    real space projection operators read in
  non local Contribution for L=           1  read in
    real space projection operators read in
    PAW grid and wavefunctions read in

   number of l-projection  operators is LMAX  =           4
   number of lm-projection operators is LMMAX =           8

 -----------------------------------------------------------------------------
|                                                                             |
|               ----> ADVICE to this user running VASP <----                  |
|                                                                             |
|     You have a (more or less) 'large supercell' and for larger cells it     |
|     might be more efficient to use real-space projection operators.         |
|     Therefore, try LREAL= Auto in the INCAR file.                           |
|     Mind: For very accurate calculation, you might also keep the            |
|     reciprocal projection scheme (i.e. LREAL=.FALSE.).                      |
|                                                                             |
 -----------------------------------------------------------------------------

  PAW_PBE C_h 06Feb2004                 :
 energy of atom  1       EATOM= -147.1560
 kinetic energy error for atom=    0.0031 (will be added to EATOM!!)
  PAW_PBE H_h 06Feb2004                 :
 energy of atom  2       EATOM=  -12.4884
 kinetic energy error for atom=    0.0006 (will be added to EATOM!!)
  PAW_PBE N_h 06Feb2004                 :
 energy of atom  3       EATOM= -264.5486
 kinetic energy error for atom=    0.0081 (will be added to EATOM!!)


 POSCAR:  C  H  N
  positions in cartesian coordinates
  No initial velocities read in
 exchange correlation table for  LEXCH =        8
   RHO(1)=    0.500       N(1)  =     2000
   RHO(2)=  100.500       N(2)  =     4000

 VTST: version 4.1, (05/19/21)

 CHAIN: initializing optimizer
 
 OPT: Using VASP Dynamics algorithm
 CHAIN: Read ICHAIN            0

 POSCAR:  C  H  N
  positions in cartesian coordinates
  No initial velocities read in



--------------------------------------------------------------------------------------------------------


 ion  position               nearest neighbor table
   1  0.000  0.135  0.250-  19 1.09  41 1.34  37 1.34
   2  1.000  0.865  0.750-  20 1.09  42 1.34  38 1.34
   3  0.865  0.865  0.250-  21 1.09  39 1.34  37 1.34
   4  0.135  0.135  0.750-  22 1.09  40 1.34  38 1.34
   5  0.135  0.000  0.250-  23 1.09  41 1.34  39 1.34
   6  0.865  1.000  0.750-  24 1.09  42 1.34  40 1.34
   7  0.667  0.469  0.583-  25 1.09  47 1.34  43 1.34
   8  0.667  0.198  0.083-  26 1.09  44 1.34  48 1.34
   9  0.531  0.198  0.583-  27 1.09  43 1.34  45 1.34
  10  0.802  0.469  0.083-  28 1.09  46 1.34  44 1.34
  11  0.802  0.333  0.583-  29 1.09  45 1.34  47 1.34
  12  0.531  0.333  0.083-  30 1.09  48 1.34  46 1.34
  13  0.333  0.802  0.917-  31 1.09  49 1.34  53 1.34
  14  0.333  0.531  0.417-  32 1.09  54 1.34  50 1.34
  15  0.198  0.531  0.917-  33 1.09  51 1.34  49 1.34
  16  0.469  0.802  0.417-  34 1.09  50 1.34  52 1.34
  17  0.469  0.667  0.917-  35 1.09  53 1.34  51 1.34
  18  0.198  0.667  0.417-  36 1.09  52 1.34  54 1.34
  19  1.000  0.248  0.250-   1 1.09
  20  0.000  0.752  0.750-   2 1.09
  21  0.752  0.752  0.250-   3 1.09
  22  0.248  0.248  0.750-   4 1.09
  23  0.248  1.000  0.250-   5 1.09
  24  0.752  0.000  0.750-   6 1.09
  25  0.667  0.582  0.583-   7 1.09
  26  0.667  0.085  0.083-   8 1.09
  27  0.418  0.085  0.583-   9 1.09
  28  0.915  0.582  0.083-  10 1.09
  29  0.915  0.333  0.583-  11 1.09
  30  0.418  0.333  0.083-  12 1.09
  31  0.333  0.915  0.917-  13 1.09
  32  0.333  0.418  0.417-  14 1.09
  33  0.085  0.418  0.917-  15 1.09
  34  0.582  0.915  0.417-  16 1.09
  35  0.582  0.667  0.917-  17 1.09
  36  0.085  0.667  0.417-  18 1.09
  37  0.857  1.000  0.250-   1 1.34   3 1.34
  38  0.143  0.000  0.750-   4 1.34   2 1.34
  39  0.000  0.857  0.250-   5 1.34   3 1.34
  40  0.000  0.143  0.750-   4 1.34   6 1.34
  41  0.143  0.143  0.250-   5 1.34   1 1.34
  42  0.857  0.857  0.750-   6 1.34   2 1.34
  43  0.524  0.333  0.583-   9 1.34   7 1.34
  44  0.809  0.333  0.083-   8 1.34  10 1.34
  45  0.667  0.191  0.583-  11 1.34   9 1.34
  46  0.667  0.476  0.083-  10 1.34  12 1.34
  47  0.809  0.476  0.583-   7 1.34  11 1.34
  48  0.524  0.191  0.083-  12 1.34   8 1.34
  49  0.191  0.667  0.917-  13 1.34  15 1.34
  50  0.476  0.667  0.417-  16 1.34  14 1.34
  51  0.333  0.524  0.917-  15 1.34  17 1.34
  52  0.333  0.809  0.417-  18 1.34  16 1.34
  53  0.476  0.809  0.917-  17 1.34  13 1.34
  54  0.191  0.524  0.417-  14 1.34  18 1.34

  LATTYP: Found a base centered orthorhombic cell.
 ALAT       =     9.6470000000
 B/A-ratio  =     1.7320514149
 C/A-ratio  =     0.7547424070
  
  Lattice vectors:
  
 A1 = (   4.8235000000,  -8.3545500000,   0.0000000000)
 A2 = (   4.8235000000,   8.3545500000,   0.0000000000)
 A3 = (   0.0000000000,   0.0000000000,   7.2810000000)


Analysis of symmetry for initial positions (statically):
=====================================================================
 Subroutine PRICEL returns:
 Original cell was already a primitive cell.
 

 Routine SETGRP: Setting up the symmetry group for a 
 base centered orthorhombic supercell.


 Subroutine GETGRP returns: Found  2 space group operations
 (whereof  2 operations were pure point group operations)
 out of a pool of  8 trial point group operations.


The static configuration has the point symmetry S_2 .


Analysis of symmetry for dynamics (positions and initial velocities):
=====================================================================
 Subroutine PRICEL returns:
 Original cell was already a primitive cell.
 

 Routine SETGRP: Setting up the symmetry group for a 
 base centered orthorhombic supercell.


 Subroutine GETGRP returns: Found  2 space group operations
 (whereof  2 operations were pure point group operations)
 out of a pool of  8 trial point group operations.


The dynamic configuration has the point symmetry S_2 .


 Subroutine INISYM returns: Found  2 space group operations
 (whereof  2 operations are pure point group operations),
 and found     1 'primitive' translations


----------------------------------------------------------------------------------------

                                     Primitive cell                                     

  volume of cell :     586.8220

  direct lattice vectors                    reciprocal lattice vectors
     9.647000000  0.000000000  0.000000000     0.103659169  0.059847628 -0.000000000
    -4.823500000  8.354550000  0.000000000     0.000000000  0.119695256  0.000000000
     0.000000000  0.000000000  7.281000000     0.000000000 -0.000000000  0.137343771

  length of vectors
     9.647000000  9.647002537  7.281000000     0.119695287  0.119695256  0.137343771

  position of ions in fractional coordinates (direct lattice)
     0.000000044  0.135245414  0.249999996
     0.999999970  0.864754587  0.749999980
     0.864754434  0.864754411  0.249999926
     0.135245665  0.135245633  0.750000092
     0.135245497  0.000000022  0.250000009
     0.864754564  0.999999982  0.749999938
     0.666640051  0.468568282  0.583323250
     0.666640035  0.198071780  0.083323204
     0.531431568  0.198071637  0.583323179
     0.801928431  0.468568453  0.083323270
     0.801928319  0.333360006  0.583323205
     0.531431676  0.333359948  0.083323227
     0.333360033  0.801928266  0.916676794
     0.333359979  0.531431678  0.416676734
     0.198071530  0.531431545  0.916676796
     0.468568518  0.801928412  0.416676740
     0.468568365  0.666640023  0.916676789
     0.198071711  0.666639992  0.416676774
     0.999999978  0.248480678  0.250000035
     0.000000065  0.751519324  0.749999966
     0.751519165  0.751519175  0.249999971
     0.248480892  0.248480836  0.750000043
     0.248480867  0.999999987  0.249999991
     0.751519188  0.000000013  0.749999990
     0.666645377  0.581799577  0.583335836
     0.666645487  0.084845884  0.083335772
     0.418200329  0.084845758  0.583335770
     0.915154290  0.581799689  0.083335848
     0.915154268  0.333354585  0.583335785
     0.418200330  0.333354592  0.083335844
     0.333354565  0.915154130  0.916664239
     0.333354659  0.418200425  0.416664140
     0.084845712  0.418200302  0.916664186
     0.581799734  0.915154249  0.416664175
     0.581799696  0.666645375  0.916664175
     0.084845764  0.666645437  0.416664199
     0.857411563  0.999999962  0.250000027
     0.142588509  0.000000059  0.749999991
     0.000000022  0.857411635  0.249999942
     0.000000063  0.142588392  0.750000047
     0.142588504  0.142588419  0.250000013
     0.857411558  0.857411605  0.749999941
     0.524061618  0.333298402  0.583331299
     0.809236814  0.333298495  0.083331269
     0.666701559  0.190763255  0.583331209
     0.666701600  0.475938344  0.083331351
     0.809236811  0.475938360  0.583331287
     0.524061599  0.190763240  0.083331267
     0.190763225  0.666701527  0.916668765
     0.475938440  0.666701621  0.416668656
     0.333298377  0.524061615  0.916668674
     0.333298480  0.809236746  0.416668750
     0.475938427  0.809236705  0.916668754
     0.190763251  0.524061663  0.416668693

  ion indices of the primitive-cell ions
   primitive index   ion index
                 1           1
                 2           2
                 3           3
                 4           4
                 5           5
                 6           6
                 7           7
                 8           8
                 9           9
                10          10
                11          11
                12          12
                13          13
                14          14
                15          15
                16          16
                17          17
                18          18
                19          19
                20          20
                21          21
                22          22
                23          23
                24          24
                25          25
                26          26
                27          27
                28          28
                29          29
                30          30
                31          31
                32          32
                33          33
                34          34
                35          35
                36          36
                37          37
                38          38
                39          39
                40          40
                41          41
                42          42
                43          43
                44          44
                45          45
                46          46
                47          47
                48          48
                49          49
                50          50
                51          51
                52          52
                53          53
                54          54

----------------------------------------------------------------------------------------



 KPOINTS: auto                                    

Automatic generation of k-mesh.
 Grid dimensions read from file:
 generate k-points for:    3    3    4

 Generating k-lattice:

  Cartesian coordinates                     Fractional coordinates (reciprocal lattice)
     0.034553056  0.019949209 -0.000000000     0.333333333 -0.000000000  0.000000000
     0.000000000  0.039898419  0.000000000     0.000000000  0.333333333  0.000000000
     0.000000000 -0.000000000  0.034335943     0.000000000  0.000000000  0.250000000

  Length of vectors
     0.039898429  0.039898419  0.034335943

  Shift w.r.t. Gamma in fractional coordinates (k-lattice)
     0.000000000  0.000000000  0.000000000

 
 Subroutine IBZKPT returns following result:
 ===========================================
 
 Found     19 irreducible k-points:
 
 Following reciprocal coordinates:
            Coordinates               Weight
  0.000000  0.000000  0.000000      1.000000
  0.333333  0.000000  0.000000      2.000000
  0.333333 -0.333333  0.000000      2.000000
  0.000000  0.333333  0.000000      2.000000
  0.333333  0.333333  0.000000      2.000000
  0.000000  0.000000  0.250000      2.000000
  0.333333  0.000000  0.250000      2.000000
 -0.333333  0.000000  0.250000      2.000000
  0.333333 -0.333333 -0.250000      2.000000
 -0.333333  0.333333 -0.250000      2.000000
  0.000000  0.333333  0.250000      2.000000
  0.000000 -0.333333  0.250000      2.000000
  0.333333  0.333333  0.250000      2.000000
 -0.333333 -0.333333  0.250000      2.000000
  0.000000  0.000000  0.500000      1.000000
  0.333333  0.000000  0.500000      2.000000
  0.333333 -0.333333  0.500000      2.000000
  0.000000  0.333333  0.500000      2.000000
  0.333333  0.333333  0.500000      2.000000
 
 Following cartesian coordinates:
            Coordinates               Weight
  0.000000  0.000000  0.000000      1.000000
  0.034553  0.019949  0.000000      2.000000
  0.034553 -0.019949  0.000000      2.000000
  0.000000  0.039898  0.000000      2.000000
  0.034553  0.059848  0.000000      2.000000
  0.000000  0.000000  0.034336      2.000000
  0.034553  0.019949  0.034336      2.000000
 -0.034553 -0.019949  0.034336      2.000000
  0.034553 -0.019949 -0.034336      2.000000
 -0.034553  0.019949 -0.034336      2.000000
  0.000000  0.039898  0.034336      2.000000
  0.000000 -0.039898  0.034336      2.000000
  0.034553  0.059848  0.034336      2.000000
 -0.034553 -0.059848  0.034336      2.000000
  0.000000  0.000000  0.068672      1.000000
  0.034553  0.019949  0.068672      2.000000
  0.034553 -0.019949  0.068672      2.000000
  0.000000  0.039898  0.068672      2.000000
  0.034553  0.059848  0.068672      2.000000
 


--------------------------------------------------------------------------------------------------------




 Dimension of arrays:
   k-points           NKPTS =     19   k-points in BZ     NKDIM =     19   number of bands    NBANDS=    120
   number of dos      NEDOS =    301   number of ions     NIONS =     54
   non local maximal  LDIM  =      4   non local SUM 2l+1 LMDIM =      8
   total plane-waves  NPLWV = 800000
   max r-space proj   IRMAX =      1   max aug-charges    IRDMAX=   9881
   dimension x,y,z NGX =   100 NGY =  100 NGZ =   80
   dimension x,y,z NGXF=   200 NGYF=  200 NGZF=  160
   support grid    NGXF=   200 NGYF=  200 NGZF=  160
   ions per type =              18  18  18
   NGX,Y,Z   is equivalent  to a cutoff of  17.23, 17.23, 18.27 a.u.
   NGXF,Y,Z  is equivalent  to a cutoff of  34.47, 34.47, 36.53 a.u.

 SYSTEM =  unknown system                          
 POSCAR =   C  H  N                                

 Startparameter for this run:
   NWRITE =      2    write-flag & timer
   PREC   = accura    normal or accurate (medium, high low for compatibility)
   ISTART =      0    job   : 0-new  1-cont  2-samecut
   ICHARG =      2    charge: 1-file 2-atom 10-const
   ISPIN  =      1    spin polarized calculation?
   LNONCOLLINEAR =      F non collinear calculations
   LSORBIT =      F    spin-orbit coupling
   INIWAV =      1    electr: 0-lowe 1-rand  2-diag
   LASPH  =      F    aspherical Exc in radial PAW
 Electronic Relaxation 1
   ENCUT  = 1000.0 eV  73.50 Ry    8.57 a.u.  24.87 24.87 18.77*2*pi/ulx,y,z
   ENINI  = 1000.0     initial cutoff
   ENAUG  = 1000.0 eV  augmentation charge cutoff
   NELM   =     60;   NELMIN=  2; NELMDL= -5     # of ELM steps 
   EDIFF  = 0.1E-06   stopping-criterion for ELM
   LREAL  =      F    real-space projection
   NLSPLINE    = F    spline interpolate recip. space projectors
   LCOMPAT=      F    compatible to vasp.4.4
   GGA_COMPAT  = T    GGA compatible to vasp.4.4-vasp.4.6
   LMAXPAW     = -100 max onsite density
   LMAXMIX     =    2 max onsite mixed and CHGCAR
   VOSKOWN=      0    Vosko Wilk Nusair interpolation
   ROPT   =    0.00000   0.00000   0.00000
 Ionic relaxation
   EDIFFG = 0.1E-05   stopping-criterion for IOM
   NSW    =      0    number of steps for IOM
   NBLOCK =      1;   KBLOCK =      1    inner block; outer block 
   IBRION =     -1    ionic relax: 0-MD 1-quasi-New 2-CG
   NFREE  =      0    steps in history (QN), initial steepest desc. (CG)
   ISIF   =      0    stress and relaxation
   IWAVPR =     10    prediction:  0-non 1-charg 2-wave 3-comb
   ISYM   =      2    0-nonsym 1-usesym 2-fastsym
   LCORR  =      T    Harris-Foulkes like correction to forces

   POTIM  = 0.5000    time-step for ionic-motion
   TEIN   =    0.0    initial temperature
   TEBEG  =    0.0;   TEEND  =   0.0 temperature during run
   SMASS  =  -3.00    Nose mass-parameter (am)
   estimated Nose-frequenzy (Omega)   =  0.10E-29 period in steps = 0.13E+47 mass=  -0.213E-26a.u.
   SCALEE = 1.0000    scale energy and forces
   NPACO  =    256;   APACO  = 10.0  distance and # of slots for P.C.
   PSTRESS=    0.0 pullay stress

  Mass of Ions in am
   POMASS =  12.01  1.00 14.00
  Ionic Valenz
   ZVAL   =   4.00  1.00  5.00
  Atomic Wigner-Seitz radii
   RWIGS  =  -1.00 -1.00 -1.00
  virtual crystal weights 
   VCA    =   1.00  1.00  1.00
   NELECT =     180.0000    total number of electrons
   NUPDOWN=      -1.0000    fix difference up-down

 DOS related values:
   EMIN   =  10.00;   EMAX   =-10.00  energy-range for DOS
   EFERMI =   0.00;   METHOD = LEGACY      
   ISMEAR =     0;   SIGMA  =   0.01  broadening in eV -4-tet -1-fermi 0-gaus

 Electronic relaxation 2 (details)
   IALGO  =     58    algorithm
   LDIAG  =      T    sub-space diagonalisation (order eigenvalues)
   LSUBROT=      F    optimize rotation matrix (better conditioning)
   TURBO    =      0    0=normal 1=particle mesh
   IRESTART =      0    0=no restart 2=restart with 2 vectors
   NREBOOT  =      0    no. of reboots
   NMIN     =      0    reboot dimension
   EREF     =   0.00    reference energy to select bands
   IMIX   =      4    mixing-type and parameters
     AMIX     =   0.40;   BMIX     =  1.00
     AMIX_MAG =   1.60;   BMIX_MAG =  1.00
     AMIN     =   0.10
     WC   =   100.;   INIMIX=   1;  MIXPRE=   1;  MAXMIX= -45

 Intra band minimization:
   WEIMIN = 0.0000     energy-eigenvalue tresh-hold
   EBREAK =  0.21E-09  absolut break condition
   DEPER  =   0.30     relativ break condition  

   TIME   =   0.40     timestep for ELM

  volume/ion in A,a.u.               =      10.87        73.33
  Fermi-wavevector in a.u.,A,eV,Ry     =   1.104071  2.086391 16.585122  1.218972
  Thomas-Fermi vector in A             =   2.240538

 Write flags
   LWAVE        =      F    write WAVECAR
   LDOWNSAMPLE  =      F    k-point downsampling of WAVECAR
   LCHARG       =      T    write CHGCAR
   LVTOT        =      F    write LOCPOT, total local potential
   LVHAR        =      F    write LOCPOT, Hartree potential only
   LELF         =      F    write electronic localiz. function (ELF)
   LORBIT       =      0    0 simple, 1 ext, 2 COOP (PROOUT), +10 PAW based schemes


 Dipole corrections
   LMONO  =      F    monopole corrections only (constant potential shift)
   LDIPOL =      F    correct potential (dipole corrections)
   IDIPOL =      0    1-x, 2-y, 3-z, 4-all directions 
   EPSILON=  1.0000000 bulk dielectric constant

 Exchange correlation treatment:
   GGA     =    --    GGA type
   LEXCH   =     8    internal setting for exchange type
   LIBXC   =     F    Libxc                    
   VOSKOWN =     0    Vosko Wilk Nusair interpolation
   LHFCALC =     F    Hartree Fock is set to
   LHFONE  =     F    Hartree Fock one center treatment
   AEXX    =    0.0000 exact exchange contribution

 Linear response parameters
   LEPSILON=     F    determine dielectric tensor
   LRPA    =     F    only Hartree local field effects (RPA)
   LNABLA  =     F    use nabla operator in PAW spheres
   LVEL    =     F    velocity operator in full k-point grid
   CSHIFT  =0.1000    complex shift for real part using Kramers Kronig
   OMEGAMAX=  -1.0    maximum frequency
   DEG_THRESHOLD= 0.2000000E-02 threshold for treating states as degnerate
   RTIME   =   -0.100 relaxation time in fs
  (WPLASMAI=    0.000 imaginary part of plasma frequency in eV, 0.658/RTIME)
   DFIELD  = 0.0000000 0.0000000 0.0000000 field for delta impulse in time

  Optional k-point grid parameters
   LKPOINTS_OPT  =     F    use optional k-point grid
   KPOINTS_OPT_MODE=     1    mode for optional k-point grid

 Orbital magnetization related:
   ORBITALMAG=     F  switch on orbital magnetization
   LCHIMAG   =     F  perturbation theory with respect to B field
   DQ        =  0.001000  dq finite difference perturbation B field
   LLRAUG    =     F  two centre corrections for induced B field
   LBONE     =     F  B-component reconstruction in AE one-centre
   LVGVCALC  =     T  calculate vGv susceptibility
   LVGVAPPL  =     F  apply vGv susceptibility instead of pGv for G=0

 Random number generation:
   RANDOM_GENERATOR = DEFAULT
   PCG_SEED         = not used


--------------------------------------------------------------------------------------------------------


 Static calculation
 charge density and potential will be updated during run
 non-spin polarized calculation
 Conjugate gradient for all bands (Freysoldt, et al. PRB 79, 241103 (2009))
 preconditioned conjugated gradient                                        
 perform sub-space diagonalisation
    before iterative eigenvector-optimisation
 modified Broyden-mixing scheme, WC =      100.0
 initial mixing is a Kerker type mixing with AMIX =  0.4000 and BMIX =      1.0000
 Hartree-type preconditioning will be used
 using additional bands           30
 reciprocal scheme for non local part
 use partial core corrections
 no Harris-corrections to forces 
 use gradient corrections 
 use of overlap-Matrix (Vanderbilt PP)
 Gauss-broadening in eV      SIGMA  =   0.01


--------------------------------------------------------------------------------------------------------


  energy-cutoff  :     1000.00
  volume of cell :      586.82
      direct lattice vectors                 reciprocal lattice vectors
     9.647000000  0.000000000  0.000000000     0.103659169  0.059847628 -0.000000000
    -4.823500000  8.354550000  0.000000000     0.000000000  0.119695256  0.000000000
     0.000000000  0.000000000  7.281000000     0.000000000 -0.000000000  0.137343771

  length of vectors
     9.647000000  9.647002537  7.281000000     0.119695287  0.119695256  0.137343771



 k-points in units of 2pi/SCALE and weight: auto                                    
   0.00000000  0.00000000  0.00000000       0.028
   0.03455306  0.01994921  0.00000000       0.056
   0.03455306 -0.01994921  0.00000000       0.056
   0.00000000  0.03989842  0.00000000       0.056
   0.03455306  0.05984763  0.00000000       0.056
   0.00000000  0.00000000  0.03433594       0.056
   0.03455306  0.01994921  0.03433594       0.056
  -0.03455306 -0.01994921  0.03433594       0.056
   0.03455306 -0.01994921 -0.03433594       0.056
  -0.03455306  0.01994921 -0.03433594       0.056
   0.00000000  0.03989842  0.03433594       0.056
   0.00000000 -0.03989842  0.03433594       0.056
   0.03455306  0.05984763  0.03433594       0.056
  -0.03455306 -0.05984763  0.03433594       0.056
   0.00000000  0.00000000  0.06867189       0.028
   0.03455306  0.01994921  0.06867189       0.056
   0.03455306 -0.01994921  0.06867189       0.056
   0.00000000  0.03989842  0.06867189       0.056
   0.03455306  0.05984763  0.06867189       0.056

 k-points in reciprocal lattice and weights: auto                                    
   0.00000000  0.00000000  0.00000000       0.028
   0.33333333  0.00000000  0.00000000       0.056
   0.33333333 -0.33333333  0.00000000       0.056
   0.00000000  0.33333333  0.00000000       0.056
   0.33333333  0.33333333  0.00000000       0.056
   0.00000000  0.00000000  0.25000000       0.056
   0.33333333  0.00000000  0.25000000       0.056
  -0.33333333  0.00000000  0.25000000       0.056
   0.33333333 -0.33333333 -0.25000000       0.056
  -0.33333333  0.33333333 -0.25000000       0.056
   0.00000000  0.33333333  0.25000000       0.056
   0.00000000 -0.33333333  0.25000000       0.056
   0.33333333  0.33333333  0.25000000       0.056
  -0.33333333 -0.33333333  0.25000000       0.056
   0.00000000  0.00000000  0.50000000       0.028
   0.33333333  0.00000000  0.50000000       0.056
   0.33333333 -0.33333333  0.50000000       0.056
   0.00000000  0.33333333  0.50000000       0.056
   0.33333333  0.33333333  0.50000000       0.056

 position of ions in fractional coordinates (direct lattice) 
   0.00000004  0.13524541  0.25000000
   0.99999997  0.86475459  0.74999998
   0.86475443  0.86475441  0.24999993
   0.13524566  0.13524563  0.75000009
   0.13524550  0.00000002  0.25000001
   0.86475456  0.99999998  0.74999994
   0.66664005  0.46856828  0.58332325
   0.66664004  0.19807178  0.08332320
   0.53143157  0.19807164  0.58332318
   0.80192843  0.46856845  0.08332327
   0.80192832  0.33336001  0.58332320
   0.53143168  0.33335995  0.08332323
   0.33336003  0.80192827  0.91667679
   0.33335998  0.53143168  0.41667673
   0.19807153  0.53143154  0.91667680
   0.46856852  0.80192841  0.41667674
   0.46856837  0.66664002  0.91667679
   0.19807171  0.66663999  0.41667677
   0.99999998  0.24848068  0.25000004
   0.00000007  0.75151932  0.74999997
   0.75151916  0.75151917  0.24999997
   0.24848089  0.24848084  0.75000004
   0.24848087  0.99999999  0.24999999
   0.75151919  0.00000001  0.74999999
   0.66664538  0.58179958  0.58333584
   0.66664549  0.08484588  0.08333577
   0.41820033  0.08484576  0.58333577
   0.91515429  0.58179969  0.08333585
   0.91515427  0.33335458  0.58333578
   0.41820033  0.33335459  0.08333584
   0.33335457  0.91515413  0.91666424
   0.33335466  0.41820043  0.41666414
   0.08484571  0.41820030  0.91666419
   0.58179973  0.91515425  0.41666418
   0.58179970  0.66664538  0.91666418
   0.08484576  0.66664544  0.41666420
   0.85741156  0.99999996  0.25000003
   0.14258851  0.00000006  0.74999999
   0.00000002  0.85741163  0.24999994
   0.00000006  0.14258839  0.75000005
   0.14258850  0.14258842  0.25000001
   0.85741156  0.85741160  0.74999994
   0.52406162  0.33329840  0.58333130
   0.80923681  0.33329850  0.08333127
   0.66670156  0.19076326  0.58333121
   0.66670160  0.47593834  0.08333135
   0.80923681  0.47593836  0.58333129
   0.52406160  0.19076324  0.08333127
   0.19076322  0.66670153  0.91666877
   0.47593844  0.66670162  0.41666866
   0.33329838  0.52406161  0.91666867
   0.33329848  0.80923675  0.41666875
   0.47593843  0.80923670  0.91666875
   0.19076325  0.52406166  0.41666869

 position of ions in cartesian coordinates  (Angst):
  -0.65235583  1.12991458  1.82024997
   5.47585596  7.22463544  5.46074985
   4.17114312  7.22463397  1.82024946
   0.65235762  1.12991641  5.46075067
   1.30471321  0.00000018  1.82025006
   3.51878737  8.35454985  5.46074955
   4.17093746  3.91467714  4.24717658
   5.47567719  1.65480059  0.60667625
   4.17132180  1.65479939  4.24717607
   5.47606364  3.91467857  0.60667673
   6.12824050  2.78507284  4.24717625
   3.51875967  2.78507236  0.60667642
  -0.65217675  6.69974979  6.67432374
   0.65256302  4.43987253  3.03382330
  -0.65256401  4.43987141  6.67432375
   0.65217880  6.69975102  3.03382334
   1.30474087  5.56947740  6.67432370
  -1.30474020  5.56947714  3.03382359
   8.44845324  2.07594425  1.82025026
  -3.62495283  6.27860577  5.46074975
   3.62495264  6.27860452  1.82024979
   1.19854785  2.07594557  5.46075032
  -2.42640502  8.35454989  1.82024993
   7.24990554  0.00000011  5.46074993
   3.62481769  4.86067365  4.24726822
   6.02187490  0.70884918  0.60676776
   3.62512506  0.70884813  4.24726774
   6.02218264  4.86067459  0.60676831
   7.22055738  2.78502755  4.24726785
   2.42644271  2.78502761  0.60676828
  -1.19837445  7.64570093  6.67423232
   1.19868264  3.49387636  3.03373160
  -1.19868258  3.49387533  6.67423194
   1.19837551  7.64570193  3.03373186
   2.39705770  5.56952212  6.67423186
  -2.39705718  5.56952264  3.03373203
   3.44794953  8.35454968  1.82025019
   1.37555106  0.00000050  5.46074993
  -4.13572481  7.16328837  1.82024958
  -0.68777450  1.19126185  5.46075034
   0.68777606  1.19126208  1.82025009
   4.13572442  7.16328812  5.46074957
   3.44795759  2.78455816  4.24723519
   6.19904226  2.78455894  0.60673497
   5.51152337  1.59374116  4.24723453
   4.13598173  3.97625069  0.60673557
   5.51101884  3.97625082  4.24723510
   4.13547576  1.59374102  0.60673496
  -1.37554199  5.56999124  6.67426528
   1.37554286  5.56999203  3.03376449
   0.68751824  4.37829896  6.67426461
  -0.68802301  6.76080886  3.03376517
   0.68802476  6.76080851  6.67426520
  -0.68751835  4.37829937  3.03376475



--------------------------------------------------------------------------------------------------------


 k-point   1 :   0.0000 0.0000 0.0000  plane waves:   42031
 k-point   2 :   0.3333 0.0000 0.0000  plane waves:   42161
 k-point   3 :   0.3333-0.3333 0.0000  plane waves:   42161
 k-point   4 :   0.0000 0.3333 0.0000  plane waves:   42161
 k-point   5 :   0.3333 0.3333 0.0000  plane waves:   42159
 k-point   6 :   0.0000 0.0000 0.2500  plane waves:   42152
 k-point   7 :   0.3333 0.0000 0.2500  plane waves:   42112
 k-point   8 :  -0.3333 0.0000 0.2500  plane waves:   42112
 k-point   9 :   0.3333-0.3333-0.2500  plane waves:   42112
 k-point  10 :  -0.3333 0.3333-0.2500  plane waves:   42112
 k-point  11 :   0.0000 0.3333 0.2500  plane waves:   42112
 k-point  12 :   0.0000-0.3333 0.2500  plane waves:   42112
 k-point  13 :   0.3333 0.3333 0.2500  plane waves:   42159
 k-point  14 :  -0.3333-0.3333 0.2500  plane waves:   42159
 k-point  15 :   0.0000 0.0000 0.5000  plane waves:   42086
 k-point  16 :   0.3333 0.0000 0.5000  plane waves:   42136
 k-point  17 :   0.3333-0.3333 0.5000  plane waves:   42136
 k-point  18 :   0.0000 0.3333 0.5000  plane waves:   42136
 k-point  19 :   0.3333 0.3333 0.5000  plane waves:   42138

 maximum and minimum number of plane-waves per node :      1351     1267

 maximum number of plane-waves:     42161
 maximum index in each direction: 
   IXMAX=   25   IYMAX=   25   IZMAX=   19
   IXMIN=  -25   IYMIN=  -25   IZMIN=  -19


 parallel 3D FFT for wavefunctions:
    minimum data exchange during FFTs selected (reduces bandwidth)
 parallel 3D FFT for charge:
    minimum data exchange during FFTs selected (reduces bandwidth)


 total amount of memory used by VASP MPI-rank0    81338. kBytes
=======================================================================

   base      :      30000. kBytes
   nonl-proj :       6009. kBytes
   fftplans  :       3024. kBytes
   grid      :       5420. kBytes
   one-center:          6. kBytes
   wavefun   :      36879. kBytes

     INWAV:  cpu time      0.0002: real time      0.0003
 Broyden mixing: mesh for mixing (old mesh)
   NGX = 49   NGY = 49   NGZ = 37
  (NGX  =200   NGY  =200   NGZ  =160)
  gives a total of  88837 points

 initial charge density was supplied:
 charge density of overlapping atoms calculated
 number of electron     180.0000000 magnetization 
 keeping initial charge density in first step


--------------------------------------------------------------------------------------------------------


 Maximum index for augmentation-charges          498 (set IRDMAX)


--------------------------------------------------------------------------------------------------------


 First call to EWALD:  gamma=   0.212
 Maximum number of real-space cells 3x 3x 3
 Maximum number of reciprocal cells 3x 3x 2

    FEWALD:  cpu time      0.0050: real time      0.0050


--------------------------------------- Ionic step        1  -------------------------------------------




--------------------------------------- Iteration      1(   1)  ---------------------------------------


    POTLOK:  cpu time      0.0680: real time      0.0688
    SETDIJ:  cpu time      0.0127: real time      0.0130
    TRIAL :  cpu time      3.2323: real time      3.2421
    CORREC:  cpu time      0.0021: real time      0.0021
    --------------------------------------------
      LOOP:  cpu time      3.3435: real time      3.3552

 eigenvalue-minimisations  :  4560
 total energy-change (2. order) : 0.1569288E+04  (-0.1317240E+05)
 number of electron     180.0000000 magnetization 
 augmentation part      180.0000000 magnetization 

 Free energy of the ion-electron system (eV)
  ---------------------------------------------------
  alpha Z        PSCENC =       171.08921574
  Ewald energy   TEWEN  =     -3544.07936003
  -Hartree energ DENC   =     -3369.15698467
  -exchange      EXHF   =         0.00000000
  -V(xc)+E(xc)   XCENC  =       469.14378143
  PAW double counting   =      5806.41159385    -5688.09900538
  entropy T*S    EENTRO =        -0.00109611
  eigenvalues    EBANDS =        88.71842829
  atomic energy  EATOM  =      7635.26157172
  ---------------------------------------------------
  free energy    TOTEN  =      1569.28814484 eV

  energy without entropy =     1569.28924095  energy(sigma->0) =     1569.28869290


--------------------------------------------------------------------------------------------------------




--------------------------------------- Iteration      1(   2)  ---------------------------------------


    TRIAL :  cpu time      3.8812: real time      3.8833
    CORREC:  cpu time      0.0004: real time      0.0004
    --------------------------------------------
      LOOP:  cpu time      3.8961: real time      3.9141

 eigenvalue-minimisations  :  6056
 total energy-change (2. order) :-0.1694149E+04  (-0.1617713E+04)
 number of electron     180.0000000 magnetization 
 augmentation part      180.0000000 magnetization 

 Free energy of the ion-electron system (eV)
  ---------------------------------------------------
  alpha Z        PSCENC =       171.08921574
  Ewald energy   TEWEN  =     -3544.07936003
  -Hartree energ DENC   =     -3369.15698467
  -exchange      EXHF   =         0.00000000
  -V(xc)+E(xc)   XCENC  =       469.14378143
  PAW double counting   =      5806.41159385    -5688.09900538
  entropy T*S    EENTRO =        -0.00000000
  eigenvalues    EBANDS =     -1605.43193655
  atomic energy  EATOM  =      7635.26157172
  ---------------------------------------------------
  free energy    TOTEN  =      -124.86112390 eV

  energy without entropy =     -124.86112390  energy(sigma->0) =     -124.86112390


--------------------------------------------------------------------------------------------------------




--------------------------------------- Iteration      1(   3)  ---------------------------------------


    TRIAL :  cpu time      3.5667: real time      3.5686
    CORREC:  cpu time      0.0004: real time      0.0004
    --------------------------------------------
      LOOP:  cpu time      3.5821: real time      3.5991

 eigenvalue-minimisations  :  5408
 total energy-change (2. order) :-0.2624828E+03  (-0.2586149E+03)
 number of electron     180.0000000 magnetization 
 augmentation part      180.0000000 magnetization 

 Free energy of the ion-electron system (eV)
  ---------------------------------------------------
  alpha Z        PSCENC =       171.08921574
  Ewald energy   TEWEN  =     -3544.07936003
  -Hartree energ DENC   =     -3369.15698467
  -exchange      EXHF   =         0.00000000
  -V(xc)+E(xc)   XCENC  =       469.14378143
  PAW double counting   =      5806.41159385    -5688.09900538
  entropy T*S    EENTRO =        -0.00000000
  eigenvalues    EBANDS =     -1867.91471901
  atomic energy  EATOM  =      7635.26157172
  ---------------------------------------------------
  free energy    TOTEN  =      -387.34390636 eV

  energy without entropy =     -387.34390636  energy(sigma->0) =     -387.34390636


--------------------------------------------------------------------------------------------------------




--------------------------------------- Iteration      1(   4)  ---------------------------------------


    TRIAL :  cpu time      3.8508: real time      3.8528
    CORREC:  cpu time      0.0004: real time      0.0004
    --------------------------------------------
      LOOP:  cpu time      3.8802: real time      3.8824

 eigenvalue-minimisations  :  5968
 total energy-change (2. order) :-0.1085814E+02  (-0.1079415E+02)
 number of electron     180.0000000 magnetization 
 augmentation part      180.0000000 magnetization 

 Free energy of the ion-electron system (eV)
  ---------------------------------------------------
  alpha Z        PSCENC =       171.08921574
  Ewald energy   TEWEN  =     -3544.07936003
  -Hartree energ DENC   =     -3369.15698467
  -exchange      EXHF   =         0.00000000
  -V(xc)+E(xc)   XCENC  =       469.14378143
  PAW double counting   =      5806.41159385    -5688.09900538
  entropy T*S    EENTRO =        -0.00000000
  eigenvalues    EBANDS =     -1878.77285471
  atomic energy  EATOM  =      7635.26157172
  ---------------------------------------------------
  free energy    TOTEN  =      -398.20204206 eV

  energy without entropy =     -398.20204206  energy(sigma->0) =     -398.20204206


--------------------------------------------------------------------------------------------------------




--------------------------------------- Iteration      1(   5)  ---------------------------------------


    TRIAL :  cpu time      3.8633: real time      3.8661
    CORREC:  cpu time      0.0008: real time      0.0008
    CHARGE:  cpu time      0.2741: real time      0.2751
    --------------------------------------------
      LOOP:  cpu time      4.1524: real time      4.1727

 eigenvalue-minimisations  :  6000
 total energy-change (2. order) :-0.3257098E+00  (-0.3252033E+00)
 number of electron     180.0000000 magnetization 
 augmentation part       -0.5849909 magnetization 

 Free energy of the ion-electron system (eV)
  ---------------------------------------------------
  alpha Z        PSCENC =       171.08921574
  Ewald energy   TEWEN  =     -3544.07936003
  -Hartree energ DENC   =     -3369.15698467
  -exchange      EXHF   =         0.00000000
  -V(xc)+E(xc)   XCENC  =       469.14378143
  PAW double counting   =      5806.41159385    -5688.09900538
  entropy T*S    EENTRO =        -0.00000000
  eigenvalues    EBANDS =     -1879.09856453
  atomic energy  EATOM  =      7635.26157172
  ---------------------------------------------------
  free energy    TOTEN  =      -398.52775187 eV

  energy without entropy =     -398.52775187  energy(sigma->0) =     -398.52775187


--------------------------------------------------------------------------------------------------------




--------------------------------------- Iteration      1(   6)  ---------------------------------------


    POTLOK:  cpu time      0.0559: real time      0.0559
    SETDIJ:  cpu time      0.0031: real time      0.0031
    TRIAL :  cpu time      1.7527: real time      1.7547
    CORREC:  cpu time      0.7949: real time      0.7962
    CHARGE:  cpu time      0.2459: real time      0.2459
    --------------------------------------------
      LOOP:  cpu time      2.8671: real time      2.8836

 eigenvalue-minimisations  :     0
 total energy-change (2. order) : 0.4618618E+02  (-0.1830393E+02)
 number of electron     180.0000000 magnetization 
 augmentation part       -0.6614299 magnetization 

 Free energy of the ion-electron system (eV)
  ---------------------------------------------------
  alpha Z        PSCENC =       171.08921574
  Ewald energy   TEWEN  =     -3544.07936003
  -Hartree energ DENC   =     -4176.56378928
  -exchange      EXHF   =         0.00000000
  -V(xc)+E(xc)   XCENC  =       519.61064242
  PAW double counting   =     61245.35795523   -61134.03109270
  entropy T*S    EENTRO =        -0.00000000
  eigenvalues    EBANDS =     -1068.98671760
  atomic energy  EATOM  =      7635.26157172
  ---------------------------------------------------
  free energy    TOTEN  =      -352.34157448 eV

  energy without entropy =     -352.34157448  energy(sigma->0) =     -352.34157448


--------------------------------------------------------------------------------------------------------




--------------------------------------- Iteration      1(   7)  ---------------------------------------


    POTLOK:  cpu time      0.0556: real time      0.0556
    SETDIJ:  cpu time      0.0025: real time      0.0025
    TRIAL :  cpu time      1.6696: real time      1.6703
    CORREC:  cpu time      0.7821: real time      0.7824
    CHARGE:  cpu time      0.2425: real time      0.2425
    --------------------------------------------
      LOOP:  cpu time      2.7816: real time      2.7828

 eigenvalue-minimisations  :     0
 total energy-change (2. order) :-0.1833664E+02  (-0.1836252E+01)
 number of electron     180.0000000 magnetization 
 augmentation part       -0.7421308 magnetization 

 Free energy of the ion-electron system (eV)
  ---------------------------------------------------
  alpha Z        PSCENC =       171.08921574
  Ewald energy   TEWEN  =     -3544.07936003
  -Hartree energ DENC   =     -3818.18574554
  -exchange      EXHF   =         0.00000000
  -V(xc)+E(xc)   XCENC  =       499.83114255
  PAW double counting   =     76325.66756715   -76211.48634517
  entropy T*S    EENTRO =        -0.00000000
  eigenvalues    EBANDS =     -1428.77626013
  atomic energy  EATOM  =      7635.26157172
  ---------------------------------------------------
  free energy    TOTEN  =      -370.67821371 eV

  energy without entropy =     -370.67821371  energy(sigma->0) =     -370.67821371


--------------------------------------------------------------------------------------------------------




--------------------------------------- Iteration      1(   8)  ---------------------------------------


    POTLOK:  cpu time      0.0556: real time      0.0556
    SETDIJ:  cpu time      0.0020: real time      0.0021
    TRIAL :  cpu time      1.6746: real time      1.6757
    CORREC:  cpu time      0.7864: real time      0.7870
    CHARGE:  cpu time      0.2466: real time      0.2466
    --------------------------------------------
      LOOP:  cpu time      2.7799: real time      2.7972

 eigenvalue-minimisations  :     0
 total energy-change (2. order) :-0.1838245E+01  (-0.5113692E+00)
 number of electron     180.0000000 magnetization 
 augmentation part       -0.7551771 magnetization 

 Free energy of the ion-electron system (eV)
  ---------------------------------------------------
  alpha Z        PSCENC =       171.08921574
  Ewald energy   TEWEN  =     -3544.07936003
  -Hartree energ DENC   =     -3817.02200265
  -exchange      EXHF   =         0.00000000
  -V(xc)+E(xc)   XCENC  =       499.17550737
  PAW double counting   =     79256.19363586   -79141.63977494
  entropy T*S    EENTRO =        -0.00000000
  eigenvalues    EBANDS =     -1431.49525153
  atomic energy  EATOM  =      7635.26157172
  ---------------------------------------------------
  free energy    TOTEN  =      -372.51645846 eV

  energy without entropy =     -372.51645846  energy(sigma->0) =     -372.51645846


--------------------------------------------------------------------------------------------------------




--------------------------------------- Iteration      1(   9)  ---------------------------------------


    POTLOK:  cpu time      0.0555: real time      0.0555
    SETDIJ:  cpu time      0.0018: real time      0.0018
    TRIAL :  cpu time      1.6689: real time      1.6696
    CORREC:  cpu time      0.7767: real time      0.7767
    CHARGE:  cpu time      0.2418: real time      0.2424
    --------------------------------------------
      LOOP:  cpu time      2.7602: real time      2.7748

 eigenvalue-minimisations  :     0
 total energy-change (2. order) :-0.5101925E+00  (-0.1696591E+00)
 number of electron     180.0000000 magnetization 
 augmentation part       -0.7552051 magnetization 

 Free energy of the ion-electron system (eV)
  ---------------------------------------------------
  alpha Z        PSCENC =       171.08921574
  Ewald energy   TEWEN  =     -3544.07936003
  -Hartree energ DENC   =     -3811.91078891
  -exchange      EXHF   =         0.00000000
  -V(xc)+E(xc)   XCENC  =       498.88706151
  PAW double counting   =     79172.38553028   -79057.73161617
  entropy T*S    EENTRO =        -0.00000000
  eigenvalues    EBANDS =     -1436.92826506
  atomic energy  EATOM  =      7635.26157172
  ---------------------------------------------------
  free energy    TOTEN  =      -373.02665092 eV

  energy without entropy =     -373.02665092  energy(sigma->0) =     -373.02665092


--------------------------------------------------------------------------------------------------------




--------------------------------------- Iteration      1(  10)  ---------------------------------------


    POTLOK:  cpu time      0.0554: real time      0.0554
    SETDIJ:  cpu time      0.0024: real time      0.0024
    TRIAL :  cpu time      1.6725: real time      1.6730
    CORREC:  cpu time      0.7762: real time      0.7767
    CHARGE:  cpu time      0.2435: real time      0.2435
    --------------------------------------------
      LOOP:  cpu time      2.7799: real time      2.7810

 eigenvalue-minimisations  :     0
 total energy-change (2. order) :-0.1689397E+00  (-0.5346985E-01)
 number of electron     180.0000000 magnetization 
 augmentation part       -0.7549657 magnetization 

 Free energy of the ion-electron system (eV)
  ---------------------------------------------------
  alpha Z        PSCENC =       171.08921574
  Ewald energy   TEWEN  =     -3544.07936003
  -Hartree energ DENC   =     -3801.47609738
  -exchange      EXHF   =         0.00000000
  -V(xc)+E(xc)   XCENC  =       498.49662502
  PAW double counting   =     78225.30061073   -78110.63248463
  entropy T*S    EENTRO =        -0.00000000
  eigenvalues    EBANDS =     -1447.15567178
  atomic energy  EATOM  =      7635.26157172
  ---------------------------------------------------
  free energy    TOTEN  =      -373.19559060 eV

  energy without entropy =     -373.19559060  energy(sigma->0) =     -373.19559060


--------------------------------------------------------------------------------------------------------




--------------------------------------- Iteration      1(  11)  ---------------------------------------


    POTLOK:  cpu time      0.0551: real time      0.0551
    SETDIJ:  cpu time      0.0027: real time      0.0027
    TRIAL :  cpu time      1.6668: real time      1.6685
    CORREC:  cpu time      0.7805: real time      0.7811
    CHARGE:  cpu time      0.2422: real time      0.2423
    --------------------------------------------
      LOOP:  cpu time      2.7777: real time      2.7803

 eigenvalue-minimisations  :     0
 total energy-change (2. order) :-0.5336392E-01  (-0.1287880E-01)
 number of electron     180.0000000 magnetization 
 augmentation part       -0.7554784 magnetization 

 Free energy of the ion-electron system (eV)
  ---------------------------------------------------
  alpha Z        PSCENC =       171.08921574
  Ewald energy   TEWEN  =     -3544.07936003
  -Hartree energ DENC   =     -3801.39345740
  -exchange      EXHF   =         0.00000000
  -V(xc)+E(xc)   XCENC  =       498.47057074
  PAW double counting   =     77526.20232926   -77411.57277697
  entropy T*S    EENTRO =        -0.00000000
  eigenvalues    EBANDS =     -1447.22704759
  atomic energy  EATOM  =      7635.26157172
  ---------------------------------------------------
  free energy    TOTEN  =      -373.24895452 eV

  energy without entropy =     -373.24895452  energy(sigma->0) =     -373.24895452


--------------------------------------------------------------------------------------------------------




--------------------------------------- Iteration      1(  12)  ---------------------------------------


    POTLOK:  cpu time      0.0547: real time      0.0547
    SETDIJ:  cpu time      0.0025: real time      0.0025
    TRIAL :  cpu time      1.6771: real time      1.6778
    CORREC:  cpu time      0.8048: real time      0.8054
    CHARGE:  cpu time      0.2515: real time      0.2515
    --------------------------------------------
      LOOP:  cpu time      2.8034: real time      2.8216

 eigenvalue-minimisations  :     0
 total energy-change (2. order) :-0.1286434E-01  (-0.3115002E-02)
 number of electron     180.0000000 magnetization 
 augmentation part       -0.7569884 magnetization 

 Free energy of the ion-electron system (eV)
  ---------------------------------------------------
  alpha Z        PSCENC =       171.08921574
  Ewald energy   TEWEN  =     -3544.07936003
  -Hartree energ DENC   =     -3800.42623533
  -exchange      EXHF   =         0.00000000
  -V(xc)+E(xc)   XCENC  =       498.37632044
  PAW double counting   =     77502.12826040   -77387.50104509
  entropy T*S    EENTRO =        -0.00000000
  eigenvalues    EBANDS =     -1448.11054671
  atomic energy  EATOM  =      7635.26157172
  ---------------------------------------------------
  free energy    TOTEN  =      -373.26181886 eV

  energy without entropy =     -373.26181886  energy(sigma->0) =     -373.26181886


--------------------------------------------------------------------------------------------------------




--------------------------------------- Iteration      1(  13)  ---------------------------------------


    POTLOK:  cpu time      0.0553: real time      0.0553
    SETDIJ:  cpu time      0.0022: real time      0.0022
    TRIAL :  cpu time      1.6700: real time      1.6707
    CORREC:  cpu time      0.7747: real time      0.7753
    CHARGE:  cpu time      0.2443: real time      0.2443
    --------------------------------------------
      LOOP:  cpu time      2.7596: real time      2.7765

 eigenvalue-minimisations  :     0
 total energy-change (2. order) :-0.3109594E-02  (-0.7411478E-03)
 number of electron     180.0000000 magnetization 
 augmentation part       -0.7576844 magnetization 

 Free energy of the ion-electron system (eV)
  ---------------------------------------------------
  alpha Z        PSCENC =       171.08921574
  Ewald energy   TEWEN  =     -3544.07936003
  -Hartree energ DENC   =     -3800.13895861
  -exchange      EXHF   =         0.00000000
  -V(xc)+E(xc)   XCENC  =       498.35770553
  PAW double counting   =     77593.34400238   -77478.71372864
  entropy T*S    EENTRO =        -0.00000000
  eigenvalues    EBANDS =     -1448.38537655
  atomic energy  EATOM  =      7635.26157172
  ---------------------------------------------------
  free energy    TOTEN  =      -373.26492845 eV

  energy without entropy =     -373.26492845  energy(sigma->0) =     -373.26492845


--------------------------------------------------------------------------------------------------------




--------------------------------------- Iteration      1(  14)  ---------------------------------------


    POTLOK:  cpu time      0.0542: real time      0.0542
    SETDIJ:  cpu time      0.0034: real time      0.0034
    TRIAL :  cpu time      1.6966: real time      1.6973
    CORREC:  cpu time      0.7747: real time      0.7747
    CHARGE:  cpu time      0.2419: real time      0.2422
    --------------------------------------------
      LOOP:  cpu time      2.7877: real time      2.8011

 eigenvalue-minimisations  :     0
 total energy-change (2. order) :-0.7379540E-03  (-0.1884366E-03)
 number of electron     180.0000000 magnetization 
 augmentation part       -0.7578636 magnetization 

 Free energy of the ion-electron system (eV)
  ---------------------------------------------------
  alpha Z        PSCENC =       171.08921574
  Ewald energy   TEWEN  =     -3544.07936003
  -Hartree energ DENC   =     -3800.37873462
  -exchange      EXHF   =         0.00000000
  -V(xc)+E(xc)   XCENC  =       498.36738374
  PAW double counting   =     77617.40368456   -77502.77319373
  entropy T*S    EENTRO =        -0.00000000
  eigenvalues    EBANDS =     -1448.15623378
  atomic energy  EATOM  =      7635.26157172
  ---------------------------------------------------
  free energy    TOTEN  =      -373.26566641 eV

  energy without entropy =     -373.26566641  energy(sigma->0) =     -373.26566641


--------------------------------------------------------------------------------------------------------




--------------------------------------- Iteration      1(  15)  ---------------------------------------


    POTLOK:  cpu time      0.0551: real time      0.0551
    SETDIJ:  cpu time      0.0016: real time      0.0016
    TRIAL :  cpu time      1.6693: real time      1.6697
    CORREC:  cpu time      0.7802: real time      0.7808
    CHARGE:  cpu time      0.2427: real time      0.2427
    --------------------------------------------
      LOOP:  cpu time      2.7790: real time      2.7802

 eigenvalue-minimisations  :     0
 total energy-change (2. order) :-0.1885335E-03  (-0.6115168E-04)
 number of electron     180.0000000 magnetization 
 augmentation part       -0.7579945 magnetization 

 Free energy of the ion-electron system (eV)
  ---------------------------------------------------
  alpha Z        PSCENC =       171.08921574
  Ewald energy   TEWEN  =     -3544.07936003
  -Hartree energ DENC   =     -3800.28449758
  -exchange      EXHF   =         0.00000000
  -V(xc)+E(xc)   XCENC  =       498.36028724
  PAW double counting   =     77601.41630535   -77486.78508117
  entropy T*S    EENTRO =        -0.00000000
  eigenvalues    EBANDS =     -1448.24429621
  atomic energy  EATOM  =      7635.26157172
  ---------------------------------------------------
  free energy    TOTEN  =      -373.26585494 eV

  energy without entropy =     -373.26585494  energy(sigma->0) =     -373.26585494


--------------------------------------------------------------------------------------------------------




--------------------------------------- Iteration      1(  16)  ---------------------------------------


    POTLOK:  cpu time      0.0548: real time      0.0548
    SETDIJ:  cpu time      0.0029: real time      0.0029
    TRIAL :  cpu time      1.6699: real time      1.6708
    CORREC:  cpu time      0.7756: real time      0.7762
    CHARGE:  cpu time      0.2419: real time      0.2419
    --------------------------------------------
      LOOP:  cpu time      2.7600: real time      2.7767

 eigenvalue-minimisations  :     0
 total energy-change (2. order) :-0.6030276E-04  (-0.2010310E-04)
 number of electron     180.0000000 magnetization 
 augmentation part       -0.7581642 magnetization 

 Free energy of the ion-electron system (eV)
  ---------------------------------------------------
  alpha Z        PSCENC =       171.08921574
  Ewald energy   TEWEN  =     -3544.07936003
  -Hartree energ DENC   =     -3800.42481529
  -exchange      EXHF   =         0.00000000
  -V(xc)+E(xc)   XCENC  =       498.36785604
  PAW double counting   =     77584.53156851   -77469.90109756
  entropy T*S    EENTRO =        -0.00000000
  eigenvalues    EBANDS =     -1448.11085438
  atomic energy  EATOM  =      7635.26157172
  ---------------------------------------------------
  free energy    TOTEN  =      -373.26591524 eV

  energy without entropy =     -373.26591524  energy(sigma->0) =     -373.26591524


--------------------------------------------------------------------------------------------------------




--------------------------------------- Iteration      1(  17)  ---------------------------------------


    POTLOK:  cpu time      0.0547: real time      0.0547
    SETDIJ:  cpu time      0.0039: real time      0.0039
    TRIAL :  cpu time      1.6677: real time      1.6683
    CORREC:  cpu time      0.7757: real time      0.7763
    CHARGE:  cpu time      0.2418: real time      0.2418
    --------------------------------------------
      LOOP:  cpu time      2.7581: real time      2.7750

 eigenvalue-minimisations  :     0
 total energy-change (2. order) :-0.1958363E-04  (-0.6251308E-05)
 number of electron     180.0000000 magnetization 
 augmentation part       -0.7582352 magnetization 

 Free energy of the ion-electron system (eV)
  ---------------------------------------------------
  alpha Z        PSCENC =       171.08921574
  Ewald energy   TEWEN  =     -3544.07936003
  -Hartree energ DENC   =     -3800.40149142
  -exchange      EXHF   =         0.00000000
  -V(xc)+E(xc)   XCENC  =       498.36710113
  PAW double counting   =     77591.04591077   -77476.41470720
  entropy T*S    EENTRO =        -0.00000000
  eigenvalues    EBANDS =     -1448.13417554
  atomic energy  EATOM  =      7635.26157172
  ---------------------------------------------------
  free energy    TOTEN  =      -373.26593483 eV

  energy without entropy =     -373.26593483  energy(sigma->0) =     -373.26593483


--------------------------------------------------------------------------------------------------------




--------------------------------------- Iteration      1(  18)  ---------------------------------------


    POTLOK:  cpu time      0.0547: real time      0.0547
    SETDIJ:  cpu time      0.0032: real time      0.0032
    TRIAL :  cpu time      1.6810: real time      1.6818
    CORREC:  cpu time      0.7747: real time      0.7747
    CHARGE:  cpu time      0.2420: real time      0.2424
    --------------------------------------------
      LOOP:  cpu time      2.7844: real time      2.7858

 eigenvalue-minimisations  :     0
 total energy-change (2. order) :-0.5889480E-05  (-0.1452986E-05)
 number of electron     180.0000000 magnetization 
 augmentation part       -0.7582552 magnetization 

 Free energy of the ion-electron system (eV)
  ---------------------------------------------------
  alpha Z        PSCENC =       171.08921574
  Ewald energy   TEWEN  =     -3544.07936003
  -Hartree energ DENC   =     -3800.44565263
  -exchange      EXHF   =         0.00000000
  -V(xc)+E(xc)   XCENC  =       498.36928789
  PAW double counting   =     77598.60823342   -77483.97693952
  entropy T*S    EENTRO =        -0.00000000
  eigenvalues    EBANDS =     -1448.09229730
  atomic energy  EATOM  =      7635.26157172
  ---------------------------------------------------
  free energy    TOTEN  =      -373.26594072 eV

  energy without entropy =     -373.26594072  energy(sigma->0) =     -373.26594072


--------------------------------------------------------------------------------------------------------




--------------------------------------- Iteration      1(  19)  ---------------------------------------


    POTLOK:  cpu time      0.0547: real time      0.0547
    SETDIJ:  cpu time      0.0027: real time      0.0027
    TRIAL :  cpu time      1.6968: real time      1.6972
    CORREC:  cpu time      0.7755: real time      0.7760
    CHARGE:  cpu time      0.2417: real time      0.2422
    --------------------------------------------
      LOOP:  cpu time      2.7835: real time      2.8024

 eigenvalue-minimisations  :     0
 total energy-change (2. order) :-0.1456530E-05  (-0.4661148E-06)
 number of electron     180.0000000 magnetization 
 augmentation part       -0.7582457 magnetization 

 Free energy of the ion-electron system (eV)
  ---------------------------------------------------
  alpha Z        PSCENC =       171.08921574
  Ewald energy   TEWEN  =     -3544.07936003
  -Hartree energ DENC   =     -3800.41508479
  -exchange      EXHF   =         0.00000000
  -V(xc)+E(xc)   XCENC  =       498.36801225
  PAW double counting   =     77600.81182841   -77486.18034871
  entropy T*S    EENTRO =        -0.00000000
  eigenvalues    EBANDS =     -1448.12177677
  atomic energy  EATOM  =      7635.26157172
  ---------------------------------------------------
  free energy    TOTEN  =      -373.26594217 eV

  energy without entropy =     -373.26594217  energy(sigma->0) =     -373.26594217


--------------------------------------------------------------------------------------------------------




--------------------------------------- Iteration      1(  20)  ---------------------------------------


    POTLOK:  cpu time      0.0545: real time      0.0545
    SETDIJ:  cpu time      0.0023: real time      0.0023
    TRIAL :  cpu time      1.6705: real time      1.6710
    CORREC:  cpu time      0.7752: real time      0.7757
    CHARGE:  cpu time      0.2414: real time      0.2415
    --------------------------------------------
      LOOP:  cpu time      2.7625: real time      2.7742

 eigenvalue-minimisations  :     0
 total energy-change (2. order) :-0.4348112E-06  (-0.7836017E-07)
 number of electron     180.0000000 magnetization 
 augmentation part       -0.7582451 magnetization 

 Free energy of the ion-electron system (eV)
  ---------------------------------------------------
  alpha Z        PSCENC =       171.08921574
  Ewald energy   TEWEN  =     -3544.07936003
  -Hartree energ DENC   =     -3800.43057201
  -exchange      EXHF   =         0.00000000
  -V(xc)+E(xc)   XCENC  =       498.36884370
  PAW double counting   =     77599.48608320   -77484.85477053
  entropy T*S    EENTRO =        -0.00000000
  eigenvalues    EBANDS =     -1448.10695440
  atomic energy  EATOM  =      7635.26157172
  ---------------------------------------------------
  free energy    TOTEN  =      -373.26594261 eV

  energy without entropy =     -373.26594261  energy(sigma->0) =     -373.26594261


--------------------------------------------------------------------------------------------------------




--------------------------------------- Iteration      1(  21)  ---------------------------------------


    POTLOK:  cpu time      0.0550: real time      0.0550
    SETDIJ:  cpu time      0.0026: real time      0.0026
    TRIAL :  cpu time      1.6675: real time      1.6687
    CORREC:  cpu time      0.7758: real time      0.7765
    EDDIAG:  cpu time      0.5112: real time      0.5125
    CHARGE:  cpu time      0.2417: real time      0.2420
    --------------------------------------------
      LOOP:  cpu time      3.2847: real time      3.2886

 eigenvalue-minimisations  :     0
 total energy-change (2. order) :-0.7341441E-07  (-0.3212023E-07)
 number of electron     180.0000000 magnetization 
 augmentation part       -0.7582450 magnetization 

 Free energy of the ion-electron system (eV)
  ---------------------------------------------------
  alpha Z        PSCENC =       171.08921574
  Ewald energy   TEWEN  =     -3544.07936003
  -Hartree energ DENC   =     -3800.42311201
  -exchange      EXHF   =         0.00000000
  -V(xc)+E(xc)   XCENC  =       498.36844767
  PAW double counting   =     77599.21372555   -77484.58238209
  entropy T*S    EENTRO =        -0.00000000
  eigenvalues    EBANDS =     -1448.11404923
  atomic energy  EATOM  =      7635.26157172
  ---------------------------------------------------
  free energy    TOTEN  =      -373.26594268 eV

  energy without entropy =     -373.26594268  energy(sigma->0) =     -373.26594268


--------------------------------------------------------------------------------------------------------


  average scaling for gradient   0.7544


 average (electrostatic) potential at core
  the test charge radii are     0.5770  0.4325  0.5902
  (the norm of the test charge is              1.0000)
       1 -82.7257       2 -82.7257       3 -82.7257       4 -82.7257       5 -82.7257
       6 -82.7257       7 -82.7261       8 -82.7261       9 -82.7261      10 -82.7261
      11 -82.7261      12 -82.7261      13 -82.7261      14 -82.7261      15 -82.7261
      16 -82.7261      17 -82.7261      18 -82.7261      19 -39.8710      20 -39.8710
      21 -39.8710      22 -39.8711      23 -39.8711      24 -39.8710      25 -39.8721
      26 -39.8721      27 -39.8721      28 -39.8721      29 -39.8721      30 -39.8721
      31 -39.8721      32 -39.8721      33 -39.8721      34 -39.8722      35 -39.8721
      36 -39.8721      37 -98.6029      38 -98.6029      39 -98.6029      40 -98.6029
      41 -98.6029      42 -98.6029      43 -98.6032      44 -98.6032      45 -98.6032
      46 -98.6032      47 -98.6032      48 -98.6033      49 -98.6032      50 -98.6032
      51 -98.6032      52 -98.6032      53 -98.6032      54 -98.6032



 E-fermi :  -0.5751     XC(G=0):  -8.0084     alpha+bet : -6.9123

 Fermi energy:        -0.5751135511

 k-point     1 :       0.0000    0.0000    0.0000
  band No.  band energies     occupation 
      1     -20.3125      2.00000
      2     -20.2677      2.00000
      3     -20.2676      2.00000
      4     -20.2143      2.00000
      5     -20.2142      2.00000
      6     -20.1862      2.00000
      7     -17.1571      2.00000
      8     -17.1571      2.00000
      9     -17.1569      2.00000
     10     -17.1569      2.00000
     11     -17.1015      2.00000
     12     -17.1015      2.00000
     13     -17.0833      2.00000
     14     -17.0832      2.00000
     15     -17.0547      2.00000
     16     -17.0547      2.00000
     17     -17.0545      2.00000
     18     -17.0545      2.00000
     19     -11.6318      2.00000
     20     -11.6318      2.00000
     21     -11.5834      2.00000
     22     -11.5834      2.00000
     23     -11.5832      2.00000
     24     -11.5832      2.00000
     25     -11.5164      2.00000
     26     -11.5164      2.00000
     27     -11.5164      2.00000
     28     -11.5164      2.00000
     29     -11.4583      2.00000
     30     -11.4583      2.00000
     31      -8.5195      2.00000
     32      -8.2579      2.00000
     33      -8.2577      2.00000
     34      -8.2042      2.00000
     35      -8.1750      2.00000
     36      -8.1744      2.00000
     37      -8.0691      2.00000
     38      -7.9774      2.00000
     39      -7.9764      2.00000
     40      -7.7211      2.00000
     41      -7.6747      2.00000
     42      -7.6747      2.00000
     43      -6.2788      2.00000
     44      -6.2786      2.00000
     45      -6.2462      2.00000
     46      -5.3931      2.00000
     47      -5.3930      2.00000
     48      -5.3481      2.00000
     49      -5.2570      2.00000
     50      -5.2570      2.00000
     51      -5.2566      2.00000
     52      -5.2566      2.00000
     53      -5.0956      2.00000
     54      -5.0956      2.00000
     55      -4.9014      2.00000
     56      -4.9014      2.00000
     57      -4.9010      2.00000
     58      -4.9010      2.00000
     59      -4.6966      2.00000
     60      -4.6966      2.00000
     61      -4.1204      2.00000
     62      -3.7296      2.00000
     63      -3.7292      2.00000
     64      -3.3294      2.00000
     65      -3.3294      2.00000
     66      -3.3216      2.00000
     67      -3.3215      2.00000
     68      -3.2181      2.00000
     69      -3.2181      2.00000
     70      -3.2179      2.00000
     71      -3.2179      2.00000
     72      -3.1593      2.00000
     73      -2.5557      2.00000
     74      -2.5557      2.00000
     75      -2.4971      2.00000
     76      -2.4971      2.00000
     77      -2.4969      2.00000
[...]
     98       2.9805      0.00000
     99       3.0024      0.00000
    100       3.0057      0.00000
    101       3.0217      0.00000
    102       3.0427      0.00000
    103       6.4221      0.00000
    104       6.4228      0.00000
    105       6.6392      0.00000
    106       6.6542      0.00000
    107       6.7063      0.00000
    108       6.7078      0.00000
    109       7.1593      0.00000
    110       7.1718      0.00000
    111       7.4776      0.00000
    112       7.5677      0.00000
    113       7.6423      0.00000
    114       7.7509      0.00000
    115       7.8937      0.00000
    116       7.9144      0.00000
    117       8.1610      0.00000
    118       8.2075      0.00000
    119       8.4299      0.00000
    120       8.5402      0.00000

 k-point    19 :       0.3333    0.3333    0.5000
  band No.  band energies     occupation 
      1     -20.2443      2.00000
      2     -20.2443      2.00000
      3     -20.2443      2.00000
      4     -20.2443      2.00000
      5     -20.2441      2.00000
      6     -20.2441      2.00000
      7     -17.1265      2.00000
      8     -17.1265      2.00000
      9     -17.1264      2.00000
     10     -17.1263      2.00000
     11     -17.1263      2.00000
     12     -17.1263      2.00000
     13     -17.0763      2.00000
     14     -17.0763      2.00000
     15     -17.0762      2.00000
     16     -17.0762      2.00000
     17     -17.0762      2.00000
     18     -17.0762      2.00000
     19     -11.6170      2.00000
     20     -11.6170      2.00000
     21     -11.6166      2.00000
     22     -11.6166      2.00000
     23     -11.6166      2.00000
     24     -11.6166      2.00000
     25     -11.4840      2.00000
     26     -11.4840      2.00000
     27     -11.4838      2.00000
     28     -11.4838      2.00000
     29     -11.4838      2.00000
     30     -11.4838      2.00000
     31      -8.1524      2.00000
     32      -8.1524      2.00000
     33      -8.1524      2.00000
     34      -8.1524      2.00000
     35      -8.1520      2.00000
     36      -8.1520      2.00000
     37      -7.9774      2.00000
     38      -7.9774      2.00000
     39      -7.9774      2.00000
     40      -7.9774      2.00000
     41      -7.9766      2.00000
     42      -7.9766      2.00000
     43      -5.8827      2.00000
     44      -5.8827      2.00000
     45      -5.8827      2.00000
     46      -5.8827      2.00000
     47      -5.8824      2.00000
     48      -5.8824      2.00000
     49      -5.2045      2.00000
     50      -5.2045      2.00000
     51      -5.2041      2.00000
     52      -5.2041      2.00000
     53      -5.2041      2.00000
     54      -5.2041      2.00000
     55      -4.7890      2.00000
     56      -4.7890      2.00000
     57      -4.7887      2.00000
     58      -4.7887      2.00000
     59      -4.7887      2.00000
     60      -4.7887      2.00000
     61      -3.5403      2.00000
     62      -3.5403      2.00000
     63      -3.5403      2.00000
     64      -3.5403      2.00000
     65      -3.5400      2.00000
     66      -3.5400      2.00000
     67      -2.9336      2.00000
     68      -2.9336      2.00000
     69      -2.9335      2.00000
     70      -2.9335      2.00000
     71      -2.9335      2.00000
     72      -2.9335      2.00000
     73      -2.8627      2.00000
     74      -2.8627      2.00000
     75      -2.8625      2.00000
     76      -2.8625      2.00000
     77      -2.8625      2.00000
     78      -2.8625      2.00000
     79      -1.1380      2.00000
     80      -1.1380      2.00000
     81      -1.1379      2.00000
     82      -1.1379      2.00000
     83      -1.1379      2.00000
     84      -1.1379      2.00000
     85      -0.6832      2.00000
     86      -0.6832      2.00000
     87      -0.6832      2.00000
     88      -0.6832      2.00000
     89      -0.6832      2.00000
     90      -0.6832      2.00000
     91       2.8479      0.00000
     92       2.8479      0.00000
     93       2.8482      0.00000
     94       2.8482      0.00000
     95       2.8482      0.00000
     96       2.8482      0.00000
     97       3.0206      0.00000
     98       3.0206      0.00000
     99       3.0209      0.00000
    100       3.0209      0.00000
    101       3.0209      0.00000
    102       3.0209      0.00000
    103       6.6551      0.00000
    104       6.6553      0.00000
    105       6.6557      0.00000
    106       6.6560      0.00000
    107       6.6562      0.00000
    108       6.6573      0.00000
    109       7.3624      0.00000
    110       7.3631      0.00000
    111       7.3634      0.00000
    112       7.3651      0.00000
    113       7.3657      0.00000
    114       7.3738      0.00000
    115       8.0618      0.00000
    116       8.0704      0.00000
    117       8.0801      0.00000
    118       8.0940      0.00000
    119       8.1752      0.00000
    120       8.6016      0.00000


--------------------------------------------------------------------------------------------------------


 soft charge-density along one line, spin component           1
         0         1         2         3         4         5         6         7         8         9
 total charge-density along one line

 pseudopotential strength for first ion, spin component:           1
 12.590  21.184  -0.009  -0.000   0.005  -0.015  -0.000   0.009
 21.184  35.643  -0.015  -0.000   0.008  -0.026  -0.000   0.015
 -0.009  -0.015  -3.128  -0.000  -0.001  -5.603  -0.000  -0.002
 -0.000  -0.000  -0.000  -3.131  -0.000  -0.000  -5.609  -0.000
  0.005   0.008  -0.001  -0.000  -3.129  -0.002  -0.000  -5.605
 -0.015  -0.026  -5.603  -0.000  -0.002 -10.015  -0.000  -0.003
 -0.000  -0.000  -0.000  -5.609  -0.000  -0.000 -10.024  -0.000
  0.009   0.015  -0.002  -0.000  -5.605  -0.003  -0.000 -10.019
 total augmentation occupancy for first ion, spin component:           1
  7.895  -2.821  -1.056   0.000   0.610   0.508  -0.000  -0.293
 -2.821   1.083   0.572  -0.000  -0.330  -0.257   0.000   0.148
 -1.056   0.572   6.925  -0.001   0.783  -2.309   0.000  -0.396
  0.000  -0.000  -0.001   2.778  -0.001   0.000  -0.735   0.000
  0.610  -0.330   0.783  -0.001   7.829  -0.396   0.000  -2.766
  0.508  -0.257  -2.309   0.000  -0.396   0.792  -0.000   0.183
 -0.000   0.000   0.000  -0.735   0.000  -0.000   0.198  -0.000
 -0.293   0.148  -0.396   0.000  -2.766   0.183  -0.000   1.003


------------------------ aborting loop because EDIFF is reached ----------------------------------------


    FORLOC:  cpu time      0.0158: real time      0.0158
    FORNL :  cpu time      1.6364: real time      1.6372
    FORCOR:  cpu time      0.0614: real time      0.0615
    OFIELD:  cpu time      0.0018: real time      0.0018

 VOLUME and BASIS-vectors are now :
 -----------------------------------------------------------------------------
  energy-cutoff  :     1000.00
  volume of cell :      586.82
      direct lattice vectors                 reciprocal lattice vectors
     9.647000000  0.000000000  0.000000000     0.103659169  0.059847628 -0.000000000
    -4.823500000  8.354550000  0.000000000     0.000000000  0.119695256  0.000000000
     0.000000000  0.000000000  7.281000000     0.000000000 -0.000000000  0.137343771

  length of vectors
     9.647000000  9.647002537  7.281000000     0.119695287  0.119695256  0.137343771


 FORCES acting on ions:
    Electron-Ion                     Ewald-Force                    Non-Local-Force
 -----------------------------------------------------------------------------------------------
   0.753E+02 -.130E+03 0.838E-04   -.781E+02 0.135E+03 -.260E-04   0.289E+01 -.501E+01 0.161E-05
   -.753E+02 0.130E+03 0.489E-04   0.781E+02 -.135E+03 0.565E-05   -.289E+01 0.501E+01 -.161E-05
   0.753E+02 0.130E+03 0.774E-04   -.781E+02 -.135E+03 -.111E-03   0.289E+01 0.501E+01 -.335E-07
   -.753E+02 -.130E+03 -.173E-03   0.781E+02 0.135E+03 0.128E-03   -.289E+01 -.501E+01 0.335E-07
   -.151E+03 0.199E-03 0.535E-04   0.156E+03 -.155E-03 0.685E-04   -.578E+01 -.213E-04 -.178E-05
   0.151E+03 -.205E-03 0.235E-03   -.156E+03 0.246E-03 -.109E-03   0.578E+01 0.213E-04 0.178E-05
   0.753E+02 -.130E+03 0.154E-01   -.781E+02 0.135E+03 -.145E-01   0.289E+01 -.501E+01 0.320E-03
   -.752E+02 0.130E+03 0.154E-01   0.780E+02 -.135E+03 -.146E-01   -.289E+01 0.501E+01 0.315E-03
   0.752E+02 0.130E+03 0.156E-01   -.780E+02 -.135E+03 -.146E-01   0.289E+01 0.501E+01 0.318E-03
   -.753E+02 -.130E+03 0.152E-01   0.781E+02 0.135E+03 -.145E-01   -.289E+01 -.501E+01 0.318E-03
   -.151E+03 -.587E-01 0.154E-01   0.156E+03 0.591E-01 -.145E-01   -.578E+01 0.118E-03 0.315E-03
   0.151E+03 -.591E-01 0.154E-01   -.156E+03 0.595E-01 -.146E-01   0.578E+01 0.167E-03 0.318E-03
   0.752E+02 -.130E+03 -.154E-01   -.780E+02 0.135E+03 0.145E-01   0.289E+01 -.501E+01 -.315E-03
   -.753E+02 0.130E+03 -.153E-01   0.781E+02 -.135E+03 0.146E-01   -.289E+01 0.501E+01 -.320E-03
   0.753E+02 0.130E+03 -.156E-01   -.781E+02 -.135E+03 0.146E-01   0.289E+01 0.501E+01 -.318E-03
   -.752E+02 -.130E+03 -.152E-01   0.780E+02 0.135E+03 0.145E-01   -.289E+01 -.501E+01 -.318E-03
   -.151E+03 0.591E-01 -.155E-01   0.156E+03 -.596E-01 0.146E-01   -.578E+01 -.167E-03 -.318E-03
   0.151E+03 0.587E-01 -.153E-01   -.156E+03 -.591E-01 0.146E-01   0.578E+01 -.118E-03 -.315E-03
   0.265E+02 -.459E+02 -.138E-04   -.296E+02 0.512E+02 0.197E-04   0.306E+01 -.529E+01 -.114E-05
   -.265E+02 0.459E+02 0.148E-04   0.296E+02 -.512E+02 -.100E-04   -.306E+01 0.529E+01 0.114E-05
   0.265E+02 0.459E+02 -.170E-04   -.296E+02 -.512E+02 0.891E-05   0.306E+01 0.529E+01 -.242E-05
   -.265E+02 -.459E+02 0.445E-05   0.296E+02 0.512E+02 -.130E-04   -.306E+01 -.529E+01 0.242E-05
   -.530E+02 0.309E-04 0.171E-04   0.591E+02 -.356E-04 -.245E-05   -.611E+01 0.112E-05 0.197E-05
   0.530E+02 -.302E-04 -.355E-05   -.591E+02 0.337E-04 0.177E-04   0.611E+01 -.112E-05 -.197E-05
   0.265E+02 -.459E+02 -.428E-02   -.296E+02 0.512E+02 0.462E-02   0.306E+01 -.530E+01 -.544E-03
   -.265E+02 0.459E+02 -.427E-02   0.296E+02 -.512E+02 0.459E-02   -.306E+01 0.530E+01 -.543E-03
   0.265E+02 0.459E+02 -.425E-02   -.296E+02 -.512E+02 0.461E-02   0.306E+01 0.530E+01 -.544E-03
   -.265E+02 -.459E+02 -.430E-02   0.296E+02 0.512E+02 0.461E-02   -.306E+01 -.530E+01 -.544E-03
   -.530E+02 -.137E-02 -.427E-02   0.591E+02 0.226E-02 0.461E-02   -.611E+01 0.780E-03 -.544E-03
   0.530E+02 -.140E-02 -.430E-02   -.591E+02 0.231E-02 0.462E-02   0.611E+01 0.776E-03 -.546E-03
   0.265E+02 -.459E+02 0.426E-02   -.296E+02 0.512E+02 -.460E-02   0.306E+01 -.530E+01 0.543E-03
   -.265E+02 0.459E+02 0.429E-02   0.296E+02 -.512E+02 -.462E-02   -.306E+01 0.530E+01 0.544E-03
   0.265E+02 0.459E+02 0.427E-02   -.296E+02 -.512E+02 -.463E-02   0.306E+01 0.530E+01 0.544E-03
   -.265E+02 -.459E+02 0.429E-02   0.296E+02 0.512E+02 -.460E-02   -.306E+01 -.530E+01 0.544E-03
   -.530E+02 0.142E-02 0.428E-02   0.591E+02 -.230E-02 -.463E-02   -.611E+01 -.776E-03 0.546E-03
   0.530E+02 0.135E-02 0.428E-02   -.591E+02 -.225E-02 -.460E-02   0.611E+01 -.780E-03 0.544E-03
   0.197E+03 -.220E-03 -.148E-03   -.234E+03 0.119E-03 0.870E-04   0.369E+02 -.325E-04 -.183E-04
   -.197E+03 0.533E-04 -.259E-04   0.234E+03 -.230E-03 -.655E-04   -.369E+02 0.325E-04 0.183E-04
   -.987E+02 0.171E+03 0.887E-04   0.117E+03 -.203E+03 -.397E-04   -.184E+02 0.319E+02 0.823E-05
   0.987E+02 -.171E+03 0.237E-04   -.117E+03 0.203E+03 0.450E-04   0.184E+02 -.319E+02 -.823E-05
   -.987E+02 -.171E+03 0.177E-03   0.117E+03 0.203E+03 0.545E-04   -.184E+02 -.319E+02 -.173E-05
   0.987E+02 0.171E+03 0.282E-03   -.117E+03 -.203E+03 -.582E-04   0.184E+02 0.319E+02 0.173E-05
   0.197E+03 0.125E-01 -.772E-02   -.234E+03 -.198E-01 0.105E-01   0.369E+02 0.109E-01 -.351E-02
   -.197E+03 0.128E-01 -.807E-02   0.234E+03 -.201E-01 0.104E-01   -.369E+02 0.110E-01 -.350E-02
   -.987E+02 0.171E+03 -.764E-02   0.117E+03 -.203E+03 0.104E-01   -.184E+02 0.319E+02 -.350E-02
   0.987E+02 -.171E+03 -.812E-02   -.117E+03 0.203E+03 0.105E-01   0.184E+02 -.319E+02 -.353E-02
   -.987E+02 -.171E+03 -.783E-02   0.117E+03 0.203E+03 0.105E-01   -.184E+02 -.319E+02 -.351E-02
   0.987E+02 0.171E+03 -.799E-02   -.117E+03 -.203E+03 0.104E-01   0.184E+02 0.319E+02 -.351E-02
   0.197E+03 -.130E-01 0.773E-02   -.234E+03 0.202E-01 -.104E-01   0.369E+02 -.110E-01 0.350E-02
   -.197E+03 -.127E-01 0.817E-02   0.234E+03 0.197E-01 -.105E-01   -.369E+02 -.109E-01 0.351E-02
   -.987E+02 0.171E+03 0.787E-02   0.117E+03 -.203E+03 -.106E-01   -.184E+02 0.319E+02 0.353E-02
   0.987E+02 -.171E+03 0.805E-02   -.117E+03 0.203E+03 -.103E-01   0.184E+02 -.319E+02 0.350E-02
   -.987E+02 -.171E+03 0.777E-02   0.117E+03 0.203E+03 -.104E-01   -.184E+02 -.319E+02 0.351E-02
   0.987E+02 0.171E+03 0.803E-02   -.117E+03 -.203E+03 -.104E-01   0.184E+02 0.319E+02 0.351E-02
 -----------------------------------------------------------------------------------------------
   -.508E-02 -.571E-03 0.120E-02   0.142E-13 -.568E-13 0.971E-16   0.107E-13 0.355E-14 0.173E-17


 POSITION                                       TOTAL-FORCE (eV/Angst)
 -----------------------------------------------------------------------------------
     -0.65236      1.12991      1.82025         0.100650     -0.174394      0.000003
      5.47586      7.22464      5.46075        -0.100650      0.174394     -0.000003
      4.17114      7.22463      1.82025         0.100701      0.174449      0.000006
      0.65236      1.12992      5.46075        -0.100701     -0.174449     -0.000006
      1.30471      0.00000      1.82025        -0.201338     -0.000018     -0.000003
      3.51879      8.35455      5.46075         0.201338      0.000018      0.000003
      4.17094      3.91468      4.24718         0.102122     -0.177753      0.001180
      5.47568      1.65480      0.60668        -0.102842      0.177349      0.001176
      4.17132      1.65480      4.24718         0.102899      0.177378      0.001179
      5.47606      3.91468      0.60668        -0.102179     -0.177795      0.001180
      6.12824      2.78507      4.24718        -0.204995      0.000416      0.001178
      3.51876      2.78507      0.60668         0.204993      0.000475      0.001182
     -0.65218      6.69975      6.67432         0.102842     -0.177349     -0.001176
      0.65256      4.43987      3.03382        -0.102122      0.177753     -0.001180
     -0.65256      4.43987      6.67432         0.102179      0.177795     -0.001180
      0.65218      6.69975      3.03382        -0.102899     -0.177378     -0.001179
      1.30474      5.56948      6.67432        -0.204993     -0.000475     -0.001182
     -1.30474      5.56948      3.03382         0.204995     -0.000416     -0.001178
      8.44845      2.07594      1.82025        -0.007867      0.013630     -0.000001
     -3.62495      6.27861      5.46075         0.007867     -0.013630      0.000001
      3.62495      6.27860      1.82025        -0.007877     -0.013648     -0.000002
      1.19855      2.07595      5.46075         0.007877      0.013648      0.000002
     -2.42641      8.35455      1.82025         0.015717     -0.000003      0.000002
      7.24991      0.00000      5.46075        -0.015717      0.000003     -0.000002
      3.62482      4.86067      4.24727        -0.010391      0.014666     -0.000210
      6.02187      0.70885      0.60677         0.007508     -0.016336     -0.000209
      3.62513      0.70885      4.24727        -0.007520     -0.016355     -0.000210
      6.02218      4.86067      0.60677         0.010406      0.014683     -0.000210
      7.22056      2.78503      4.24727         0.017892      0.001670     -0.000210
      2.42644      2.78503      0.60677        -0.017895      0.001673     -0.000211
     -1.19837      7.64570      6.67423        -0.007508      0.016336      0.000209
      1.19868      3.49388      3.03373         0.010391     -0.014666      0.000210
     -1.19868      3.49388      6.67423        -0.010406     -0.014683      0.000210
      1.19838      7.64570      3.03373         0.007520      0.016355      0.000210
      2.39706      5.56952      6.67423         0.017895     -0.001673      0.000211
     -2.39706      5.56952      3.03373        -0.017892     -0.001670      0.000210
      3.44795      8.35455      1.82025        -0.007339      0.000006     -0.000003
      1.37555      0.00000      5.46075         0.007339     -0.000006      0.000003
     -4.13572      7.16329      1.82025         0.003683     -0.006388     -0.000002
     -0.68777      1.19126      5.46075        -0.003683      0.006388      0.000002
      0.68778      1.19126      1.82025         0.003663      0.006377      0.000002
      4.13572      7.16329      5.46075        -0.003663     -0.006377     -0.000002
      3.44796      2.78456      4.24724        -0.007649      0.003586     -0.000932
      6.19904      2.78456      0.60673         0.007657      0.003567     -0.000935
      5.51152      1.59374      4.24723         0.000758     -0.008394     -0.000934
      4.13598      3.97625      0.60674        -0.006904      0.004845     -0.000937
      5.51102      3.97625      4.24724         0.006916      0.004844     -0.000933
      4.13548      1.59374      0.60673        -0.000722     -0.008413     -0.000934
     -1.37554      5.56999      6.67427        -0.007657     -0.003567      0.000935
      1.37554      5.56999      3.03376         0.007649     -0.003586      0.000932
      0.68752      4.37830      6.67426         0.006904     -0.004845      0.000937
     -0.68802      6.76081      3.03377        -0.000758      0.008394      0.000934
      0.68802      6.76081      6.67427         0.000722      0.008413      0.000934
     -0.68752      4.37830      3.03376        -0.006916     -0.004844      0.000933
 -----------------------------------------------------------------------------------
    total drift:                               -0.005079     -0.000571      0.001202


--------------------------------------------------------------------------------------------------------



  FREE ENERGIE OF THE ION-ELECTRON SYSTEM (eV)
  ---------------------------------------------------
  free  energy   TOTEN  =      -373.26594268 eV

  energy  without entropy=     -373.26594268  energy(sigma->0) =     -373.26594268



--------------------------------------------------------------------------------------------------------


    POTLOK:  cpu time      0.0623: real time      0.0624


--------------------------------------------------------------------------------------------------------


 stress matrix after NEB project (eV)
      0.00000      0.00000      0.00000
      0.00000      0.00000      0.00000
      0.00000      0.00000      0.00000
  FORCES: max atom, RMS     0.205068    0.118187
  FORCE total and by dimension    0.868496    0.204995
  Stress total and by dimension    0.000000    0.000000
     LOOP+:  cpu time     75.5473: real time     75.9330
    4ORBIT:  cpu time      0.0000: real time      0.0000

 total amount of memory used by VASP MPI-rank0    81338. kBytes
=======================================================================

   base      :      30000. kBytes
   nonl-proj :       6009. kBytes
   fftplans  :       3024. kBytes
   grid      :       5420. kBytes
   one-center:          6. kBytes
   wavefun   :      36879. kBytes

  
  
 General timing and accounting informations for this job:
 ========================================================
  
                  Total CPU time used (sec):      102.060
                            User time (sec):       97.129
                          System time (sec):        4.930
                         Elapsed time (sec):      105.107
  
                   Maximum memory used (kb):      286896.
                   Average memory used (kb):          N/A
  
                          Minor page faults:       218586
                          Major page faults:          884
                 Voluntary context switches:         3439
