 vasp.6.4.1 05Apr23 (build May 30 2023 08:45:49) gamma-only                      
 executed on        HPECrayEX_GCC date 2024.03.24  22:15:43
 running  512 mpi-ranks, with    1 threads/rank, on    4 nodes
 distrk:  each k-point on  512 cores,    1 groups
 distr:  one band on NCORE=   4 cores,  128 groups


--------------------------------------------------------------------------------------------------------


 INCAR:
   NPAR = 128
   ISMEAR = 0
   SIGMA = 0.01
   ALGO = C
   PREC = Accurate
   EDIFF = 1E-8
   ENCUT = 1000
   ISIF = 1
   IBRION = 1
   GGA = ML
   LUSE_VDW = .TRUE.
   ZAB_VDW = -1.8867
   AGGAC = 0.0000
   LASPH = .TRUE.

 POTCAR:    PAW_PBE C_h 06Feb2004                 
 POTCAR:    PAW_PBE N_h 06Feb2004                 
 POTCAR:    PAW_PBE H_h 06Feb2004                 
 -----------------------------------------------------------------------------
|                                                                             |
|               ----> ADVICE to this user running VASP <----                  |
|                                                                             |
|     You have switched on vdW-DFT.                                           |
|     This routine was written and supplied by Jiri Klimes. We recommend      |
|     that you carefully read and cite the following publications:            |
|       J. Klimes, D.R. Bowler, A. Michelides                                 |
|          J. Phys.: Cond Matt. 22 022201 (2010)                              |
|       J. Klimes, D.R. Bowler, A. Michelides                                 |
|          Phys. Rev. B. 83, 195131 (2011)                                    |
|     and references therein.                                                 |
|                                                                             |
 -----------------------------------------------------------------------------

 POTCAR:    PAW_PBE C_h 06Feb2004                 
   VRHFIN =C: s2p2                                                                                  
   LEXCH  = PE                                                                                      
   EATOM  =   147.1560 eV,   10.8157 Ry                                                             
                                                                                                    
   TITEL  = PAW_PBE C_h 06Feb2004                                                                   
   LULTRA =        F    use ultrasoft PP ?                                                          
   IUNSCR =        1    unscreen: 0-lin 1-nonlin 2-no                                               
   RPACOR =    0.800    partial core radius                                                         
   POMASS =   12.011; ZVAL   =    4.000    mass and valenz                                          
   RCORE  =    1.100    outmost cutoff radius                                                       
   RWIGS  =    1.630; RWIGS  =    0.863    wigner-seitz radius (au A)                               
   ENMAX  =  700.000; ENMIN  =  500.000 eV                                                          
   ICORE  =        2    local potential                                                             
   LCOR   =        T    correct aug charges                                                         
   LPAW   =        T    paw PP                                                                      
   EAUG   =  946.768                                                                                
   DEXC   =    0.000                                                                                
   RMAX   =    1.128    core radius for proj-oper                                                   
   RAUG   =    1.300    factor for augmentation sphere                                              
   RDEP   =    1.162    radius for radial grids                                                     
   RDEPT  =    1.088    core radius for aug-charge                                                  
                                                                                                    
   Atomic configuration                                                                             
    4 entries                                                                                       
     n  l   j            E        occ.                                                              
     1  0  0.50      -273.3789   2.0000                                                             
     2  0  0.50       -13.7508   2.0000                                                             
     2  1  0.50        -5.2854   2.0000                                                             
     3  2  1.50        -5.4423   0.0000                                                             
   Description                                                                                      
     l       E           TYP  RCUT    TYP  RCUT                                                     
     0    -13.7508458     23  1.100                                                                 
     0     -8.2022199     23  1.100                                                                 
     1     -5.2854383     23  1.100                                                                 
     1      1.1560700     23  1.100                                                                 
     2     -5.4423304      7  1.100                                                                 
  local pseudopotential read in
  partial core-charges read in
  partial kinetic energy density read in
  atomic valenz-charges read in
  non local Contribution for L=           0  read in
    real space projection operators read in
  non local Contribution for L=           0  read in
    real space projection operators read in
  non local Contribution for L=           1  read in
    real space projection operators read in
  non local Contribution for L=           1  read in
    real space projection operators read in
    PAW grid and wavefunctions read in

   number of l-projection  operators is LMAX  =           4
   number of lm-projection operators is LMMAX =           8

 POTCAR:    PAW_PBE N_h 06Feb2004                 
   VRHFIN =N: s2p3                                                                                  
   LEXCH  = PE                                                                                      
   EATOM  =   264.5486 eV,   19.4438 Ry                                                             
                                                                                                    
   TITEL  = PAW_PBE N_h 06Feb2004                                                                   
   LULTRA =        F    use ultrasoft PP ?                                                          
   IUNSCR =        1    unscreen: 0-lin 1-nonlin 2-no                                               
   RPACOR =    0.800    partial core radius                                                         
   POMASS =   14.001; ZVAL   =    5.000    mass and valenz                                          
   RCORE  =    1.100    outmost cutoff radius                                                       
   RWIGS  =    1.480; RWIGS  =    0.783    wigner-seitz radius (au A)                               
   ENMAX  =  700.000; ENMIN  =  500.000 eV                                                          
   ICORE  =        2    local potential                                                             
   LCOR   =        T    correct aug charges                                                         
   LPAW   =        T    paw PP                                                                      
   EAUG   =  904.640                                                                                
   DEXC   =    0.000                                                                                
   RMAX   =    1.127    core radius for proj-oper                                                   
   RAUG   =    1.300    factor for augmentation sphere                                              
   RDEP   =    1.115    radius for radial grids                                                     
   RDEPT  =    1.106    core radius for aug-charge                                                  
                                                                                                    
   Atomic configuration                                                                             
    4 entries                                                                                       
     n  l   j            E        occ.                                                              
     1  0  0.50      -384.7179   2.0000                                                             
     2  0  0.50       -18.5828   2.0000                                                             
     2  1  0.50        -7.0898   3.0000                                                             
     3  2  1.50        -6.8029   0.0000                                                             
   Description                                                                                      
     l       E           TYP  RCUT    TYP  RCUT                                                     
     0    -18.5828117     23  1.100                                                                 
     0    -15.0750597     23  1.100                                                                 
     1     -7.0897851     23  1.100                                                                 
     1     -1.9663412     23  1.100                                                                 
     2     -6.8029130      7  1.100                                                                 
  local pseudopotential read in
  partial core-charges read in
  partial kinetic energy density read in
  kinetic energy density of atom read in
  atomic valenz-charges read in
  non local Contribution for L=           0  read in
    real space projection operators read in
  non local Contribution for L=           0  read in
    real space projection operators read in
  non local Contribution for L=           1  read in
    real space projection operators read in
  non local Contribution for L=           1  read in
    real space projection operators read in
    PAW grid and wavefunctions read in

   number of l-projection  operators is LMAX  =           4
   number of lm-projection operators is LMMAX =           8

 POTCAR:    PAW_PBE H_h 06Feb2004                 
   VRHFIN =H: ultrasoft test                                                                        
   LEXCH  = PE                                                                                      
   EATOM  =    12.4884 eV,    0.9179 Ry                                                             
                                                                                                    
   TITEL  = PAW_PBE H_h 06Feb2004                                                                   
   LULTRA =        F    use ultrasoft PP ?                                                          
   IUNSCR =        0    unscreen: 0-lin 1-nonlin 2-no                                               
   RPACOR =    0.000    partial core radius                                                         
   POMASS =    1.000; ZVAL   =    1.000    mass and valenz                                          
   RCORE  =    0.800    outmost cutoff radius                                                       
   RWIGS  =    0.700; RWIGS  =    0.370    wigner-seitz radius (au A)                               
   ENMAX  =  700.000; ENMIN  =  350.000 eV                                                          
   RCLOC  =    0.701    cutoff for local pot                                                        
   LCOR   =        T    correct aug charges                                                         
   LPAW   =        T    paw PP                                                                      
   EAUG   = 1000.000                                                                                
   RMAX   =    0.819    core radius for proj-oper                                                   
   RAUG   =    1.000    factor for augmentation sphere                                              
   RDEP   =    0.817    radius for radial grids                                                     
   RDEPT  =    0.817    core radius for aug-charge                                                  
                                                                                                    
   Atomic configuration                                                                             
    2 entries                                                                                       
     n  l   j            E        occ.                                                              
     1  0  0.50        -6.4927   1.0000                                                             
     2  1  0.50        -3.4015   0.0000                                                             
   Description                                                                                      
     l       E           TYP  RCUT    TYP  RCUT                                                     
     0     -6.4927493     23  0.800                                                                 
     0      6.8029130     23  0.800                                                                 
     1     -6.8029130     23  0.800                                                                 
  local pseudopotential read in
  atomic valenz-charges read in
  non local Contribution for L=           0  read in
    real space projection operators read in
  non local Contribution for L=           0  read in
    real space projection operators read in
  non local Contribution for L=           1  read in
    real space projection operators read in
    PAW grid and wavefunctions read in

   number of l-projection  operators is LMAX  =           3
   number of lm-projection operators is LMMAX =           5

 -----------------------------------------------------------------------------
|                                                                             |
|               ----> ADVICE to this user running VASP <----                  |
|                                                                             |
|     You have a (more or less) 'large supercell' and for larger cells it     |
|     might be more efficient to use real-space projection operators.         |
|     Therefore, try LREAL= Auto in the INCAR file.                           |
|     Mind: For very accurate calculation, you might also keep the            |
|     reciprocal projection scheme (i.e. LREAL=.FALSE.).                      |
|                                                                             |
 -----------------------------------------------------------------------------

 -----------------------------------------------------------------------------
|                                                                             |
|               ----> ADVICE to this user running VASP <----                  |
|                                                                             |
|     You enforced a specific xc type in the INCAR file but a different       |
|     type was found in the POTCAR file.                                      |
|     I HOPE YOU KNOW WHAT YOU ARE DOING!                                     |
|                                                                             |
 -----------------------------------------------------------------------------

  PAW_PBE C_h 06Feb2004                 :
 energy of atom  1       EATOM= -147.1560
 kinetic energy error for atom=    0.0031 (will be added to EATOM!!)
  PAW_PBE N_h 06Feb2004                 :
 energy of atom  2       EATOM= -264.5486
 kinetic energy error for atom=    0.0081 (will be added to EATOM!!)
  PAW_PBE H_h 06Feb2004                 :
 energy of atom  3       EATOM=  -12.4884
 kinetic energy error for atom=    0.0006 (will be added to EATOM!!)


 POSCAR: super cell
  positions in direct lattice
  No initial velocities read in
 exchange correlation table for  LEXCH =       44
   RHO(1)=    0.500       N(1)  =     2000
   RHO(2)=  100.500       N(2)  =     4000



--------------------------------------------------------------------------------------------------------


 ion  position               nearest neighbor table
   1  0.078  0.110  0.089- 193 1.08 129 1.33  97 1.36
   2  0.578  0.110  0.089- 194 1.08 130 1.33  98 1.36
   3  0.078  0.610  0.089- 195 1.08 131 1.33  99 1.36
   4  0.578  0.610  0.089- 196 1.08 132 1.33 100 1.36
   5  0.078  0.110  0.589- 197 1.08 133 1.33 101 1.36
   6  0.578  0.110  0.589- 198 1.08 134 1.33 102 1.36
   7  0.078  0.610  0.589- 199 1.08 135 1.33 103 1.36
   8  0.578  0.610  0.589- 200 1.08 136 1.33 104 1.36
   9  0.422  0.390  0.411- 201 1.08 137 1.33 105 1.36
  10  0.922  0.390  0.411- 202 1.08 138 1.33 106 1.36
  11  0.422  0.890  0.411- 203 1.08 139 1.33 107 1.36
  12  0.922  0.890  0.411- 204 1.08 140 1.33 108 1.36
  13  0.422  0.390  0.911- 205 1.08 141 1.33 109 1.36
  14  0.922  0.390  0.911- 206 1.08 142 1.33 110 1.36
  15  0.422  0.890  0.911- 207 1.08 143 1.33 111 1.36
  16  0.922  0.890  0.911- 208 1.08 144 1.33 112 1.36
  17  0.422  0.360  0.161- 209 1.08 145 1.33 113 1.36
  18  0.922  0.360  0.161- 210 1.08 146 1.33 114 1.36
  19  0.422  0.860  0.161- 211 1.08 147 1.33 115 1.36
  20  0.922  0.860  0.161- 212 1.08 148 1.33 116 1.36
  21  0.422  0.360  0.661- 213 1.08 149 1.33 117 1.36
  22  0.922  0.360  0.661- 214 1.08 150 1.33 118 1.36
  23  0.422  0.860  0.661- 215 1.08 151 1.33 119 1.36
  24  0.922  0.860  0.661- 216 1.08 152 1.33 120 1.36
  25  0.078  0.140  0.339- 217 1.08 153 1.33 121 1.36
  26  0.578  0.140  0.339- 218 1.08 154 1.33 122 1.36
  27  0.078  0.640  0.339- 219 1.08 155 1.33 123 1.36
  28  0.578  0.640  0.339- 220 1.08 156 1.33 124 1.36
  29  0.078  0.140  0.839- 221 1.08 157 1.33 125 1.36
  30  0.578  0.140  0.839- 222 1.08 158 1.33 126 1.36
  31  0.078  0.640  0.839- 223 1.08 159 1.33 127 1.36
  32  0.578  0.640  0.839- 224 1.08 160 1.33 128 1.36
  33  0.154  0.279  0.148- 225 1.08  65 1.38 129 1.39
  34  0.654  0.279  0.148- 226 1.08  66 1.38 130 1.39
  35  0.154  0.779  0.148- 227 1.08  67 1.38 131 1.39
  36  0.654  0.779  0.148- 228 1.08  68 1.38 132 1.39
  37  0.154  0.279  0.648- 229 1.08  69 1.38 133 1.39
  38  0.654  0.279  0.648- 230 1.08  70 1.38 134 1.39
  39  0.154  0.779  0.648- 231 1.08  71 1.38 135 1.39
  40  0.654  0.779  0.648- 232 1.08  72 1.38 136 1.39
  41  0.346  0.221  0.352- 233 1.08  73 1.38 137 1.39
  42  0.846  0.221  0.352- 234 1.08  74 1.38 138 1.39
  43  0.346  0.721  0.352- 235 1.08  75 1.38 139 1.39
  44  0.846  0.721  0.352- 236 1.08  76 1.38 140 1.39
  45  0.346  0.221  0.852- 237 1.08  77 1.38 141 1.39
  46  0.846  0.221  0.852- 238 1.08  78 1.38 142 1.39
  47  0.346  0.721  0.852- 239 1.08  79 1.38 143 1.39
  48  0.846  0.721  0.852- 240 1.08  80 1.38 144 1.39
  49  0.346  0.029  0.102- 241 1.08  81 1.38 147 1.39
  50  0.846  0.029  0.102- 242 1.08  82 1.38 148 1.39
  51  0.346  0.529  0.102- 243 1.08  83 1.38 145 1.39
  52  0.846  0.529  0.102- 244 1.08  84 1.38 146 1.39
  53  0.346  0.029  0.602- 245 1.08  85 1.38 151 1.39
  54  0.846  0.029  0.602- 246 1.08  86 1.38 152 1.39
  55  0.346  0.529  0.602- 247 1.08  87 1.38 149 1.39
  56  0.846  0.529  0.602- 248 1.08  88 1.38 150 1.39
  57  0.154  0.471  0.398- 249 1.08  89 1.38 155 1.39
  58  0.654  0.471  0.398- 250 1.08  90 1.38 156 1.39
  59  0.154  0.971  0.398- 251 1.08  91 1.38 153 1.39
  60  0.654  0.971  0.398- 252 1.08  92 1.38 154 1.39
  61  0.154  0.471  0.898- 253 1.08  93 1.38 159 1.39
  62  0.654  0.471  0.898- 254 1.08  94 1.38 160 1.39
  63  0.154  0.971  0.898- 255 1.08  95 1.38 157 1.39
  64  0.654  0.971  0.898- 256 1.08  96 1.38 158 1.39
  65  0.158  0.276  0.081- 257 1.08  33 1.38  97 1.38
  66  0.658  0.276  0.081- 258 1.08  34 1.38  98 1.38
  67  0.158  0.776  0.081- 259 1.08  35 1.38  99 1.38
  68  0.658  0.776  0.081- 260 1.08  36 1.38 100 1.38
  69  0.158  0.276  0.581- 261 1.08  37 1.38 101 1.38
  70  0.658  0.276  0.581- 262 1.08  38 1.38 102 1.38
  71  0.158  0.776  0.581- 263 1.08  39 1.38 103 1.38
  72  0.658  0.776  0.581- 264 1.08  40 1.38 104 1.38
  73  0.342  0.224  0.419- 265 1.08  41 1.38 105 1.38
  74  0.842  0.224  0.419- 266 1.08  42 1.38 106 1.38
  75  0.342  0.724  0.419- 267 1.08  43 1.38 107 1.38
  76  0.842  0.724  0.419- 268 1.08  44 1.38 108 1.38
  77  0.342  0.224  0.919- 269 1.08  45 1.38 109 1.38
  78  0.842  0.224  0.919- 270 1.08  46 1.38 110 1.38
  79  0.342  0.724  0.919- 271 1.08  47 1.38 111 1.38
  80  0.842  0.724  0.919- 272 1.08  48 1.38 112 1.38
  81  0.342  0.026  0.169- 273 1.08  49 1.38 115 1.38
  82  0.842  0.026  0.169- 274 1.08  50 1.38 116 1.38
  83  0.342  0.526  0.169- 275 1.08  51 1.38 113 1.38
  84  0.842  0.526  0.169- 276 1.08  52 1.38 114 1.38
  85  0.342  0.026  0.669- 277 1.08  53 1.38 119 1.38
  86  0.842  0.026  0.669- 278 1.08  54 1.38 120 1.38
  87  0.342  0.526  0.669- 279 1.08  55 1.38 117 1.38
  88  0.842  0.526  0.669- 280 1.08  56 1.38 118 1.38
  89  0.158  0.474  0.331- 281 1.08  57 1.38 123 1.38
  90  0.658  0.474  0.331- 282 1.08  58 1.38 124 1.38
  91  0.158  0.974  0.331- 283 1.08  59 1.38 121 1.38
  92  0.658  0.974  0.331- 284 1.08  60 1.38 122 1.38
  93  0.158  0.474  0.831- 285 1.08  61 1.38 127 1.38
  94  0.658  0.474  0.831- 286 1.08  62 1.38 128 1.38
  95  0.158  0.974  0.831- 287 1.08  63 1.38 125 1.38
  96  0.658  0.974  0.831- 288 1.08  64 1.38 126 1.38
  97  0.109  0.168  0.044- 165 1.04   1 1.36  65 1.38
  98  0.609  0.168  0.044- 166 1.04   2 1.36  66 1.38
  99  0.109  0.668  0.044- 167 1.04   3 1.36  67 1.38
 100  0.609  0.668  0.044- 168 1.04   4 1.36  68 1.38
 101  0.109  0.168  0.544- 161 1.04   5 1.36  69 1.38
 102  0.609  0.168  0.544- 162 1.04   6 1.36  70 1.38
 103  0.109  0.668  0.544- 163 1.04   7 1.36  71 1.38
 104  0.609  0.668  0.544- 164 1.04   8 1.36  72 1.38
 105  0.391  0.332  0.456- 173 1.04   9 1.36  73 1.38
 106  0.891  0.332  0.456- 174 1.04  10 1.36  74 1.38
 107  0.391  0.832  0.456- 175 1.04  11 1.36  75 1.38
 108  0.891  0.832  0.456- 176 1.04  12 1.36  76 1.38
 109  0.391  0.332  0.956- 169 1.04  13 1.36  77 1.38
 110  0.891  0.332  0.956- 170 1.04  14 1.36  78 1.38
 111  0.391  0.832  0.956- 171 1.04  15 1.36  79 1.38
 112  0.891  0.832  0.956- 172 1.04  16 1.36  80 1.38
 113  0.391  0.418  0.206- 177 1.04  17 1.36  83 1.38
 114  0.891  0.418  0.206- 178 1.04  18 1.36  84 1.38
 115  0.391  0.918  0.206- 179 1.04  19 1.36  81 1.38
 116  0.891  0.918  0.206- 180 1.04  20 1.36  82 1.38
 117  0.391  0.418  0.706- 181 1.04  21 1.36  87 1.38
 118  0.891  0.418  0.706- 182 1.04  22 1.36  88 1.38
 119  0.391  0.918  0.706- 183 1.04  23 1.36  85 1.38
 120  0.891  0.918  0.706- 184 1.04  24 1.36  86 1.38
 121  0.109  0.082  0.294- 185 1.04  25 1.36  91 1.38
 122  0.609  0.082  0.294- 186 1.04  26 1.36  92 1.38
 123  0.109  0.582  0.294- 187 1.04  27 1.36  89 1.38
 124  0.609  0.582  0.294- 188 1.04  28 1.36  90 1.38
 125  0.109  0.082  0.794- 189 1.04  29 1.36  95 1.38
 126  0.609  0.082  0.794- 190 1.04  30 1.36  96 1.38
 127  0.109  0.582  0.794- 191 1.04  31 1.36  93 1.38
 128  0.609  0.582  0.794- 192 1.04  32 1.36  94 1.38
 129  0.104  0.175  0.154-   1 1.33  33 1.39
 130  0.604  0.175  0.154-   2 1.33  34 1.39
 131  0.104  0.675  0.154-   3 1.33  35 1.39
 132  0.604  0.675  0.154-   4 1.33  36 1.39
 133  0.104  0.175  0.654-   5 1.33  37 1.39
 134  0.604  0.175  0.654-   6 1.33  38 1.39
 135  0.104  0.675  0.654-   7 1.33  39 1.39
 136  0.604  0.675  0.654-   8 1.33  40 1.39
 137  0.396  0.325  0.346-   9 1.33  41 1.39
 138  0.896  0.325  0.346-  10 1.33  42 1.39
 139  0.396  0.825  0.346-  11 1.33  43 1.39
 140  0.896  0.825  0.346-  12 1.33  44 1.39
 141  0.396  0.325  0.846-  13 1.33  45 1.39
 142  0.896  0.325  0.846-  14 1.33  46 1.39
 143  0.396  0.825  0.846-  15 1.33  47 1.39
 144  0.896  0.825  0.846-  16 1.33  48 1.39
 145  0.396  0.425  0.096-  17 1.33  51 1.39
 146  0.896  0.425  0.096-  18 1.33  52 1.39
 147  0.396  0.925  0.096-  19 1.33  49 1.39
 148  0.896  0.925  0.096-  20 1.33  50 1.39
 149  0.396  0.425  0.596-  21 1.33  55 1.39
 150  0.896  0.425  0.596-  22 1.33  56 1.39
 151  0.396  0.925  0.596-  23 1.33  53 1.39
 152  0.896  0.925  0.596-  24 1.33  54 1.39
 153  0.104  0.075  0.404-  25 1.33  59 1.39
 154  0.604  0.075  0.404-  26 1.33  60 1.39
 155  0.104  0.575  0.404-  27 1.33  57 1.39
 156  0.604  0.575  0.404-  28 1.33  58 1.39
 157  0.104  0.075  0.904-  29 1.33  63 1.39
 158  0.604  0.075  0.904-  30 1.33  64 1.39
 159  0.104  0.575  0.904-  31 1.33  61 1.39
 160  0.604  0.575  0.904-  32 1.33  62 1.39
 161  0.102  0.135  0.492- 101 1.04
 162  0.602  0.135  0.492- 102 1.04
 163  0.102  0.635  0.492- 103 1.04
 164  0.602  0.635  0.492- 104 1.04
 165  0.102  0.135  0.992-  97 1.04
 166  0.602  0.135  0.992-  98 1.04
 167  0.102  0.635  0.992-  99 1.04
 168  0.602  0.635  0.992- 100 1.04
 169  0.398  0.365  0.008- 109 1.04
 170  0.898  0.365  0.008- 110 1.04
 171  0.398  0.865  0.008- 111 1.04
 172  0.898  0.865  0.008- 112 1.04
 173  0.398  0.365  0.508- 105 1.04
 174  0.898  0.365  0.508- 106 1.04
 175  0.398  0.865  0.508- 107 1.04
 176  0.898  0.865  0.508- 108 1.04
 177  0.398  0.385  0.258- 113 1.04
 178  0.898  0.385  0.258- 114 1.04
 179  0.398  0.885  0.258- 115 1.04
 180  0.898  0.885  0.258- 116 1.04
 181  0.398  0.385  0.758- 117 1.04
 182  0.898  0.385  0.758- 118 1.04
 183  0.398  0.885  0.758- 119 1.04
 184  0.898  0.885  0.758- 120 1.04
 185  0.102  0.115  0.242- 121 1.04
 186  0.602  0.115  0.242- 122 1.04
 187  0.102  0.615  0.242- 123 1.04
 188  0.602  0.615  0.242- 124 1.04
 189  0.102  0.115  0.742- 125 1.04
 190  0.602  0.115  0.742- 126 1.04
 191  0.102  0.615  0.742- 127 1.04
 192  0.602  0.615  0.742- 128 1.04
 193  0.038  0.023  0.075-   1 1.08
 194  0.538  0.023  0.075-   2 1.08
 195  0.038  0.523  0.075-   3 1.08
 196  0.538  0.523  0.075-   4 1.08
 197  0.038  0.023  0.575-   5 1.08
 198  0.538  0.023  0.575-   6 1.08
 199  0.038  0.523  0.575-   7 1.08
 200  0.538  0.523  0.575-   8 1.08
 201  0.462  0.477  0.425-   9 1.08
 202  0.962  0.477  0.425-  10 1.08
 203  0.462  0.977  0.425-  11 1.08
 204  0.962  0.977  0.425-  12 1.08
 205  0.462  0.477  0.925-  13 1.08
 206  0.962  0.477  0.925-  14 1.08
 207  0.462  0.977  0.925-  15 1.08
 208  0.962  0.977  0.925-  16 1.08
 209  0.462  0.273  0.175-  17 1.08
 210  0.962  0.273  0.175-  18 1.08
 211  0.462  0.773  0.175-  19 1.08
 212  0.962  0.773  0.175-  20 1.08
 213  0.462  0.273  0.675-  21 1.08
 214  0.962  0.273  0.675-  22 1.08
 215  0.462  0.773  0.675-  23 1.08
 216  0.962  0.773  0.675-  24 1.08
 217  0.038  0.227  0.325-  25 1.08
 218  0.538  0.227  0.325-  26 1.08
 219  0.038  0.727  0.325-  27 1.08
 220  0.538  0.727  0.325-  28 1.08
 221  0.038  0.227  0.825-  29 1.08
 222  0.538  0.227  0.825-  30 1.08
 223  0.038  0.727  0.825-  31 1.08
 224  0.538  0.727  0.825-  32 1.08
 225  0.184  0.349  0.193-  33 1.08
 226  0.684  0.349  0.193-  34 1.08
 227  0.184  0.849  0.193-  35 1.08
 228  0.684  0.849  0.193-  36 1.08
 229  0.184  0.349  0.693-  37 1.08
 230  0.684  0.349  0.693-  38 1.08
 231  0.184  0.849  0.693-  39 1.08
 232  0.684  0.849  0.693-  40 1.08
 233  0.316  0.151  0.307-  41 1.08
 234  0.816  0.151  0.307-  42 1.08
 235  0.316  0.651  0.307-  43 1.08
 236  0.816  0.651  0.307-  44 1.08
 237  0.316  0.151  0.807-  45 1.08
 238  0.816  0.151  0.807-  46 1.08
 239  0.316  0.651  0.807-  47 1.08
 240  0.816  0.651  0.807-  48 1.08
 241  0.316  0.099  0.057-  49 1.08
 242  0.816  0.099  0.057-  50 1.08
 243  0.316  0.599  0.057-  51 1.08
 244  0.816  0.599  0.057-  52 1.08
 245  0.316  0.099  0.557-  53 1.08
 246  0.816  0.099  0.557-  54 1.08
 247  0.316  0.599  0.557-  55 1.08
 248  0.816  0.599  0.557-  56 1.08
 249  0.184  0.401  0.443-  57 1.08
 250  0.684  0.401  0.443-  58 1.08
 251  0.184  0.901  0.443-  59 1.08
 252  0.684  0.901  0.443-  60 1.08
 253  0.184  0.401  0.943-  61 1.08
 254  0.684  0.401  0.943-  62 1.08
 255  0.184  0.901  0.943-  63 1.08
 256  0.684  0.901  0.943-  64 1.08
 257  0.191  0.339  0.057-  65 1.08
 258  0.691  0.339  0.057-  66 1.08
 259  0.191  0.839  0.057-  67 1.08
 260  0.691  0.839  0.057-  68 1.08
 261  0.191  0.339  0.557-  69 1.08
 262  0.691  0.339  0.557-  70 1.08
 263  0.191  0.839  0.557-  71 1.08
 264  0.691  0.839  0.557-  72 1.08
 265  0.309  0.161  0.443-  73 1.08
 266  0.809  0.161  0.443-  74 1.08
 267  0.309  0.661  0.443-  75 1.08
 268  0.809  0.661  0.443-  76 1.08
 269  0.309  0.161  0.943-  77 1.08
 270  0.809  0.161  0.943-  78 1.08
 271  0.309  0.661  0.943-  79 1.08
 272  0.809  0.661  0.943-  80 1.08
 273  0.309  0.089  0.193-  81 1.08
 274  0.809  0.089  0.193-  82 1.08
 275  0.309  0.589  0.193-  83 1.08
 276  0.809  0.589  0.193-  84 1.08
 277  0.309  0.089  0.693-  85 1.08
 278  0.809  0.089  0.693-  86 1.08
 279  0.309  0.589  0.693-  87 1.08
 280  0.809  0.589  0.693-  88 1.08
 281  0.191  0.411  0.307-  89 1.08
 282  0.691  0.411  0.307-  90 1.08
 283  0.191  0.911  0.307-  91 1.08
 284  0.691  0.911  0.307-  92 1.08
 285  0.191  0.411  0.807-  93 1.08
 286  0.691  0.411  0.807-  94 1.08
 287  0.191  0.911  0.807-  95 1.08
 288  0.691  0.911  0.807-  96 1.08

  LATTYP: Found a simple monoclinic cell.
 ALAT       =    15.3088572536
 B/A-ratio  =     0.7017093866
 C/A-ratio  =     1.1944654568
 COS(beta)  =    -0.3094951532
  
  Lattice vectors:
  
 A1 = (  15.3088237656,   0.0000000000,  -0.0320206832)
 A2 = (   0.0000000000, -10.7423688332,   0.0000000000)
 A3 = (  -5.6957550873,   0.0000000000, -17.3762065966)


Analysis of symmetry for initial positions (statically):
=====================================================================
 Subroutine PRICEL returns:
 Original cell was already a primitive cell.
 

 Routine SETGRP: Setting up the symmetry group for a 
 simple monoclinic supercell.


 Subroutine GETGRP returns: Found  1 space group operations
 (whereof  1 operations were pure point group operations)
 out of a pool of  4 trial point group operations.


The static configuration has the point symmetry C_1 .


Analysis of symmetry for dynamics (positions and initial velocities):
=====================================================================
 Subroutine PRICEL returns:
 Original cell was already a primitive cell.
 

 Routine SETGRP: Setting up the symmetry group for a 
 simple monoclinic supercell.


 Subroutine GETGRP returns: Found  1 space group operations
 (whereof  1 operations were pure point group operations)
 out of a pool of  4 trial point group operations.


The dynamic configuration has the point symmetry C_1 .


 Subroutine INISYM returns: Found  1 space group operations
 (whereof  1 operations are pure point group operations),
 and found     1 'primitive' translations


----------------------------------------------------------------------------------------

                                     Primitive cell                                     

  volume of cell :    2859.5291

  direct lattice vectors                    reciprocal lattice vectors
    15.308823766  0.000000000 -0.032020683     0.065397341 -0.000000000  0.036113334
     0.000000000 10.742368833  0.000000000    -0.000000000  0.093089338 -0.000000000
    -9.613068678  0.000000000 17.408227280     0.000120292 -0.000000000  0.057510530

  length of vectors
    15.308857254 10.742368833 19.886112401     0.074705992  0.093089338  0.057510656

  position of ions in fractional coordinates (direct lattice)
     0.077949132  0.110363553  0.089258595
     0.577949132  0.110363553  0.089258595
     0.077949132  0.610363553  0.089258595
     0.577949132  0.610363553  0.089258595
     0.077949132  0.110363553  0.589258595
     0.577949132  0.110363553  0.589258595
     0.077949132  0.610363553  0.589258595
     0.577949132  0.610363553  0.589258595
     0.422050869  0.389636445  0.410741407
     0.922050869  0.389636445  0.410741407
     0.422050869  0.889636445  0.410741407
     0.922050869  0.889636445  0.410741407
     0.422050869  0.389636445  0.910741407
     0.922050869  0.389636445  0.910741407
     0.422050869  0.889636445  0.910741407
     0.922050869  0.889636445  0.910741407
     0.422050902  0.360363557  0.160741422
     0.922050902  0.360363557  0.160741422
     0.422050902  0.860363557  0.160741422
     0.922050902  0.860363557  0.160741422
     0.422050902  0.360363557  0.660741422
     0.922050902  0.360363557  0.660741422
     0.422050902  0.860363557  0.660741422
     0.922050902  0.860363557  0.660741422
     0.077949100  0.139636426  0.339258575
     0.577949100  0.139636426  0.339258575
     0.077949100  0.639636426  0.339258575
     0.577949100  0.639636426  0.339258575
     0.077949100  0.139636426  0.839258575
     0.577949100  0.139636426  0.839258575
     0.077949100  0.639636426  0.839258575
     0.577949100  0.639636426  0.839258575
     0.154198414  0.279162167  0.148455977
     0.654198414  0.279162167  0.148455977
     0.154198414  0.779162167  0.148455977
     0.654198414  0.779162167  0.148455977
     0.154198414  0.279162167  0.648455977
     0.654198414  0.279162167  0.648455977
     0.154198414  0.779162167  0.648455977
     0.654198414  0.779162167  0.648455977
     0.345801590  0.220837837  0.351544013
     0.845801590  0.220837837  0.351544013
     0.345801590  0.720837837  0.351544013
     0.845801590  0.720837837  0.351544013
     0.345801590  0.220837837  0.851544013
     0.845801590  0.220837837  0.851544013
     0.345801590  0.720837837  0.851544013
     0.845801590  0.720837837  0.851544013
     0.345801636  0.029162174  0.101544017
     0.845801636  0.029162174  0.101544017
     0.345801636  0.529162174  0.101544017
     0.845801636  0.529162174  0.101544017
     0.345801636  0.029162174  0.601544017
     0.845801636  0.029162174  0.601544017
     0.345801636  0.529162174  0.601544017
     0.845801636  0.529162174  0.601544017
     0.154198366  0.470837808  0.398455976
     0.654198366  0.470837808  0.398455976
     0.154198366  0.970837808  0.398455976
     0.654198366  0.970837808  0.398455976
     0.154198366  0.470837808  0.898455976
     0.654198366  0.470837808  0.898455976
     0.154198366  0.970837808  0.898455976
     0.654198366  0.970837808  0.898455976
     0.158114596  0.275973180  0.080829102
     0.658114596  0.275973180  0.080829102
     0.158114596  0.775973180  0.080829102
     0.658114596  0.775973180  0.080829102
     0.158114596  0.275973180  0.580829102
     0.658114596  0.275973180  0.580829102
     0.158114596  0.775973180  0.580829102
     0.658114596  0.775973180  0.580829102
     0.341885411  0.224026804  0.419170889
     0.841885411  0.224026804  0.419170889
     0.341885411  0.724026804  0.419170889
     0.841885411  0.724026804  0.419170889
     0.341885411  0.224026804  0.919170889
     0.841885411  0.224026804  0.919170889
     0.341885411  0.724026804  0.919170889
     0.841885411  0.724026804  0.919170889
     0.341885452  0.025973221  0.169170909
     0.841885452  0.025973221  0.169170909
     0.341885452  0.525973221  0.169170909
     0.841885452  0.525973221  0.169170909
     0.341885452  0.025973221  0.669170909
     0.841885452  0.025973221  0.669170909
     0.341885452  0.525973221  0.669170909
     0.841885452  0.525973221  0.669170909
     0.158114563  0.474026774  0.330829090
     0.658114563  0.474026774  0.330829090
     0.158114563  0.974026774  0.330829090
     0.658114563  0.974026774  0.330829090
     0.158114563  0.474026774  0.830829090
     0.658114563  0.474026774  0.830829090
     0.158114563  0.974026774  0.830829090
     0.658114563  0.974026774  0.830829090
     0.109106543  0.168016989  0.043587739
     0.609106543  0.168016989  0.043587739
     0.109106543  0.668016989  0.043587739
     0.609106543  0.668016989  0.043587739
     0.109106543  0.168016989  0.543587739
     0.609106543  0.168016989  0.543587739
     0.109106543  0.668016989  0.543587739
     0.609106543  0.668016989  0.543587739
     0.390893463  0.331982990  0.456412260
     0.890893463  0.331982990  0.456412260
     0.390893463  0.831982990  0.456412260
     0.890893463  0.831982990  0.456412260
     0.390893463  0.331982990  0.956412260
     0.890893463  0.331982990  0.956412260
     0.390893463  0.831982990  0.956412260
     0.890893463  0.831982990  0.956412260
     0.390893495  0.418016997  0.206412265
     0.890893495  0.418016997  0.206412265
     0.390893495  0.918016997  0.206412265
     0.890893495  0.918016997  0.206412265
     0.390893495  0.418016997  0.706412265
     0.890893495  0.418016997  0.706412265
     0.390893495  0.918016997  0.706412265
     0.890893495  0.918016997  0.706412265
     0.109106520  0.081983000  0.293587736
     0.609106520  0.081983000  0.293587736
     0.109106520  0.581983000  0.293587736
     0.609106520  0.581983000  0.293587736
     0.109106520  0.081983000  0.793587736
     0.609106520  0.081983000  0.793587736
     0.109106520  0.581983000  0.793587736
     0.609106520  0.581983000  0.793587736
     0.103820586  0.174991725  0.153538356
     0.603820586  0.174991725  0.153538356
     0.103820586  0.674991725  0.153538356
     0.603820586  0.674991725  0.153538356
     0.103820586  0.174991725  0.653538356
     0.603820586  0.174991725  0.653538356
     0.103820586  0.674991725  0.653538356
     0.603820586  0.674991725  0.653538356
     0.396179415  0.325008288  0.346461641
     0.896179415  0.325008288  0.346461641
     0.396179415  0.825008288  0.346461641
     0.896179415  0.825008288  0.346461641
     0.396179415  0.325008288  0.846461641
     0.896179415  0.325008288  0.846461641
     0.396179415  0.825008288  0.846461641
     0.896179415  0.825008288  0.846461641
     0.396179443  0.424991697  0.096461644
     0.896179443  0.424991697  0.096461644
     0.396179443  0.924991697  0.096461644
     0.896179443  0.924991697  0.096461644
     0.396179443  0.424991697  0.596461644
     0.896179443  0.424991697  0.596461644
     0.396179443  0.924991697  0.596461644
     0.896179443  0.924991697  0.596461644
     0.103820552  0.075008277  0.403538349
     0.603820552  0.075008277  0.403538349
     0.103820552  0.575008277  0.403538349
     0.603820552  0.575008277  0.403538349
     0.103820552  0.075008277  0.903538349
     0.603820552  0.075008277  0.903538349
     0.103820552  0.575008277  0.903538349
     0.603820552  0.575008277  0.903538349
     0.101685832  0.135112525  0.492017669
     0.601685832  0.135112525  0.492017669
     0.101685832  0.635112525  0.492017669
     0.601685832  0.635112525  0.492017669
     0.101685832  0.135112525  0.992017669
     0.601685832  0.135112525  0.992017669
     0.101685832  0.635112525  0.992017669
     0.601685832  0.635112525  0.992017669
     0.398314170  0.364887448  0.007982331
     0.898314170  0.364887448  0.007982331
     0.398314170  0.864887448  0.007982331
     0.898314170  0.864887448  0.007982331
     0.398314170  0.364887448  0.507982331
     0.898314170  0.364887448  0.507982331
     0.398314170  0.864887448  0.507982331
     0.898314170  0.864887448  0.507982331
     0.398314193  0.385112556  0.257982334
     0.898314193  0.385112556  0.257982334
     0.398314193  0.885112556  0.257982334
     0.898314193  0.885112556  0.257982334
     0.398314193  0.385112556  0.757982334
     0.898314193  0.385112556  0.757982334
     0.398314193  0.885112556  0.757982334
     0.898314193  0.885112556  0.757982334
     0.101685821  0.114887449  0.242017668
     0.601685821  0.114887449  0.242017668
     0.101685821  0.614887449  0.242017668
     0.601685821  0.614887449  0.242017668
     0.101685821  0.114887449  0.742017668
     0.601685821  0.114887449  0.742017668
     0.101685821  0.614887449  0.742017668
     0.601685821  0.614887449  0.742017668
     0.038051423  0.023265808  0.074918756
     0.538051423  0.023265808  0.074918756
     0.038051423  0.523265808  0.074918756
     0.538051423  0.523265808  0.074918756
     0.038051423  0.023265808  0.574918756
     0.538051423  0.023265808  0.574918756
     0.038051423  0.523265808  0.574918756
     0.538051423  0.523265808  0.574918756
     0.461948577  0.476734192  0.425081251
     0.961948577  0.476734192  0.425081251
     0.461948577  0.976734192  0.425081251
     0.961948577  0.976734192  0.425081251
     0.461948577  0.476734192  0.925081251
     0.961948577  0.476734192  0.925081251
     0.461948577  0.976734192  0.925081251
     0.961948577  0.976734192  0.925081251
     0.461948601  0.273265799  0.175081253
     0.961948601  0.273265799  0.175081253
     0.461948601  0.773265799  0.175081253
     0.961948601  0.773265799  0.175081253
     0.461948601  0.273265799  0.675081253
     0.961948601  0.273265799  0.675081253
     0.461948601  0.773265799  0.675081253
     0.961948601  0.773265799  0.675081253
     0.038051399  0.226734184  0.324918746
     0.538051399  0.226734184  0.324918746
     0.038051399  0.726734184  0.324918746
     0.538051399  0.726734184  0.324918746
     0.038051399  0.226734184  0.824918746
     0.538051399  0.226734184  0.824918746
     0.038051399  0.726734184  0.824918746
     0.538051399  0.726734184  0.824918746
     0.184076800  0.348708173  0.193076523
     0.684076800  0.348708173  0.193076523
     0.184076800  0.848708173  0.193076523
     0.684076800  0.848708173  0.193076523
     0.184076800  0.348708173  0.693076523
     0.684076800  0.348708173  0.693076523
     0.184076800  0.848708173  0.693076523
     0.684076800  0.848708173  0.693076523
     0.315923207  0.151291837  0.306923464
     0.815923207  0.151291837  0.306923464
     0.315923207  0.651291837  0.306923464
     0.815923207  0.651291837  0.306923464
     0.315923207  0.151291837  0.806923464
     0.815923207  0.151291837  0.806923464
     0.315923207  0.651291837  0.806923464
     0.815923207  0.651291837  0.806923464
     0.315923237  0.098708160  0.056923482
     0.815923237  0.098708160  0.056923482
     0.315923237  0.598708160  0.056923482
     0.815923237  0.598708160  0.056923482
     0.315923237  0.098708160  0.556923482
     0.815923237  0.098708160  0.556923482
     0.315923237  0.598708160  0.556923482
     0.815923237  0.598708160  0.556923482
     0.184076763  0.401291817  0.443076510
     0.684076763  0.401291817  0.443076510
     0.184076763  0.901291817  0.443076510
     0.684076763  0.901291817  0.443076510
     0.184076763  0.401291817  0.943076510
     0.684076763  0.401291817  0.943076510
     0.184076763  0.901291817  0.943076510
     0.684076763  0.901291817  0.943076510
     0.190752836  0.338780361  0.056500438
     0.690752836  0.338780361  0.057003298
     0.190752836  0.838780361  0.057003298
     0.690752836  0.838780361  0.057003298
     0.190752836  0.338780361  0.557003298
     0.690752836  0.338780361  0.557003298
     0.190752836  0.838780361  0.557003298
     0.690752836  0.838780361  0.557003298
     0.309247175  0.161219612  0.442996691
     0.809247175  0.161219612  0.442996691
     0.309247175  0.661219612  0.442996691
     0.809247175  0.661219612  0.442996691
     0.309247175  0.161219612  0.942996691
     0.809247175  0.161219612  0.942996691
     0.309247175  0.661219612  0.942996691
     0.809247175  0.661219612  0.942996691
     0.309247223  0.088780386  0.192996702
     0.809247223  0.088780386  0.192996702
     0.309247223  0.588780386  0.192996702
     0.809247223  0.588780386  0.192996702
     0.309247223  0.088780386  0.692996702
     0.809247223  0.088780386  0.692996702
     0.309247223  0.588780386  0.692996702
     0.809247223  0.588780386  0.692996702
     0.190752799  0.411219616  0.307003297
     0.690752799  0.411219616  0.307003297
     0.190752799  0.911219616  0.307003297
     0.690752799  0.911219616  0.307003297
     0.190752799  0.411219616  0.807003297
     0.690752799  0.411219616  0.807003297
     0.190752799  0.911219616  0.807003297
     0.690752799  0.911219616  0.807003297

  ion indices of the primitive-cell ions
   primitive index   ion index
                 1           1
                 2           2
                 3           3
                 4           4
                 5           5
                 6           6
                 7           7
                 8           8
                 9           9
                10          10
                11          11
                12          12
                13          13
                14          14
                15          15
                16          16
                17          17
                18          18
                19          19
                20          20
                21          21
                22          22
                23          23
                24          24
                25          25
                26          26
                27          27
                28          28
                29          29
                30          30
                31          31
                32          32
                33          33
                34          34
                35          35
                36          36
                37          37
                38          38
                39          39
                40          40
                41          41
                42          42
                43          43
                44          44
                45          45
                46          46
                47          47
                48          48
                49          49
                50          50
                51          51
                52          52
                53          53
                54          54
                55          55
                56          56
                57          57
                58          58
                59          59
                60          60
                61          61
                62          62
                63          63
                64          64
                65          65
                66          66
                67          67
                68          68
                69          69
                70          70
                71          71
                72          72
                73          73
                74          74
                75          75
                76          76
                77          77
                78          78
                79          79
                80          80
                81          81
                82          82
                83          83
                84          84
                85          85
                86          86
                87          87
                88          88
                89          89
                90          90
                91          91
                92          92
                93          93
                94          94
                95          95
                96          96
                97          97
                98          98
                99          99
               100         100
               101         101
               102         102
               103         103
               104         104
               105         105
               106         106
               107         107
               108         108
               109         109
               110         110
               111         111
               112         112
               113         113
               114         114
               115         115
               116         116
               117         117
               118         118
               119         119
               120         120
               121         121
               122         122
               123         123
               124         124
               125         125
               126         126
               127         127
               128         128
               129         129
               130         130
               131         131
               132         132
               133         133
               134         134
               135         135
               136         136
               137         137
               138         138
               139         139
               140         140
               141         141
               142         142
               143         143
               144         144
               145         145
               146         146
               147         147
               148         148
               149         149
               150         150
               151         151
               152         152
               153         153
               154         154
               155         155
               156         156
               157         157
               158         158
               159         159
               160         160
               161         161
               162         162
               163         163
               164         164
               165         165
               166         166
               167         167
               168         168
               169         169
               170         170
               171         171
               172         172
               173         173
               174         174
               175         175
               176         176
               177         177
               178         178
               179         179
               180         180
               181         181
               182         182
               183         183
               184         184
               185         185
               186         186
               187         187
               188         188
               189         189
               190         190
               191         191
               192         192
               193         193
               194         194
               195         195
               196         196
               197         197
               198         198
               199         199
               200         200
               201         201
               202         202
               203         203
               204         204
               205         205
               206         206
               207         207
               208         208
               209         209
               210         210
               211         211
               212         212
               213         213
               214         214
               215         215
               216         216
               217         217
               218         218
               219         219
               220         220
               221         221
               222         222
               223         223
               224         224
               225         225
               226         226
               227         227
               228         228
               229         229
               230         230
               231         231
               232         232
               233         233
               234         234
               235         235
               236         236
               237         237
               238         238
               239         239
               240         240
               241         241
               242         242
               243         243
               244         244
               245         245
               246         246
               247         247
               248         248
               249         249
               250         250
               251         251
               252         252
               253         253
               254         254
               255         255
               256         256
               257         257
               258         258
               259         259
               260         260
               261         261
               262         262
               263         263
               264         264
               265         265
               266         266
               267         267
               268         268
               269         269
               270         270
               271         271
               272         272
               273         273
               274         274
               275         275
               276         276
               277         277
               278         278
               279         279
               280         280
               281         281
               282         282
               283         283
               284         284
               285         285
               286         286
               287         287
               288         288

----------------------------------------------------------------------------------------



 KPOINTS: auto                                    

Automatic generation of k-mesh.
 Grid dimensions read from file:
 generate k-points for:    1    1    1

 Generating k-lattice:

  Cartesian coordinates                     Fractional coordinates (reciprocal lattice)
     0.065397341 -0.000000000  0.036113334     1.000000000  0.000000000  0.000000000
    -0.000000000  0.093089338 -0.000000000     0.000000000  1.000000000  0.000000000
     0.000120292 -0.000000000  0.057510530     0.000000000  0.000000000  1.000000000

  Length of vectors
     0.074705992  0.093089338  0.057510656

  Shift w.r.t. Gamma in fractional coordinates (k-lattice)
     0.000000000  0.000000000  0.000000000

 
 Subroutine IBZKPT returns following result:
 ===========================================
 
 Found      1 irreducible k-points:
 
 Following reciprocal coordinates:
            Coordinates               Weight
  0.000000  0.000000  0.000000      1.000000
 
 Following cartesian coordinates:
            Coordinates               Weight
  0.000000  0.000000  0.000000      1.000000
 


--------------------------------------------------------------------------------------------------------




 Dimension of arrays:
   k-points           NKPTS =      1   k-points in BZ     NKDIM =      1   number of bands    NBANDS=    640
   number of dos      NEDOS =    301   number of ions     NIONS =    288
   non local maximal  LDIM  =      4   non local SUM 2l+1 LMDIM =      8
   total plane-waves  NPLWV = ******
   max r-space proj   IRMAX =      1   max aug-charges    IRDMAX=   9545
   dimension x,y,z NGX =   160 NGY =  112 NGZ =  210
   dimension x,y,z NGXF=   320 NGYF=  224 NGZF=  420
   support grid    NGXF=   320 NGYF=  224 NGZF=  420
   ions per type =              96  64 128
   NGX,Y,Z   is equivalent  to a cutoff of  17.38, 17.33, 17.56 a.u.
   NGXF,Y,Z  is equivalent  to a cutoff of  34.75, 34.67, 35.11 a.u.

 SYSTEM =  unknown system                          
 POSCAR =  super cell                              

 Startparameter for this run:
   NWRITE =      2    write-flag & timer
   PREC   = accura    normal or accurate (medium, high low for compatibility)
   ISTART =      1    job   : 0-new  1-cont  2-samecut
   ICHARG =      0    charge: 1-file 2-atom 10-const
   ISPIN  =      1    spin polarized calculation?
   LNONCOLLINEAR =      F non collinear calculations
   LSORBIT =      F    spin-orbit coupling
   INIWAV =      1    electr: 0-lowe 1-rand  2-diag
   LASPH  =      T    aspherical Exc in radial PAW
 Electronic Relaxation 1
   ENCUT  = 1000.0 eV  73.50 Ry    8.57 a.u.  39.47 27.70 51.28*2*pi/ulx,y,z
   ENINI  = 1000.0     initial cutoff
   ENAUG  = 1000.0 eV  augmentation charge cutoff
   NELM   =     60;   NELMIN=  2; NELMDL=  0     # of ELM steps 
   EDIFF  = 0.1E-07   stopping-criterion for ELM
   LREAL  =      F    real-space projection
   NLSPLINE    = F    spline interpolate recip. space projectors
   LCOMPAT=      F    compatible to vasp.4.4
   GGA_COMPAT  = T    GGA compatible to vasp.4.4-vasp.4.6
   LMAXPAW     = -100 max onsite density
   LMAXMIX     =    2 max onsite mixed and CHGCAR
   VOSKOWN=      0    Vosko Wilk Nusair interpolation
   ROPT   =    0.00000   0.00000   0.00000
 Ionic relaxation
   EDIFFG = 0.1E-06   stopping-criterion for IOM
   NSW    =      0    number of steps for IOM
   NBLOCK =      1;   KBLOCK =      1    inner block; outer block 
   IBRION =     -1    ionic relax: 0-MD 1-quasi-New 2-CG
   NFREE  =      0    steps in history (QN), initial steepest desc. (CG)
   ISIF   =      1    stress and relaxation
   IWAVPR =     10    prediction:  0-non 1-charg 2-wave 3-comb
   ISYM   =      2    0-nonsym 1-usesym 2-fastsym
   LCORR  =      T    Harris-Foulkes like correction to forces

   POTIM  = 0.5000    time-step for ionic-motion
   TEIN   =    0.0    initial temperature
   TEBEG  =    0.0;   TEEND  =   0.0 temperature during run
   SMASS  =  -3.00    Nose mass-parameter (am)
   estimated Nose-frequenzy (Omega)   =  0.10E-29 period in steps = 0.13E+47 mass=  -0.536E-26a.u.
   SCALEE = 1.0000    scale energy and forces
   NPACO  =    256;   APACO  = 10.0  distance and # of slots for P.C.
   PSTRESS=    0.0 pullay stress

  Mass of Ions in am
   POMASS =  12.01 14.00  1.00
  Ionic Valenz
   ZVAL   =   4.00  5.00  1.00
  Atomic Wigner-Seitz radii
   RWIGS  =  -1.00 -1.00 -1.00
  virtual crystal weights 
   VCA    =   1.00  1.00  1.00
   NELECT =     832.0000    total number of electrons
   NUPDOWN=      -1.0000    fix difference up-down

 DOS related values:
   EMIN   =  10.00;   EMAX   =-10.00  energy-range for DOS
   EFERMI =   0.00;   METHOD = LEGACY      
   ISMEAR =     0;   SIGMA  =   0.01  broadening in eV -4-tet -1-fermi 0-gaus

 Electronic relaxation 2 (details)
   IALGO  =     58    algorithm
   LDIAG  =      T    sub-space diagonalisation (order eigenvalues)
   LSUBROT=      F    optimize rotation matrix (better conditioning)
   TURBO    =      0    0=normal 1=particle mesh
   IRESTART =      0    0=no restart 2=restart with 2 vectors
   NREBOOT  =      0    no. of reboots
   NMIN     =      0    reboot dimension
   EREF     =   0.00    reference energy to select bands
   IMIX   =      4    mixing-type and parameters
     AMIX     =   0.40;   BMIX     =  1.00
     AMIX_MAG =   1.60;   BMIX_MAG =  1.00
     AMIN     =   0.10
     WC   =   100.;   INIMIX=   1;  MIXPRE=   1;  MAXMIX= -45

 Intra band minimization:
   WEIMIN = 0.0000     energy-eigenvalue tresh-hold
   EBREAK =  0.39E-11  absolut break condition
   DEPER  =   0.30     relativ break condition  

   TIME   =   0.40     timestep for ELM

  volume/ion in A,a.u.               =       9.93        67.00
  Fermi-wavevector in a.u.,A,eV,Ry     =   1.084804  2.049981 16.011319  1.176799
  Thomas-Fermi vector in A             =   2.220902

 Write flags
   LWAVE        =      T    write WAVECAR
   LDOWNSAMPLE  =      F    k-point downsampling of WAVECAR
   LCHARG       =      T    write CHGCAR
   LVTOT        =      F    write LOCPOT, total local potential
   LVHAR        =      F    write LOCPOT, Hartree potential only
   LELF         =      F    write electronic localiz. function (ELF)
   LORBIT       =      0    0 simple, 1 ext, 2 COOP (PROOUT), +10 PAW based schemes


 Dipole corrections
   LMONO  =      F    monopole corrections only (constant potential shift)
   LDIPOL =      F    correct potential (dipole corrections)
   IDIPOL =      0    1-x, 2-y, 3-z, 4-all directions 
   EPSILON=  1.0000000 bulk dielectric constant

 Exchange correlation treatment:
   GGA     =    ML    GGA type
   LEXCH   =    44    internal setting for exchange type
   LIBXC   =     F    Libxc                    
   VOSKOWN =     0    Vosko Wilk Nusair interpolation
   LHFCALC =     F    Hartree Fock is set to
   LHFONE  =     F    Hartree Fock one center treatment
   AEXX    =    0.0000 exact exchange contribution

 vdW DFT:
   LUSE_VDW   =     T    switch on vdW DFT
   IVDW_NL    =     1    kernel type
   LSPIN_VDW  =     F    use spin-polarized vdW DFT
   Zab_VDW    =******    correlation parameter
   PARAM1     =0.1234
   PARAM2     =1.0000
   PARAM3     =0.0000
   -- rVV10 --
   BPARAM     = 6.3000
   CPARAM     = 0.0093

 Linear response parameters
   LEPSILON=     F    determine dielectric tensor
   LRPA    =     F    only Hartree local field effects (RPA)
   LNABLA  =     F    use nabla operator in PAW spheres
   LVEL    =     F    velocity operator in full k-point grid
   CSHIFT  =0.1000    complex shift for real part using Kramers Kronig
   OMEGAMAX=  -1.0    maximum frequency
   DEG_THRESHOLD= 0.2000000E-02 threshold for treating states as degnerate
   RTIME   =   -0.100 relaxation time in fs
  (WPLASMAI=    0.000 imaginary part of plasma frequency in eV, 0.658/RTIME)
   DFIELD  = 0.0000000 0.0000000 0.0000000 field for delta impulse in time

  Optional k-point grid parameters
   LKPOINTS_OPT  =     F    use optional k-point grid
   KPOINTS_OPT_MODE=     1    mode for optional k-point grid

 Orbital magnetization related:
   ORBITALMAG=     F  switch on orbital magnetization
   LCHIMAG   =     F  perturbation theory with respect to B field
   DQ        =  0.001000  dq finite difference perturbation B field
   LLRAUG    =     F  two centre corrections for induced B field
   LBONE     =     F  B-component reconstruction in AE one-centre
   LVGVCALC  =     T  calculate vGv susceptibility
   LVGVAPPL  =     F  apply vGv susceptibility instead of pGv for G=0

 Random number generation:
   RANDOM_GENERATOR = DEFAULT
   PCG_SEED         = not used


--------------------------------------------------------------------------------------------------------


 Static calculation
 charge density and potential will be updated during run
 non-spin polarized calculation
 Conjugate gradient for all bands (Freysoldt, et al. PRB 79, 241103 (2009))
 preconditioned conjugated gradient                                        
 perform sub-space diagonalisation
    before iterative eigenvector-optimisation
 modified Broyden-mixing scheme, WC =      100.0
 initial mixing is a Kerker type mixing with AMIX =  0.4000 and BMIX =      1.0000
 Hartree-type preconditioning will be used
 using additional bands          224
 reciprocal scheme for non local part
 use partial core corrections
 no Harris-corrections to forces 
 use gradient corrections 
 use of overlap-Matrix (Vanderbilt PP)
 Gauss-broadening in eV      SIGMA  =   0.01


--------------------------------------------------------------------------------------------------------


  energy-cutoff  :     1000.00
  volume of cell :     2859.53
      direct lattice vectors                 reciprocal lattice vectors
    15.308823766  0.000000000 -0.032020683     0.065397341 -0.000000000  0.036113334
     0.000000000 10.742368833  0.000000000    -0.000000000  0.093089338 -0.000000000
    -9.613068678  0.000000000 17.408227280     0.000120292 -0.000000000  0.057510530

  length of vectors
    15.308857254 10.742368833 19.886112401     0.074705992  0.093089338  0.057510656



 old parameters found on file WAVECAR:
  energy-cutoff  :     1000.00
  volume of cell :     2859.53
      direct lattice vectors                 reciprocal lattice vectors
    15.308823766  0.000000000 -0.032020683     0.065397341 -0.000000000  0.036113334
     0.000000000 10.742368833  0.000000000    -0.000000000  0.093089338 -0.000000000
    -9.613068678  0.000000000 17.408227280     0.000120292 -0.000000000  0.057510530

  length of vectors


 k-points in units of 2pi/SCALE and weight: auto                                    
   0.00000000  0.00000000  0.00000000       1.000

 k-points in reciprocal lattice and weights: auto                                    
   0.00000000  0.00000000  0.00000000       1.000

 position of ions in fractional coordinates (direct lattice) 
   0.07794913  0.11036355  0.08925859
   0.57794913  0.11036355  0.08925859
   0.07794913  0.61036355  0.08925859
   0.57794913  0.61036355  0.08925859
   0.07794913  0.11036355  0.58925859
   0.57794913  0.11036355  0.58925859
   0.07794913  0.61036355  0.58925859
   0.57794913  0.61036355  0.58925859
   0.42205087  0.38963645  0.41074141
   0.92205087  0.38963645  0.41074141
   0.42205087  0.88963645  0.41074141
   0.92205087  0.88963645  0.41074141
   0.42205087  0.38963645  0.91074141
   0.92205087  0.38963645  0.91074141
   0.42205087  0.88963645  0.91074141
   0.92205087  0.88963645  0.91074141
   0.42205090  0.36036356  0.16074142
   0.92205090  0.36036356  0.16074142
   0.42205090  0.86036356  0.16074142
   0.92205090  0.86036356  0.16074142
   0.42205090  0.36036356  0.66074142
   0.92205090  0.36036356  0.66074142
   0.42205090  0.86036356  0.66074142
   0.92205090  0.86036356  0.66074142
   0.07794910  0.13963643  0.33925858
   0.57794910  0.13963643  0.33925858
   0.07794910  0.63963643  0.33925858
   0.57794910  0.63963643  0.33925858
   0.07794910  0.13963643  0.83925858
   0.57794910  0.13963643  0.83925858
   0.07794910  0.63963643  0.83925858
   0.57794910  0.63963643  0.83925858
   0.15419841  0.27916217  0.14845598
   0.65419841  0.27916217  0.14845598
   0.15419841  0.77916217  0.14845598
   0.65419841  0.77916217  0.14845598
   0.15419841  0.27916217  0.64845598
   0.65419841  0.27916217  0.64845598
   0.15419841  0.77916217  0.64845598
   0.65419841  0.77916217  0.64845598
   0.34580159  0.22083784  0.35154401
   0.84580159  0.22083784  0.35154401
   0.34580159  0.72083784  0.35154401
   0.84580159  0.72083784  0.35154401
   0.34580159  0.22083784  0.85154401
   0.84580159  0.22083784  0.85154401
   0.34580159  0.72083784  0.85154401
   0.84580159  0.72083784  0.85154401
   0.34580164  0.02916217  0.10154402
   0.84580164  0.02916217  0.10154402
   0.34580164  0.52916217  0.10154402
   0.84580164  0.52916217  0.10154402
   0.34580164  0.02916217  0.60154402
   0.84580164  0.02916217  0.60154402
   0.34580164  0.52916217  0.60154402
   0.84580164  0.52916217  0.60154402
   0.15419837  0.47083781  0.39845598
   0.65419837  0.47083781  0.39845598
   0.15419837  0.97083781  0.39845598
   0.65419837  0.97083781  0.39845598
   0.15419837  0.47083781  0.89845598
   0.65419837  0.47083781  0.89845598
   0.15419837  0.97083781  0.89845598
   0.65419837  0.97083781  0.89845598
   0.15811460  0.27597318  0.08082910
   0.65811460  0.27597318  0.08082910
   0.15811460  0.77597318  0.08082910
   0.65811460  0.77597318  0.08082910
   0.15811460  0.27597318  0.58082910
   0.65811460  0.27597318  0.58082910
   0.15811460  0.77597318  0.58082910
   0.65811460  0.77597318  0.58082910
   0.34188541  0.22402680  0.41917089
   0.84188541  0.22402680  0.41917089
   0.34188541  0.72402680  0.41917089
   0.84188541  0.72402680  0.41917089
   0.34188541  0.22402680  0.91917089
   0.84188541  0.22402680  0.91917089
   0.34188541  0.72402680  0.91917089
   0.84188541  0.72402680  0.91917089
   0.34188545  0.02597322  0.16917091
   0.84188545  0.02597322  0.16917091
   0.34188545  0.52597322  0.16917091
   0.84188545  0.52597322  0.16917091
   0.34188545  0.02597322  0.66917091
   0.84188545  0.02597322  0.66917091
   0.34188545  0.52597322  0.66917091
   0.84188545  0.52597322  0.66917091
   0.15811456  0.47402677  0.33082909
   0.65811456  0.47402677  0.33082909
   0.15811456  0.97402677  0.33082909
   0.65811456  0.97402677  0.33082909
   0.15811456  0.47402677  0.83082909
   0.65811456  0.47402677  0.83082909
   0.15811456  0.97402677  0.83082909
   0.65811456  0.97402677  0.83082909
   0.10910654  0.16801699  0.04358774
   0.60910654  0.16801699  0.04358774
   0.10910654  0.66801699  0.04358774
   0.60910654  0.66801699  0.04358774
   0.10910654  0.16801699  0.54358774
   0.60910654  0.16801699  0.54358774
   0.10910654  0.66801699  0.54358774
   0.60910654  0.66801699  0.54358774
   0.39089346  0.33198299  0.45641226
   0.89089346  0.33198299  0.45641226
   0.39089346  0.83198299  0.45641226
   0.89089346  0.83198299  0.45641226
   0.39089346  0.33198299  0.95641226
   0.89089346  0.33198299  0.95641226
   0.39089346  0.83198299  0.95641226
   0.89089346  0.83198299  0.95641226
   0.39089350  0.41801700  0.20641226
   0.89089350  0.41801700  0.20641226
   0.39089350  0.91801700  0.20641226
   0.89089350  0.91801700  0.20641226
   0.39089350  0.41801700  0.70641226
   0.89089350  0.41801700  0.70641226
   0.39089350  0.91801700  0.70641226
   0.89089350  0.91801700  0.70641226
   0.10910652  0.08198300  0.29358774
   0.60910652  0.08198300  0.29358774
   0.10910652  0.58198300  0.29358774
   0.60910652  0.58198300  0.29358774
   0.10910652  0.08198300  0.79358774
   0.60910652  0.08198300  0.79358774
   0.10910652  0.58198300  0.79358774
   0.60910652  0.58198300  0.79358774
   0.10382059  0.17499172  0.15353836
   0.60382059  0.17499172  0.15353836
   0.10382059  0.67499172  0.15353836
   0.60382059  0.67499172  0.15353836
   0.10382059  0.17499172  0.65353836
   0.60382059  0.17499172  0.65353836
   0.10382059  0.67499172  0.65353836
   0.60382059  0.67499172  0.65353836
   0.39617941  0.32500829  0.34646164
   0.89617941  0.32500829  0.34646164
   0.39617941  0.82500829  0.34646164
   0.89617941  0.82500829  0.34646164
   0.39617941  0.32500829  0.84646164
   0.89617941  0.32500829  0.84646164
   0.39617941  0.82500829  0.84646164
   0.89617941  0.82500829  0.84646164
   0.39617944  0.42499170  0.09646164
   0.89617944  0.42499170  0.09646164
   0.39617944  0.92499170  0.09646164
   0.89617944  0.92499170  0.09646164
   0.39617944  0.42499170  0.59646164
   0.89617944  0.42499170  0.59646164
   0.39617944  0.92499170  0.59646164
   0.89617944  0.92499170  0.59646164
   0.10382055  0.07500828  0.40353835
   0.60382055  0.07500828  0.40353835
   0.10382055  0.57500828  0.40353835
   0.60382055  0.57500828  0.40353835
   0.10382055  0.07500828  0.90353835
   0.60382055  0.07500828  0.90353835
   0.10382055  0.57500828  0.90353835
   0.60382055  0.57500828  0.90353835
   0.10168583  0.13511252  0.49201767
   0.60168583  0.13511252  0.49201767
   0.10168583  0.63511252  0.49201767
   0.60168583  0.63511252  0.49201767
   0.10168583  0.13511252  0.99201767
   0.60168583  0.13511252  0.99201767
   0.10168583  0.63511252  0.99201767
   0.60168583  0.63511252  0.99201767
   0.39831417  0.36488745  0.00798233
   0.89831417  0.36488745  0.00798233
   0.39831417  0.86488745  0.00798233
   0.89831417  0.86488745  0.00798233
   0.39831417  0.36488745  0.50798233
   0.89831417  0.36488745  0.50798233
   0.39831417  0.86488745  0.50798233
   0.89831417  0.86488745  0.50798233
   0.39831419  0.38511256  0.25798233
   0.89831419  0.38511256  0.25798233
   0.39831419  0.88511256  0.25798233
   0.89831419  0.88511256  0.25798233
   0.39831419  0.38511256  0.75798233
   0.89831419  0.38511256  0.75798233
   0.39831419  0.88511256  0.75798233
   0.89831419  0.88511256  0.75798233
   0.10168582  0.11488745  0.24201767
   0.60168582  0.11488745  0.24201767
   0.10168582  0.61488745  0.24201767
   0.60168582  0.61488745  0.24201767
   0.10168582  0.11488745  0.74201767
   0.60168582  0.11488745  0.74201767
   0.10168582  0.61488745  0.74201767
   0.60168582  0.61488745  0.74201767
   0.03805142  0.02326581  0.07491876
   0.53805142  0.02326581  0.07491876
   0.03805142  0.52326581  0.07491876
   0.53805142  0.52326581  0.07491876
   0.03805142  0.02326581  0.57491876
   0.53805142  0.02326581  0.57491876
   0.03805142  0.52326581  0.57491876
   0.53805142  0.52326581  0.57491876
   0.46194858  0.47673419  0.42508125
   0.96194858  0.47673419  0.42508125
   0.46194858  0.97673419  0.42508125
   0.96194858  0.97673419  0.42508125
   0.46194858  0.47673419  0.92508125
   0.96194858  0.47673419  0.92508125
   0.46194858  0.97673419  0.92508125
   0.96194858  0.97673419  0.92508125
   0.46194860  0.27326580  0.17508125
   0.96194860  0.27326580  0.17508125
   0.46194860  0.77326580  0.17508125
   0.96194860  0.77326580  0.17508125
   0.46194860  0.27326580  0.67508125
   0.96194860  0.27326580  0.67508125
   0.46194860  0.77326580  0.67508125
   0.96194860  0.77326580  0.67508125
   0.03805140  0.22673418  0.32491875
   0.53805140  0.22673418  0.32491875
   0.03805140  0.72673418  0.32491875
   0.53805140  0.72673418  0.32491875
   0.03805140  0.22673418  0.82491875
   0.53805140  0.22673418  0.82491875
   0.03805140  0.72673418  0.82491875
   0.53805140  0.72673418  0.82491875
   0.18407680  0.34870817  0.19307652
   0.68407680  0.34870817  0.19307652
   0.18407680  0.84870817  0.19307652
   0.68407680  0.84870817  0.19307652
   0.18407680  0.34870817  0.69307652
   0.68407680  0.34870817  0.69307652
   0.18407680  0.84870817  0.69307652
   0.68407680  0.84870817  0.69307652
   0.31592321  0.15129184  0.30692346
   0.81592321  0.15129184  0.30692346
   0.31592321  0.65129184  0.30692346
   0.81592321  0.65129184  0.30692346
   0.31592321  0.15129184  0.80692346
   0.81592321  0.15129184  0.80692346
   0.31592321  0.65129184  0.80692346
   0.81592321  0.65129184  0.80692346
   0.31592324  0.09870816  0.05692348
   0.81592324  0.09870816  0.05692348
   0.31592324  0.59870816  0.05692348
   0.81592324  0.59870816  0.05692348
   0.31592324  0.09870816  0.55692348
   0.81592324  0.09870816  0.55692348
   0.31592324  0.59870816  0.55692348
   0.81592324  0.59870816  0.55692348
   0.18407676  0.40129182  0.44307651
   0.68407676  0.40129182  0.44307651
   0.18407676  0.90129182  0.44307651
   0.68407676  0.90129182  0.44307651
   0.18407676  0.40129182  0.94307651
   0.68407676  0.40129182  0.94307651
   0.18407676  0.90129182  0.94307651
   0.68407676  0.90129182  0.94307651
   0.19075284  0.33878036  0.05650044
   0.69075284  0.33878036  0.05700330
   0.19075284  0.83878036  0.05700330
   0.69075284  0.83878036  0.05700330
   0.19075284  0.33878036  0.55700330
   0.69075284  0.33878036  0.55700330
   0.19075284  0.83878036  0.55700330
   0.69075284  0.83878036  0.55700330
   0.30924718  0.16121961  0.44299669
   0.80924718  0.16121961  0.44299669
   0.30924718  0.66121961  0.44299669
   0.80924718  0.66121961  0.44299669
   0.30924718  0.16121961  0.94299669
   0.80924718  0.16121961  0.94299669
   0.30924718  0.66121961  0.94299669
   0.80924718  0.66121961  0.94299669
   0.30924722  0.08878039  0.19299670
   0.80924722  0.08878039  0.19299670
   0.30924722  0.58878039  0.19299670
   0.80924722  0.58878039  0.19299670
   0.30924722  0.08878039  0.69299670
   0.80924722  0.08878039  0.69299670
   0.30924722  0.58878039  0.69299670
   0.80924722  0.58878039  0.69299670
   0.19075280  0.41121962  0.30700330
   0.69075280  0.41121962  0.30700330
   0.19075280  0.91121962  0.30700330
   0.69075280  0.91121962  0.30700330
   0.19075280  0.41121962  0.80700330
   0.69075280  0.41121962  0.80700330
   0.19075280  0.91121962  0.80700330
   0.69075280  0.91121962  0.80700330

 position of ions in cartesian coordinates  (Angst):
   0.33526052  1.18556599  1.55133792
   7.98967240  1.18556599  1.53532758
   0.33526052  6.55675041  1.55133792
   7.98967240  6.55675041  1.53532758
  -4.47127382  1.18556599 10.25545156
   3.18313806  1.18556599 10.23944122
  -4.47127382  6.55675041 10.25545156
   3.18313806  6.55675041 10.23944122
   2.51261702  4.18561840  7.13676541
  10.16702890  4.18561840  7.12075507
   2.51261702  9.55680282  7.13676541
  10.16702890  9.55680282  7.12075507
  -2.29391732  4.18561840 15.84087905
   5.36049456  4.18561840 15.82486871
  -2.29391732  9.55680282 15.84087905
   5.36049456  9.55680282 15.82486871
   4.91588455  3.87115824  2.78470885
  12.57029643  3.87115824  2.76869851
   4.91588455  9.24234266  2.78470885
  12.57029643  9.24234266  2.76869851
   0.10935021  3.87115824 11.48882249
   7.76376209  3.87115824 11.47281215
   0.10935021  9.24234266 11.48882249
   7.76376209  9.24234266 11.47281215
  -2.06800695  1.50002599  5.90339440
   5.58640494  1.50002599  5.88738406
  -2.06800695  6.87121041  5.90339440
   5.58640494  6.87121041  5.88738406
  -6.87454129  1.50002599 14.60750804
   0.77987060  1.50002599 14.59149770
  -6.87454129  6.87121041 14.60750804
   0.77987060  6.87121041 14.59149770
   0.93347884  2.99886296  2.57941785
   8.58789073  2.99886296  2.56340751
   0.93347884  8.37004738  2.57941785
   8.58789073  8.37004738  2.56340751
  -3.87305550  2.99886296 11.28353149
   3.78135639  2.99886296 11.26752115
  -3.87305550  8.37004738 11.28353149
   3.78135639  8.37004738 11.26752115
   1.91439886  2.37232150  6.10868527
   9.56881074  2.37232150  6.09267493
   1.91439886  7.74350591  6.10868527
   9.56881074  7.74350591  6.09267493
  -2.89213548  2.37232150 14.81279891
   4.76227640  2.37232150 14.79678857
  -2.89213548  7.74350591 14.81279891
   4.76227640  7.74350591 14.79678857
   4.31766669  0.31327083  1.75662852
  11.97207858  0.31327083  1.74061818
   4.31766669  5.68445525  1.75662852
  11.97207858  5.68445525  1.74061818
  -0.48886765  0.31327083 10.46074216
   7.16554424  0.31327083 10.44473182
  -0.48886765  5.68445525 10.46074216
   7.16554424  5.68445525 10.44473182
  -1.46978905  5.05791339  6.93147465
   6.18462283  5.05791339  6.91546431
  -1.46978905 10.42909781  6.93147465
   6.18462283 10.42909781  6.91546431
  -6.27632339  5.05791339 15.63558829
   1.37808849  5.05791339 15.61957795
  -6.27632339 10.42909781 15.63558829
   1.37808849 10.42909781 15.61957795
   1.64353278  2.96460569  1.40202844
   9.29794466  2.96460569  1.38601810
   1.64353278  8.33579010  1.40202844
   9.29794466  8.33579010  1.38601810
  -3.16300156  2.96460569 10.10614208
   4.49141032  2.96460569 10.09013174
  -3.16300156  8.33579010 10.10614208
   4.49141032  8.33579010 10.09013174
   1.20434496  2.40657856  7.28607470
   8.85875684  2.40657856  7.27006436
   1.20434496  7.77776297  7.28607470
   8.85875684  7.77776297  7.27006436
  -3.60218938  2.40657856 15.99018834
   4.05222250  2.40657856 15.97417800
  -3.60218938  7.77776297 15.99018834
   4.05222250  7.77776297 15.97417800
   3.60761257  0.27901392  2.93401823
  11.26202445  0.27901392  2.91800789
   3.60761257  5.65019834  2.93401823
  11.26202445  5.65019834  2.91800789
  -1.19892177  0.27901392 11.63813187
   6.45549011  0.27901392 11.62212153
  -1.19892177  5.65019834 11.63813187
   6.45549011  5.65019834 11.62212153
  -0.75973478  5.09217044  5.75408505
   6.89467710  5.09217044  5.73807471
  -0.75973478 10.46335486  5.75408505
   6.89467710 10.46335486  5.73807471
  -5.56626912  5.09217044 14.45819869
   2.08814276  5.09217044 14.44218835
  -5.56626912 10.46335486 14.45819869
   2.08814276 10.46335486 14.44218835
   1.25128091  1.80490047  0.75529160
   8.90569279  1.80490047  0.73928126
   1.25128091  7.17608488  0.75529160
   8.90569279  7.17608488  0.73928126
  -3.55525343  1.80490047  9.45940524
   4.09915845  1.80490047  9.44339490
  -3.55525343  7.17608488  9.45940524
   4.09915845  7.17608488  9.44339490
   1.59659674  3.56628372  7.93281168
   9.25100862  3.56628372  7.91680134
   1.59659674  8.93746814  7.93281168
   9.25100862  8.93746814  7.91680134
  -3.20993760  3.56628372 16.63692532
   4.44447428  3.56628372 16.62091498
  -3.20993760  8.93746814 16.63692532
   4.44447428  8.93746814 16.62091498
   3.99986435  4.49049276  3.58075495
  11.65427623  4.49049276  3.56474460
   3.99986435  9.86167718  3.58075495
  11.65427623  9.86167718  3.56474460
  -0.80666999  4.49049276 12.28486859
   6.84774189  4.49049276 12.26885824
  -0.80666999  9.86167718 12.28486859
   6.84774189  9.86167718 12.26885824
  -1.15198658  0.88069162  5.10734837
[...]
     -3.60219      2.40658     15.99019         0.004587     -0.002904     -0.003737
      4.05222      2.40658     15.97418         0.004619     -0.002912     -0.003711
     -3.60219      7.77776     15.99019         0.004609     -0.002900     -0.003716
      4.05222      7.77776     15.97418         0.004607     -0.002907     -0.003713
      3.60761      0.27901      2.93402         0.004592      0.002937     -0.003754
     11.26202      0.27901      2.91801         0.004619      0.002917     -0.003702
      3.60761      5.65020      2.93402         0.005057      0.002787     -0.003688
     11.26202      5.65020      2.91801         0.004643      0.002887     -0.003722
     -1.19892      0.27901     11.63813         0.004623      0.002901     -0.003730
      6.45549      0.27901     11.62212         0.004626      0.002900     -0.003730
     -1.19892      5.65020     11.63813         0.004620      0.002901     -0.003734
      6.45549      5.65020     11.62212         0.004626      0.002911     -0.003730
     -0.75973      5.09217      5.75409        -0.004645     -0.002880      0.003709
      6.89468      5.09217      5.73807        -0.004628     -0.002871      0.003722
     -0.75973     10.46335      5.75409        -0.004548     -0.003035      0.003766
      6.89468     10.46335      5.73807        -0.004623     -0.002891      0.003727
     -5.56627      5.09217     14.45820        -0.004507     -0.002982      0.003642
      2.08814      5.09217     14.44219        -0.004622     -0.002898      0.003730
     -5.56627     10.46335     14.45820        -0.004652     -0.002873      0.003724
      2.08814     10.46335     14.44219        -0.004626     -0.002899      0.003727
      1.25128      1.80490      0.75529        -0.016860     -0.013069      0.006293
      8.90569      1.80490      0.73928        -0.004800     -0.003786     -0.002367
      1.25128      7.17608      0.75529        -0.004896     -0.003863     -0.002368
      8.90569      7.17608      0.73928        -0.004799     -0.003774     -0.002352
     -3.55525      1.80490      9.45941        -0.004802     -0.003772     -0.002329
      4.09916      1.80490      9.44339        -0.004822     -0.003774     -0.002313
     -3.55525      7.17608      9.45941        -0.004828     -0.003776     -0.002297
      4.09916      7.17608      9.44339        -0.004823     -0.003774     -0.002306
      1.59660      3.56628      7.93281         0.004772      0.003776      0.002365
      9.25101      3.56628      7.91680         0.004822      0.003782      0.002334
      1.59660      8.93747      7.93281         0.004793      0.003800      0.002370
      9.25101      8.93747      7.91680         0.004816      0.003779      0.002338
     -3.20994      3.56628     16.63693         0.004818      0.003777      0.002245
      4.44447      3.56628     16.62091         0.004860      0.003853      0.002292
     -3.20994      8.93747     16.63693         0.004825      0.003764      0.002285
      4.44447      8.93747     16.62091         0.004803      0.003768      0.002294
      3.99986      4.49049      3.58075         0.004737     -0.003492      0.001957
     11.65428      4.49049      3.56474         0.004818     -0.003774      0.002368
      3.99986      9.86168      3.58075         0.004814     -0.003775      0.002338
     11.65428      9.86168      3.56474         0.004803     -0.003746      0.002349
     -0.80667      4.49049     12.28487         0.004793     -0.003775      0.002344
      6.84774      4.49049     12.26886         0.004820     -0.003756      0.002341
     -0.80667      9.86168     12.28487         0.004804     -0.003763      0.002331
      6.84774      9.86168     12.26886         0.004812     -0.003766      0.002331
     -1.15199      0.88069      5.10735        -0.004619      0.003880     -0.002780
      6.50243      0.88069      5.09134        -0.004813      0.003771     -0.002312
     -1.15199      6.25188      5.10735        -0.004831      0.003735     -0.002287
      6.50243      6.25188      5.09134        -0.004794      0.003776     -0.002280
     -5.95852      0.88069     13.81146        -0.004813      0.003771     -0.002324
      1.69589      0.88069     13.79545        -0.004814      0.003769     -0.002336
     -5.95852      6.25188     13.81146        -0.004798      0.003588     -0.002159
      1.69589      6.25188     13.79545        -0.004805      0.003768     -0.002330
      0.11340      1.87983      2.66951        -0.001780     -0.000175     -0.005870
      7.76781      1.87983      2.65350        -0.005392     -0.001879     -0.002238
      0.11340      7.25101      2.66951        -0.005503     -0.001888     -0.002276
      7.76781      7.25101      2.65350        -0.005398     -0.001856     -0.002241
     -4.69314      1.87983     11.37362        -0.005429     -0.001860     -0.002224
      2.96127      1.87983     11.35761        -0.005442     -0.001858     -0.002233
     -4.69314      7.25101     11.37362        -0.005445     -0.001876     -0.002190
      2.96127      7.25101     11.35761        -0.005437     -0.001859     -0.002228
      2.73448      3.49136      6.01860         0.005388      0.001841      0.002299
     10.38889      3.49136      6.00259         0.005452      0.001858      0.002242
      2.73448      8.86254      6.01860         0.005410      0.001862      0.002259
     10.38889      8.86254      6.00259         0.005437      0.001860      0.002240
     -2.07205      3.49136     14.72271         0.005408      0.001834      0.002232
      5.58236      3.49136     14.70670         0.005473      0.001917      0.002241
     -2.07205      8.86254     14.72271         0.005437      0.001857      0.002210
      5.58236      8.86254     14.70670         0.005454      0.001843      0.002208
      5.13775      4.56542      1.66654         0.005651     -0.001868      0.002220
     12.79216      4.56542      1.65053         0.005423     -0.001882      0.002257
      5.13775      9.93660      1.66654         0.005442     -0.001871      0.002239
     12.79216      9.93660      1.65053         0.005404     -0.001873      0.002257
      0.33121      4.56542     10.37065         0.005416     -0.001854      0.002247
      7.98563      4.56542     10.35464         0.005434     -0.001847      0.002252
      0.33121      9.93660     10.37065         0.005418     -0.001848      0.002243
      7.98563      9.93660     10.35464         0.005434     -0.001856      0.002244
     -2.28987      0.80577      7.02156        -0.005370      0.001913     -0.002369
      5.36454      0.80577      7.00555        -0.005432      0.001856     -0.002224
     -2.28987      6.17695      7.02156        -0.005437      0.001840     -0.002209
      5.36454      6.17695      7.00555        -0.005438      0.001862     -0.002209
     -7.09641      0.80577     15.72568        -0.005419      0.001924     -0.002183
      0.55801      0.80577     15.70967        -0.005435      0.001856     -0.002248
     -7.09641      6.17695     15.72568        -0.005394      0.001659     -0.002177
      0.55801      6.17695     15.70967        -0.005429      0.001853     -0.002249
     -3.17311      1.45143      8.56190        -0.000358      0.001078      0.000604
      4.48130      1.45143      8.54589        -0.000333      0.001057      0.000552
     -3.17311      6.82261      8.56190        -0.000334      0.001053      0.000557
      4.48130      6.82261      8.54589        -0.000329      0.001053      0.000543
     -7.97964      1.45143     17.26601         0.000015      0.001793      0.000669
     -0.32523      1.45143     17.25000        -0.000345      0.001068      0.000596
     -7.97964      6.82261     17.26601        -0.000445      0.001103      0.000855
     -0.32523      6.82261     17.25000        -0.000347      0.001072      0.000599
      6.02099      3.91976      0.12620         0.000345     -0.000996     -0.000361
     13.67540      3.91976      0.11019         0.000380     -0.001053     -0.000590
      6.02099      9.29094      0.12620         0.000314     -0.001048     -0.000507
     13.67540      9.29094      0.11019         0.000362     -0.001063     -0.000565
      1.21445      3.91976      8.83032         0.000347     -0.001071     -0.000593
      8.86886      3.91976      8.81431         0.000343     -0.001064     -0.000595
      1.21445      9.29094      8.83032         0.000357     -0.001072     -0.000596
      8.86886      9.29094      8.81431         0.000341     -0.001064     -0.000590
      3.61772      4.13702      4.47826         0.000400      0.001107     -0.000785
     11.27213      4.13702      4.46225         0.000336      0.001067     -0.000575
      3.61772      9.50821      4.47826         0.000358      0.001060     -0.000617
     11.27213      9.50821      4.46225         0.000333      0.001057     -0.000579
     -1.18881      4.13702     13.18237         0.000356      0.001067     -0.000591
      6.46560      4.13702     13.16636         0.000312      0.001048     -0.000562
     -1.18881      9.50821     13.18237         0.000345      0.001061     -0.000572
      6.46560      9.50821     13.16636         0.000323      0.001057     -0.000565
     -0.76984      1.23416      4.20984        -0.000603     -0.001256      0.001315
      6.88457      1.23416      4.19383        -0.000359     -0.001054      0.000568
     -0.76984      6.60535      4.20984        -0.000289     -0.001034      0.000489
      6.88457      6.60535      4.19383        -0.000375     -0.001078      0.000567
     -5.57638      1.23416     12.91396        -0.000338     -0.001056      0.000553
      2.07804      1.23416     12.89795        -0.000339     -0.001059      0.000575
     -5.57638      6.60535     12.91396        -0.000284     -0.001047      0.000477
      2.07804      6.60535     12.89795        -0.000338     -0.001059      0.000576
     -0.13768      0.24993      1.30298         0.002393     -0.006726      0.003285
      7.51674      0.24993      1.28697         0.002826     -0.006553      0.002556
     -0.13768      5.62111      1.30298         0.002971     -0.006563      0.002584
      7.51674      5.62111      1.28697         0.002806     -0.006553      0.002565
     -4.94421      0.24993     10.00710         0.002828     -0.006550      0.002551
      2.71020      0.24993      9.99109         0.002830     -0.006549      0.002551
     -4.94421      5.62111     10.00710         0.002829     -0.006549      0.002550
      2.71020      5.62111      9.99109         0.002831     -0.006548      0.002550
      2.98555      5.12125      7.38512        -0.002826      0.006554     -0.002556
     10.63997      5.12125      7.36911        -0.002830      0.006551     -0.002555
      2.98555     10.49244      7.38512        -0.002827      0.006552     -0.002551
     10.63997     10.49244      7.36911        -0.002838      0.006552     -0.002551
     -1.82098      5.12125     16.08923        -0.002825      0.006550     -0.002546
      5.83343      5.12125     16.07322        -0.002845      0.006523     -0.002520
     -1.82098     10.49244     16.08923        -0.002824      0.006548     -0.002549
      5.83343     10.49244     16.07322        -0.002837      0.006551     -0.002537
      5.38882      2.93552      3.03306        -0.002877     -0.006551     -0.002573
     13.04323      2.93552      3.01705        -0.002890     -0.006519     -0.002548
      5.38882      8.30671      3.03306        -0.002852     -0.006565     -0.002557
     13.04323      8.30671      3.01705        -0.002817     -0.006555     -0.002558
      0.58229      2.93552     11.73718        -0.002828     -0.006549     -0.002551
      8.23670      2.93552     11.72117        -0.002833     -0.006554     -0.002555
      0.58229      8.30671     11.73718        -0.002828     -0.006549     -0.002551
      8.23670      8.30671     11.72117        -0.002833     -0.006549     -0.002558
     -2.54094      2.43566      5.65504         0.002829      0.006552      0.002552
      5.11347      2.43566      5.63903         0.002830      0.006548      0.002537
     -2.54094      7.80685      5.65504         0.002828      0.006546      0.002548
      5.11347      7.80685      5.63903         0.002828      0.006540      0.002544
     -7.34748      2.43566     14.35915         0.002801      0.006557      0.002533
      0.30693      2.43566     14.34314         0.002836      0.006549      0.002551
     -7.34748      7.80685     14.35915         0.002812      0.006546      0.002574
      0.30693      7.80685     14.34314         0.002834      0.006550      0.002552
      0.96194      3.74595      3.35523        -0.001995      0.005019     -0.001018
      8.61635      3.74595      3.33922        -0.001704      0.005381     -0.000872
      0.96194      9.11714      3.35523        -0.001671      0.005371     -0.000862
      8.61635      9.11714      3.33922        -0.001699      0.005381     -0.000869
     -3.84459      3.74595     12.05934        -0.001688      0.005380     -0.000871
      3.80982      3.74595     12.04333        -0.001697      0.005378     -0.000867
     -3.84459      9.11714     12.05934        -0.001692      0.005377     -0.000869
      3.80982      9.11714     12.04333        -0.001697      0.005378     -0.000867
      1.88594      1.62523      5.33288         0.001723     -0.005386      0.000868
      9.54035      1.62523      5.31687         0.001690     -0.005374      0.000867
      1.88594      6.99642      5.33288         0.001705     -0.005373      0.000860
      9.54035      6.99642      5.31687         0.001692     -0.005374      0.000870
     -2.92060      1.62523     14.03699         0.001701     -0.005377      0.000870
      4.73381      1.62523     14.02098         0.001695     -0.005382      0.000866
     -2.92060      6.99642     14.03699         0.001705     -0.005379      0.000862
      4.73381      6.99642     14.02098         0.001691     -0.005378      0.000868
      4.28920      1.06036      0.98082         0.001685      0.005367      0.000929
     11.94362      1.06036      0.96481         0.001691      0.005382      0.000856
      4.28920      6.43154      0.98082         0.001709      0.005439      0.000849
     11.94362      6.43154      0.96481         0.001704      0.005381      0.000863
     -0.51733      1.06036      9.68493         0.001702      0.005387      0.000863
      7.13708      1.06036      9.66892         0.001695      0.005380      0.000859
     -0.51733      6.43154      9.68493         0.001700      0.005382      0.000861
      7.13708      6.43154      9.66892         0.001694      0.005379      0.000859
     -1.44133      4.31082      7.70728        -0.001694     -0.005382     -0.000859
      6.21309      4.31082      7.69127        -0.001701     -0.005387     -0.000863
     -1.44133      9.68201      7.70728        -0.001687     -0.005381     -0.000873
      6.21309      9.68201      7.69127        -0.001700     -0.005387     -0.000863
     -6.24786      4.31082     16.41140        -0.001214     -0.005046     -0.001932
      1.40655      4.31082     16.39539        -0.001695     -0.005381     -0.000860
     -6.24786      9.68201     16.41140        -0.001699     -0.005370     -0.000851
      1.40655      9.68201     16.39539        -0.001697     -0.005382     -0.000860
      2.37706      3.63930      0.97746        -0.157296     -0.118178      0.115865
     10.02664      3.63930      0.97021        -0.000494      0.003565     -0.002511
      2.37222      9.01049      0.98622        -0.000490      0.003576     -0.002496
     10.02664      9.01049      0.97021        -0.000496      0.003565     -0.002512
     -2.43431      3.63930      9.69033        -0.000496      0.003564     -0.002507
      5.22010      3.63930      9.67432        -0.000499      0.003565     -0.002514
     -2.43431      9.01049      9.69033        -0.000495      0.003564     -0.002504
      5.22010      9.01049      9.67432        -0.000498      0.003564     -0.002513
      0.47565      1.73188      7.70188         0.000499     -0.003562      0.002518
      8.13006      1.73188      7.68587         0.000491     -0.003563      0.002503
      0.47565      7.10306      7.70188         0.000498     -0.003565      0.002511
      8.13006      7.10306      7.68587         0.000491     -0.003563      0.002502
     -4.33088      1.73188     16.40600         0.000508     -0.003608      0.002532
      3.32353      1.73188     16.38999         0.000497     -0.003564      0.002507
     -4.33088      7.10306     16.40600         0.000506     -0.003557      0.002539
      3.32353      7.10306     16.38999         0.000504     -0.003565      0.002509
      2.87892      0.95371      3.34983         0.000531      0.003602      0.002502
     10.53333      0.95371      3.33382         0.000481      0.003572      0.002511
      2.87892      6.32490      3.34983         0.000430      0.003495      0.002444
     10.53333      6.32490      3.33382         0.000485      0.003569      0.002515
     -1.92761      0.95371     12.05394         0.000490      0.003573      0.002515
      5.72680      0.95371     12.03793         0.000484      0.003571      0.002514
     -1.92761      6.32490     12.05394         0.000490      0.003574      0.002515
      5.72680      6.32490     12.03793         0.000481      0.003571      0.002512
     -0.03104      4.41747      5.33828        -0.000475     -0.003555     -0.002502
      7.62337      4.41747      5.32226        -0.000499     -0.003572     -0.002519
     -0.03104      9.78866      5.33828        -0.000487     -0.003574     -0.002514
      7.62337      9.78866      5.32226        -0.000494     -0.003573     -0.002517
     -4.83758      4.41747     14.04239        -0.000484     -0.003571     -0.002508
      2.81683      4.41747     14.02638        -0.000486     -0.003571     -0.002511
     -4.83758      9.78866     14.04239        -0.000485     -0.003571     -0.002513
      2.81683      9.78866     14.02638        -0.000486     -0.003572     -0.002512
 -----------------------------------------------------------------------------------
    total drift:                               -0.000112     -0.000149     -0.000056


--------------------------------------------------------------------------------------------------------



  FREE ENERGIE OF THE ION-ELECTRON SYSTEM (eV)
  ---------------------------------------------------
  free  energy   TOTEN  =     -1638.40372521 eV

  energy  without entropy=    -1638.40372521  energy(sigma->0) =    -1638.40372521



--------------------------------------------------------------------------------------------------------


    POTLOK:  cpu time      3.7037: real time      3.7051


--------------------------------------------------------------------------------------------------------


 writing wavefunctions
     LOOP+:  cpu time    199.9925: real time    201.3965
    4ORBIT:  cpu time      0.0000: real time      0.0000

 total amount of memory used by VASP MPI-rank0   226327. kBytes
=======================================================================

   base      :      30000. kBytes
   nonl-proj :     123494. kBytes
   fftplans  :      22743. kBytes
   grid      :      43746. kBytes
   one-center:        110. kBytes
   wavefun   :       6234. kBytes

  
  
 General timing and accounting informations for this job:
 ========================================================
  
                  Total CPU time used (sec):      314.997
                            User time (sec):      306.908
                          System time (sec):        8.089
                         Elapsed time (sec):      331.751
  
                   Maximum memory used (kb):      549052.
                   Average memory used (kb):          N/A
  
                          Minor page faults:       162755
                          Major page faults:         1162
                 Voluntary context switches:        10209
